<?xml version="1.0" encoding="ISO-8859-1"?>
<modeling>
 <generator>
  <i name="program" type="string">vasp </i>
  <i name="version" type="string">5.3.5  </i>
  <i name="subversion" type="string">31Mar14 (build Jun 20 2014 13:15:13) complex                          parallel </i>
  <i name="platform" type="string">LinuxIFC </i>
  <i name="date" type="string">2025 12 12 </i>
  <i name="time" type="string">13:46:08 </i>
 </generator>
 <incar>
  <i type="string" name="PREC">accurate</i>
  <i type="int" name="IALGO">    38</i>
  <i type="logical" name="ADDGRID"> T  </i>
  <i type="int" name="ISPIN">     2</i>
  <i type="int" name="NELM">   100</i>
  <i type="int" name="NELMIN">     4</i>
  <i name="EDIFF">      0.00000100</i>
  <i name="ENCUT">    500.00000000</i>
  <i type="logical" name="LREAL"> F  </i>
  <i type="int" name="ISMEAR">     0</i>
  <i name="SIGMA">      0.05000000</i>
  <i type="logical" name="LWAVE"> F  </i>
  <i type="logical" name="LCHARG"> F  </i>
  <i type="int" name="NELM">   100</i>
  <i type="logical" name="LDAU"> T  </i>
  <v name="LDAUU">      0.00000000      4.00000000      0.00000000</v>
  <v name="LDAUJ">      0.00000000      0.00000000      0.00000000</v>
 </incar>
 <kpoints>
  <generation param="Auto">
   <i name="subdivisionlength">     20.00000000 </i>
   <v type="int" name="divisions">       3        3        3 </v>
   <v name="usershift">      0.00000000       0.00000000       0.00000000 </v>
   <v name="genvec1">      0.33333333       0.00000000       0.00000000 </v>
   <v name="genvec2">      0.00000000       0.33333333       0.00000000 </v>
   <v name="genvec3">      0.00000000       0.00000000       0.33333333 </v>
   <v name="shift">      0.00000000       0.00000000       0.00000000 </v>
  </generation>
  <varray name="kpointlist" >
   <v>       0.00000000       0.00000000       0.00000000 </v>
   <v>       0.33333333       0.00000000       0.00000000 </v>
   <v>       0.00000000       0.33333333       0.00000000 </v>
   <v>       0.33333333       0.33333333       0.00000000 </v>
   <v>       0.00000000       0.00000000       0.33333333 </v>
   <v>       0.33333333       0.00000000       0.33333333 </v>
   <v>       0.00000000       0.33333333       0.33333333 </v>
   <v>       0.33333333       0.33333333       0.33333333 </v>
  </varray>
  <varray name="weights" >
   <v>       0.03703704 </v>
   <v>       0.07407407 </v>
   <v>       0.07407407 </v>
   <v>       0.14814815 </v>
   <v>       0.07407407 </v>
   <v>       0.14814815 </v>
   <v>       0.14814815 </v>
   <v>       0.29629630 </v>
  </varray>
 </kpoints>
 <parameters>
  <separator name="general" >
   <i type="string" name="SYSTEM">unknown system</i>
   <i type="logical" name="LCOMPAT"> F  </i>
  </separator>
  <separator name="electronic" >
   <i type="string" name="PREC">accura</i>
   <i name="ENMAX">    500.00000000</i>
   <i name="ENAUG">    586.98000000</i>
   <i name="EDIFF">      0.00000100</i>
   <i type="int" name="IALGO">    38</i>
   <i type="int" name="IWAVPR">    10</i>
   <i type="int" name="NBANDS">   176</i>
   <i name="NELECT">    264.00000000</i>
   <i type="int" name="TURBO">     0</i>
   <i type="int" name="IRESTART">     0</i>
   <i type="int" name="NREBOOT">     0</i>
   <i type="int" name="NMIN">     0</i>
   <i name="EREF">      0.00000000</i>
   <separator name="electronic smearing" >
    <i type="int" name="ISMEAR">     0</i>
    <i name="SIGMA">      0.05000000</i>
    <i name="KSPACING">      0.50000000</i>
    <i type="logical" name="KGAMMA"> T  </i>
   </separator>
   <separator name="electronic projectors" >
    <i type="logical" name="LREAL"> F  </i>
    <v name="ROPT">      0.00000000      0.00000000      0.00000000</v>
    <i type="int" name="LMAXPAW">  -100</i>
    <i type="int" name="LMAXMIX">     2</i>
    <i type="logical" name="NLSPLINE"> F  </i>
   </separator>
   <separator name="electronic startup" >
    <i type="int" name="ISTART">     0</i>
    <i type="int" name="ICHARG">     2</i>
    <i type="int" name="INIWAV">     1</i>
   </separator>
   <separator name="electronic spin" >
    <i type="int" name="ISPIN">     2</i>
    <i type="logical" name="LNONCOLLINEAR"> F  </i>
    <v name="MAGMOM">      1.00000000      1.00000000      1.00000000      1.00000000      1.00000000      1.00000000      1.00000000      1.00000000      1.00000000      1.00000000      1.00000000      1.00000000      1.00000000      1.00000000      1.00000000      1.00000000      1.00000000      1.00000000      1.00000000      1.00000000
      1.00000000      1.00000000      1.00000000      1.00000000      1.00000000      1.00000000      1.00000000      1.00000000      1.00000000      1.00000000      1.00000000      1.00000000</v>
    <i name="NUPDOWN">     -1.00000000</i>
    <i type="logical" name="LSORBIT"> F  </i>
    <v name="SAXIS">      0.00000000      0.00000000      1.00000000</v>
    <i type="logical" name="LSPIRAL"> F  </i>
    <v name="QSPIRAL">      0.00000000      0.00000000      0.00000000</v>
    <i type="logical" name="LZEROZ"> F  </i>
   </separator>
   <separator name="electronic exchange-correlation" >
    <i type="logical" name="LASPH"> F  </i>
    <i type="logical" name="LMETAGGA"> F  </i>
   </separator>
   <separator name="electronic convergence" >
    <i type="int" name="NELM">   100</i>
    <i type="int" name="NELMDL">    -5</i>
    <i type="int" name="NELMIN">     4</i>
    <i name="ENINI">    500.00000000</i>
    <separator name="electronic convergence detail" >
     <i type="logical" name="LDIAG"> T  </i>
     <i type="logical" name="LSUBROT"> F  </i>
     <i name="WEIMIN">      0.00000000</i>
     <i name="EBREAK">      0.00000000</i>
     <i name="DEPER">      0.30000000</i>
     <i type="int" name="NRMM">     4</i>
     <i name="TIME">      0.40000000</i>
    </separator>
   </separator>
   <separator name="electronic mixer" >
    <i name="AMIX">      0.40000000</i>
    <i name="BMIX">      1.00000000</i>
    <i name="AMIN">      0.10000000</i>
    <i name="AMIX_MAG">      1.60000000</i>
    <i name="BMIX_MAG">      1.00000000</i>
    <separator name="electronic mixer details" >
     <i type="int" name="IMIX">     4</i>
     <i type="int" name="MAXMIX">   -45</i>
     <i name="WC">    100.00000000</i>
     <i type="int" name="INIMIX">     1</i>
     <i type="int" name="MIXPRE">     1</i>
     <i type="int" name="MREMOVE">     5</i>
    </separator>
   </separator>
   <separator name="electronic dipolcorrection" >
    <i type="logical" name="LDIPOL"> F  </i>
    <i type="logical" name="LMONO"> F  </i>
    <i type="int" name="IDIPOL">     0</i>
    <i name="EPSILON">      1.00000000</i>
    <v name="DIPOL">   -100.00000000   -100.00000000   -100.00000000</v>
    <i name="EFIELD">      0.00000000</i>
   </separator>
  </separator>
  <separator name="grids" >
   <i type="int" name="NGX">    60</i>
   <i type="int" name="NGY">    60</i>
   <i type="int" name="NGZ">    60</i>
   <i type="int" name="NGXF">   120</i>
   <i type="int" name="NGYF">   120</i>
   <i type="int" name="NGZF">   120</i>
   <i type="logical" name="ADDGRID"> T  </i>
  </separator>
  <separator name="ionic" >
   <i type="int" name="NSW">     0</i>
   <i type="int" name="IBRION">    -1</i>
   <i type="int" name="ISIF">     2</i>
   <i name="PSTRESS">      0.00000000</i>
   <i name="EDIFFG">      0.00001000</i>
   <i type="int" name="NFREE">     0</i>
   <i name="POTIM">      0.50000000</i>
   <i name="SMASS">     -3.00000000</i>
   <i name="SCALEE">      1.00000000</i>
  </separator>
  <separator name="ionic md" >
   <i name="TEBEG">      0.00010000</i>
   <i name="TEEND">      0.00010000</i>
   <i type="int" name="NBLOCK">     1</i>
   <i type="int" name="KBLOCK">     1</i>
   <i type="int" name="NPACO">   256</i>
   <i name="APACO">     16.00000000</i>
  </separator>
  <separator name="symmetry" >
   <i type="int" name="ISYM">     2</i>
   <i name="SYMPREC">      0.00001000</i>
  </separator>
  <separator name="dos" >
   <i type="logical" name="LORBIT"> F  </i>
   <v name="RWIGS">     -1.00000000     -1.00000000     -1.00000000</v>
   <i type="int" name="NEDOS">   301</i>
   <i name="EMIN">     10.00000000</i>
   <i name="EMAX">    -10.00000000</i>
   <i name="EFERMI">      0.00000000</i>
  </separator>
  <separator name="writing" >
   <i type="int" name="NWRITE">     2</i>
   <i type="logical" name="LWAVE"> F  </i>
   <i type="logical" name="LCHARG"> F  </i>
   <i type="logical" name="LPARD"> F  </i>
   <i type="logical" name="LVTOT"> F  </i>
   <i type="logical" name="LVHAR"> F  </i>
   <i type="logical" name="LELF"> F  </i>
   <i type="logical" name="LOPTICS"> F  </i>
   <v name="STM">      0.00000000      0.00000000      0.00000000      0.00000000      0.00000000      0.00000000      0.00000000</v>
  </separator>
  <separator name="performance" >
   <i type="int" name="NPAR">     4</i>
   <i type="int" name="NSIM">     4</i>
   <i type="int" name="NBLK">    -1</i>
   <i type="logical" name="LPLANE"> T  </i>
   <i type="logical" name="LSCALAPACK"> T  </i>
   <i type="logical" name="LSCAAWARE"> F  </i>
   <i type="logical" name="LSCALU"> F  </i>
   <i type="logical" name="LASYNC"> F  </i>
   <i type="logical" name="LORBITALREAL"> F  </i>
  </separator>
  <separator name="miscellaneous" >
   <i type="int" name="IDIOT">     3</i>
   <i type="logical" name="LMUSIC"> F  </i>
   <v name="POMASS">     87.62000000     63.54600000     16.00000000</v>
   <v name="DARWINR">      0.00000000      0.00000000      0.00000000</v>
   <v name="DARWINV">      1.00000000      1.00000000      1.00000000</v>
   <i type="logical" name="LCORR"> T  </i>
  </separator>
  <i type="logical" name="GGA_COMPAT"> T  </i>
  <i type="logical" name="LBERRY"> F  </i>
  <i type="int" name="ICORELEVEL">     0</i>
  <i type="logical" name="LDAU"> T  </i>
  <v type="int" name="LDAUTYPE">     2</v>
  <v type="int" name="LDAUL">     2</v>
  <v name="LDAUU">      0.00000000</v>
  <v name="LDAUJ">      0.00000000</v>
  <i type="int" name="LDAUPRINT">     0</i>
  <i type="int" name="I_CONSTRAINED_M">     0</i>
  <separator name="electronic exchange-correlation" >
   <i type="string" name="GGA">--</i>
   <i type="int" name="VOSKOWN">     0</i>
   <i type="logical" name="LHFCALC"> F  </i>
   <i type="string" name="PRECFOCK"></i>
   <i type="logical" name="LSYMGRAD"> F  </i>
   <i type="logical" name="LHFONE"> F  </i>
   <i type="logical" name="LRHFCALC"> F  </i>
   <i type="logical" name="LTHOMAS"> F  </i>
   <i type="logical" name="LMODELHF"> F  </i>
   <i name="ENCUT4O">     -1.00000000</i>
   <i type="int" name="EXXOEP">     0</i>
   <i type="int" name="FOURORBIT">     0</i>
   <i name="AEXX">      0.00000000</i>
   <i name="HFALPHA">      0.00000000</i>
   <i name="MCALPHA">      0.00000000</i>
   <i name="ALDAX">      1.00000000</i>
   <i name="AGGAX">      1.00000000</i>
   <i name="ALDAC">      1.00000000</i>
   <i name="AGGAC">      1.00000000</i>
   <i type="int" name="NKREDX">     1</i>
   <i type="int" name="NKREDY">     1</i>
   <i type="int" name="NKREDZ">     1</i>
   <i type="logical" name="SHIFTRED"> F  </i>
   <i type="logical" name="ODDONLY"> F  </i>
   <i type="logical" name="EVENONLY"> F  </i>
   <i type="int" name="LMAXFOCK">     0</i>
   <i type="int" name="NMAXFOCKAE">     0</i>
   <i type="logical" name="LFOCKAEDFT"> F  </i>
   <i name="HFSCREEN">      0.00000000</i>
   <i name="HFSCREENC">      0.00000000</i>
   <i type="int" name="NBANDSGWLOW">     0</i>
  </separator>
  <separator name="vdW DFT" >
   <i type="logical" name="LUSE_VDW"> F  </i>
   <i name="Zab_VDW">     -0.84910000</i>
   <i name="PARAM1">      0.12340000</i>
   <i name="PARAM2">      1.00000000</i>
   <i name="PARAM3">      0.00000000</i>
  </separator>
  <separator name="model GW" >
   <i type="int" name="MODEL_GW">     0</i>
   <i name="MODEL_EPS0">      9.60000000</i>
   <i name="MODEL_ALPHA">      1.00000000</i>
  </separator>
  <separator name="linear response parameters" >
   <i type="logical" name="LEPSILON"> F  </i>
   <i type="logical" name="LRPA"> F  </i>
   <i type="logical" name="LNABLA"> F  </i>
   <i type="logical" name="LVEL"> F  </i>
   <i type="int" name="KINTER">     0</i>
   <i name="CSHIFT">      0.10000000</i>
   <i name="OMEGAMAX">     -1.00000000</i>
   <i name="DEG_THRESHOLD">      0.00200000</i>
  </separator>
  <separator name="orbital magnetization" >
   <i type="logical" name="NUCIND"> F  </i>
   <v name="MAGPOS">      0.00000000      0.00000000      0.00000000</v>
   <i type="logical" name="LNICSALL"> T  </i>
   <i type="logical" name="ORBITALMAG"> F  </i>
   <i type="logical" name="LMAGBLOCH"> F  </i>
   <i type="logical" name="LCHIMAG"> F  </i>
   <i type="logical" name="LGAUGE"> T  </i>
   <i type="int" name="MAGATOM">     0</i>
   <v name="MAGDIPOL">      0.00000000      0.00000000      0.00000000</v>
   <v name="AVECCONST">      0.00000000      0.00000000      0.00000000</v>
  </separator>
  <separator name="response functions" >
   <i type="logical" name="LADDER"> F  </i>
   <i type="logical" name="LFXC"> F  </i>
   <i type="logical" name="LHARTREE"> T  </i>
   <i type="int" name="IBSE">     0</i>
   <i type="logical" name="LTCTE"> F  </i>
   <i type="logical" name="LTETE"> F  </i>
   <i type="logical" name="LTRIPLET"> F  </i>
   <i type="logical" name="LFXCEPS"> F  </i>
   <i type="logical" name="LFXHEG"> F  </i>
   <i type="logical" name="L2ORDER"> F  </i>
   <i type="logical" name="LUSEW"> F  </i>
   <i name="ENCUTGW">     -2.00000000</i>
   <i name="ENCUTGWSOFT">     -2.00000000</i>
   <i name="ENCUTLF">     -1.00000000</i>
   <i type="int" name="LMAXMP2">    -1</i>
   <i name="SCISSOR">      0.00000000</i>
   <i type="int" name="NOMEGA">     0</i>
   <i type="int" name="NOMEGAR">     0</i>
   <i type="int" name="NBANDSGW">    -1</i>
   <i type="int" name="NBANDSO">    -1</i>
   <i type="int" name="NBANDSV">    -1</i>
   <i type="int" name="NELM">   100</i>
   <i type="int" name="DIM">     3</i>
   <i type="int" name="ANTIRES">     0</i>
   <i name="OMEGAMAX">    -30.00000000</i>
   <i name="OMEGAMIN">    -30.00000000</i>
   <i name="OMEGATL">   -200.00000000</i>
   <i type="int" name="OMEGAGRID">     0</i>
   <i name="CSHIFT">     -0.10000000</i>
   <i type="logical" name="SELFENERGY"> F  </i>
   <i type="logical" name="LSPECTRAL"> F  </i>
   <i type="logical" name="ODDONLYGW"> F  </i>
   <i type="logical" name="EVENONLYGW"> F  </i>
   <i type="int" name="NKREDLFX">     1</i>
   <i type="int" name="NKREDLFY">     1</i>
   <i type="int" name="NKREDLFZ">     1</i>
   <i type="int" name="MAXMEM">  1800</i>
   <i type="int" name="TELESCOPE">     0</i>
   <i type="int" name="TAUPAR">     1</i>
  </separator>
  <separator name="External order field" >
   <i name="OFIELD_KAPPA">      0.00000000</i>
   <v name="OFIELD_K">      0.00000000      0.00000000      0.00000000</v>
   <i name="OFIELD_Q6_NEAR">      0.00000000</i>
   <i name="OFIELD_Q6_FAR">      0.00000000</i>
   <i name="OFIELD_A">      0.00000000</i>
  </separator>
 </parameters>
 <atominfo>
  <atoms>      32 </atoms>
  <types>       3 </types>
  <array name="atoms" >
   <dimension dim="1">ion</dimension>
   <field type="string">element</field>
   <field type="int">atomtype</field>
   <set>
    <rc><c>Sr</c><c>   1</c></rc>
    <rc><c>Sr</c><c>   1</c></rc>
    <rc><c>Sr</c><c>   1</c></rc>
    <rc><c>Sr</c><c>   1</c></rc>
    <rc><c>Sr</c><c>   1</c></rc>
    <rc><c>Sr</c><c>   1</c></rc>
    <rc><c>Sr</c><c>   1</c></rc>
    <rc><c>Sr</c><c>   1</c></rc>
    <rc><c>Cu</c><c>   2</c></rc>
    <rc><c>Cu</c><c>   2</c></rc>
    <rc><c>Cu</c><c>   2</c></rc>
    <rc><c>Cu</c><c>   2</c></rc>
    <rc><c>Cu</c><c>   2</c></rc>
    <rc><c>Cu</c><c>   2</c></rc>
    <rc><c>Cu</c><c>   2</c></rc>
    <rc><c>Cu</c><c>   2</c></rc>
    <rc><c>O </c><c>   3</c></rc>
    <rc><c>O </c><c>   3</c></rc>
    <rc><c>O </c><c>   3</c></rc>
    <rc><c>O </c><c>   3</c></rc>
    <rc><c>O </c><c>   3</c></rc>
    <rc><c>O </c><c>   3</c></rc>
    <rc><c>O </c><c>   3</c></rc>
    <rc><c>O </c><c>   3</c></rc>
    <rc><c>O </c><c>   3</c></rc>
    <rc><c>O </c><c>   3</c></rc>
    <rc><c>O </c><c>   3</c></rc>
    <rc><c>O </c><c>   3</c></rc>
    <rc><c>O </c><c>   3</c></rc>
    <rc><c>O </c><c>   3</c></rc>
    <rc><c>O </c><c>   3</c></rc>
    <rc><c>O </c><c>   3</c></rc>
   </set>
  </array>
  <array name="atomtypes" >
   <dimension dim="1">type</dimension>
   <field type="int">atomspertype</field>
   <field type="string">element</field>
   <field>mass</field>
   <field>valence</field>
   <field type="string">pseudopotential</field>
   <set>
    <rc><c>   8</c><c>Sr</c><c>     87.62000000</c><c>     10.00000000</c><c>  PAW_PBE Sr_sv 07Sep2000               </c></rc>
    <rc><c>   8</c><c>Cu</c><c>     63.54600000</c><c>     11.00000000</c><c>  PAW_PBE Cu 22Jun2005                  </c></rc>
    <rc><c>  16</c><c>O </c><c>     16.00000000</c><c>      6.00000000</c><c>  PAW_PBE O_s 07Sep2000                 </c></rc>
   </set>
  </array>
 </atominfo>
 <structure name="initialpos" >
  <crystal>
   <varray name="basis" >
    <v>       8.00000000       0.00000000       0.00000000 </v>
    <v>       0.00000000       8.00000000       0.00000000 </v>
    <v>       0.00000000       0.00000000       8.00000000 </v>
   </varray>
   <i name="volume">    512.00000000 </i>
   <varray name="rec_basis" >
    <v>       0.12500000       0.00000000       0.00000000 </v>
    <v>       0.00000000       0.12500000       0.00000000 </v>
    <v>       0.00000000       0.00000000       0.12500000 </v>
   </varray>
  </crystal>
  <varray name="positions" >
   <v>       0.75000000       0.00000000       0.75000000 </v>
   <v>       0.75000000       0.00000000       0.25000000 </v>
   <v>       0.75000000       0.50000000       0.75000000 </v>
   <v>       0.75000000       0.50000000       0.25000000 </v>
   <v>       0.25000000       0.50000000       0.75000000 </v>
   <v>       0.25000000       0.50000000       0.25000000 </v>
   <v>       0.25000000       0.00000000       0.75000000 </v>
   <v>       0.25000000       0.00000000       0.25000000 </v>
   <v>       0.00000000       0.25000000       0.50000000 </v>
   <v>       0.00000000       0.25000000       0.00000000 </v>
   <v>       0.50000000       0.25000000       0.50000000 </v>
   <v>       0.50000000       0.25000000       0.00000000 </v>
   <v>       0.50000000       0.75000000       0.50000000 </v>
   <v>       0.50000000       0.75000000       0.00000000 </v>
   <v>       0.00000000       0.75000000       0.50000000 </v>
   <v>       0.00000000       0.75000000       0.00000000 </v>
   <v>       0.50000000       0.50000000       0.50000000 </v>
   <v>       0.50000000       0.50000000       0.00000000 </v>
   <v>       0.75000000       0.75000000       0.00000000 </v>
   <v>       0.75000000       0.25000000       0.00000000 </v>
   <v>       0.00000000       0.25000000       0.75000000 </v>
   <v>       0.00000000       0.25000000       0.25000000 </v>
   <v>       0.50000000       0.25000000       0.75000000 </v>
   <v>       0.50000000       0.25000000       0.25000000 </v>
   <v>       0.00000000       0.00000000       0.50000000 </v>
   <v>       0.00000000       0.00000000       0.00000000 </v>
   <v>       0.25000000       0.25000000       0.00000000 </v>
   <v>       0.25000000       0.75000000       0.00000000 </v>
   <v>       0.50000000       0.75000000       0.75000000 </v>
   <v>       0.50000000       0.75000000       0.25000000 </v>
   <v>       0.00000000       0.75000000       0.75000000 </v>
   <v>       0.00000000       0.75000000       0.25000000 </v>
  </varray>
 </structure>
 <calculation>
  <scstep>
   <time name="dav">    5.17    5.17</time>
   <time name="total">    5.36    5.38</time>
   <energy>
    <i name="alphaZ">   1197.30728288 </i>
    <i name="ewald"> -17201.03655598 </i>
    <i name="hartreedc">  -7687.27029768 </i>
    <i name="XCdc">   1086.30194204 </i>
    <i name="pawpsdc">  20377.93945936 </i>
    <i name="pawaedc"> -21035.46554250 </i>
    <i name="eentropy">     -0.00372504 </i>
    <i name="bandstr">   1909.12947752 </i>
    <i name="atom">  24790.01456472 </i>
    <i name="e_fr_energy">   3436.91660532 </i>
    <i name="e_wo_entrp">   3436.92033036 </i>
    <i name="e_0_energy">   3436.91846784 </i>
   </energy>
  </scstep>
  <scstep>
   <time name="dav">    5.21    5.22</time>
   <time name="total">    5.22    5.23</time>
   <energy>
    <i name="e_fr_energy">    402.37264915 </i>
    <i name="e_wo_entrp">    402.38245499 </i>
    <i name="e_0_energy">    402.37755207 </i>
   </energy>
  </scstep>
  <scstep>
   <time name="dav">    5.12    5.12</time>
   <time name="total">    5.12    5.14</time>
   <energy>
    <i name="e_fr_energy">   -141.16750472 </i>
    <i name="e_wo_entrp">   -141.15527907 </i>
    <i name="e_0_energy">   -141.16139189 </i>
   </energy>
  </scstep>
  <scstep>
   <time name="dav">    6.66    6.67</time>
   <time name="total">    6.66    6.68</time>
   <energy>
    <i name="e_fr_energy">   -190.97147651 </i>
    <i name="e_wo_entrp">   -190.96145549 </i>
    <i name="e_0_energy">   -190.96646600 </i>
   </energy>
  </scstep>
  <scstep>
   <time name="dav">    8.22    8.23</time>
   <time name="total">    8.58    8.60</time>
   <energy>
    <i name="e_fr_energy">   -194.23858857 </i>
    <i name="e_wo_entrp">   -194.22831325 </i>
    <i name="e_0_energy">   -194.23345091 </i>
   </energy>
  </scstep>
  <scstep>
   <time name="dav">    7.13    7.13</time>
   <time name="total">    7.67    7.69</time>
   <energy>
    <i name="e_fr_energy">   -171.29813229 </i>
    <i name="e_wo_entrp">   -171.27604642 </i>
    <i name="e_0_energy">   -171.28708936 </i>
   </energy>
  </scstep>
  <scstep>
   <time name="dav">    6.94    6.95</time>
   <time name="total">    7.48    7.50</time>
   <energy>
    <i name="e_fr_energy">   -158.61758230 </i>
    <i name="e_wo_entrp">   -158.59909718 </i>
    <i name="e_0_energy">   -158.60833974 </i>
   </energy>
  </scstep>
  <scstep>
   <time name="dav">    7.68    7.69</time>
   <time name="total">    8.23    8.24</time>
   <energy>
    <i name="e_fr_energy">   -163.48373208 </i>
    <i name="e_wo_entrp">   -163.45495445 </i>
    <i name="e_0_energy">   -163.46934327 </i>
   </energy>
  </scstep>
  <scstep>
   <time name="dav">    7.19    7.20</time>
   <time name="total">    7.74    7.75</time>
   <energy>
    <i name="e_fr_energy">   -161.04516051 </i>
    <i name="e_wo_entrp">   -161.02996850 </i>
    <i name="e_0_energy">   -161.03756450 </i>
   </energy>
  </scstep>
  <scstep>
   <time name="dav">    7.66    7.67</time>
   <time name="total">    8.20    8.23</time>
   <energy>
    <i name="e_fr_energy">   -157.50827114 </i>
    <i name="e_wo_entrp">   -157.49407070 </i>
    <i name="e_0_energy">   -157.50117092 </i>
   </energy>
  </scstep>
  <scstep>
   <time name="dav">    7.48    7.48</time>
   <time name="total">    8.02    8.04</time>
   <energy>
    <i name="e_fr_energy">   -157.36449288 </i>
    <i name="e_wo_entrp">   -157.34787395 </i>
    <i name="e_0_energy">   -157.35618341 </i>
   </energy>
  </scstep>
  <scstep>
   <time name="dav">    7.40    7.41</time>
   <time name="total">    7.95    7.96</time>
   <energy>
    <i name="e_fr_energy">   -157.34499654 </i>
    <i name="e_wo_entrp">   -157.33044361 </i>
    <i name="e_0_energy">   -157.33772008 </i>
   </energy>
  </scstep>
  <scstep>
   <time name="dav">    7.10    7.10</time>
   <time name="total">    7.64    7.66</time>
   <energy>
    <i name="e_fr_energy">   -157.34000768 </i>
    <i name="e_wo_entrp">   -157.32612017 </i>
    <i name="e_0_energy">   -157.33306392 </i>
   </energy>
  </scstep>
  <scstep>
   <time name="dav">    7.00    7.00</time>
   <time name="total">    7.54    7.56</time>
   <energy>
    <i name="e_fr_energy">   -157.33450126 </i>
    <i name="e_wo_entrp">   -157.32295552 </i>
    <i name="e_0_energy">   -157.32872839 </i>
   </energy>
  </scstep>
  <scstep>
   <time name="dav">    7.43    7.43</time>
   <time name="total">    7.97    7.99</time>
   <energy>
    <i name="e_fr_energy">   -157.32346962 </i>
    <i name="e_wo_entrp">   -157.31113427 </i>
    <i name="e_0_energy">   -157.31730195 </i>
   </energy>
  </scstep>
  <scstep>
   <time name="dav">    7.21    7.21</time>
   <time name="total">    7.76    7.77</time>
   <energy>
    <i name="e_fr_energy">   -157.32545488 </i>
    <i name="e_wo_entrp">   -157.31310640 </i>
    <i name="e_0_energy">   -157.31928064 </i>
   </energy>
  </scstep>
  <scstep>
   <time name="dav">    7.67    7.67</time>
   <time name="total">    8.22    8.23</time>
   <energy>
    <i name="e_fr_energy">   -157.32506125 </i>
    <i name="e_wo_entrp">   -157.31301086 </i>
    <i name="e_0_energy">   -157.31903606 </i>
   </energy>
  </scstep>
  <scstep>
   <time name="dav">    6.89    6.89</time>
   <time name="total">    7.43    7.46</time>
   <energy>
    <i name="e_fr_energy">   -157.32549998 </i>
    <i name="e_wo_entrp">   -157.31355643 </i>
    <i name="e_0_energy">   -157.31952820 </i>
   </energy>
  </scstep>
  <scstep>
   <time name="dav">    7.00    7.01</time>
   <time name="total">    7.55    7.56</time>
   <energy>
    <i name="e_fr_energy">   -157.32558752 </i>
    <i name="e_wo_entrp">   -157.31376700 </i>
    <i name="e_0_energy">   -157.31967726 </i>
   </energy>
  </scstep>
  <scstep>
   <time name="dav">    6.91    6.92</time>
   <time name="total">    7.46    7.48</time>
   <energy>
    <i name="e_fr_energy">   -157.32561227 </i>
    <i name="e_wo_entrp">   -157.31386249 </i>
    <i name="e_0_energy">   -157.31973738 </i>
   </energy>
  </scstep>
  <scstep>
   <time name="dav">    7.31    7.32</time>
   <time name="total">    7.86    7.87</time>
   <energy>
    <i name="e_fr_energy">   -157.32562398 </i>
    <i name="e_wo_entrp">   -157.31391464 </i>
    <i name="e_0_energy">   -157.31976931 </i>
   </energy>
  </scstep>
  <scstep>
   <time name="dav">    6.91    6.92</time>
   <time name="total">    7.46    7.48</time>
   <energy>
    <i name="e_fr_energy">   -157.32563087 </i>
    <i name="e_wo_entrp">   -157.31393702 </i>
    <i name="e_0_energy">   -157.31978395 </i>
   </energy>
  </scstep>
  <scstep>
   <time name="dav">    5.85    5.85</time>
   <time name="total">    6.39    6.41</time>
   <energy>
    <i name="e_fr_energy">   -157.32563281 </i>
    <i name="e_wo_entrp">   -157.31395584 </i>
    <i name="e_0_energy">   -157.31979432 </i>
   </energy>
  </scstep>
  <scstep>
   <time name="dav">    4.81    4.82</time>
   <time name="total">    5.35    5.39</time>
   <energy>
    <i name="e_fr_energy">   -157.32563415 </i>
    <i name="e_wo_entrp">   -157.31395863 </i>
    <i name="e_0_energy">   -157.31979639 </i>
   </energy>
  </scstep>
  <scstep>
   <time name="dav">    4.36    4.36</time>
   <time name="total">    4.55    4.57</time>
   <energy>
    <i name="alphaZ">   1197.30728288 </i>
    <i name="ewald"> -17201.03655598 </i>
    <i name="hartreedc">  -7696.73811036 </i>
    <i name="XCdc">   1086.89513627 </i>
    <i name="pawpsdc">  31112.10620897 </i>
    <i name="pawaedc"> -31843.17130915 </i>
    <i name="eentropy">     -0.01167284 </i>
    <i name="bandstr">  -1602.69117929 </i>
    <i name="atom">  24790.01456472 </i>
    <i name="e_fr_energy">   -157.32563478 </i>
    <i name="e_wo_entrp">   -157.31396194 </i>
    <i name="e_0_energy">   -157.31979836 </i>
   </energy>
  </scstep>
  <structure>
   <crystal>
    <varray name="basis" >
     <v>       8.00000000       0.00000000       0.00000000 </v>
     <v>       0.00000000       8.00000000       0.00000000 </v>
     <v>       0.00000000       0.00000000       8.00000000 </v>
    </varray>
    <i name="volume">    512.00000000 </i>
    <varray name="rec_basis" >
     <v>       0.12500000       0.00000000       0.00000000 </v>
     <v>       0.00000000       0.12500000       0.00000000 </v>
     <v>       0.00000000       0.00000000       0.12500000 </v>
    </varray>
   </crystal>
   <varray name="positions" >
    <v>       0.75000000       0.00000000       0.75000000 </v>
    <v>       0.75000000       0.00000000       0.25000000 </v>
    <v>       0.75000000       0.50000000       0.75000000 </v>
    <v>       0.75000000       0.50000000       0.25000000 </v>
    <v>       0.25000000       0.50000000       0.75000000 </v>
    <v>       0.25000000       0.50000000       0.25000000 </v>
    <v>       0.25000000       0.00000000       0.75000000 </v>
    <v>       0.25000000       0.00000000       0.25000000 </v>
    <v>       0.00000000       0.25000000       0.50000000 </v>
    <v>       0.00000000       0.25000000       0.00000000 </v>
    <v>       0.50000000       0.25000000       0.50000000 </v>
    <v>       0.50000000       0.25000000       0.00000000 </v>
    <v>       0.50000000       0.75000000       0.50000000 </v>
    <v>       0.50000000       0.75000000       0.00000000 </v>
    <v>       0.00000000       0.75000000       0.50000000 </v>
    <v>       0.00000000       0.75000000       0.00000000 </v>
    <v>       0.50000000       0.50000000       0.50000000 </v>
    <v>       0.50000000       0.50000000       0.00000000 </v>
    <v>       0.75000000       0.75000000       0.00000000 </v>
    <v>       0.75000000       0.25000000       0.00000000 </v>
    <v>       0.00000000       0.25000000       0.75000000 </v>
    <v>       0.00000000       0.25000000       0.25000000 </v>
    <v>       0.50000000       0.25000000       0.75000000 </v>
    <v>       0.50000000       0.25000000       0.25000000 </v>
    <v>       0.00000000       0.00000000       0.50000000 </v>
    <v>       0.00000000       0.00000000       0.00000000 </v>
    <v>       0.25000000       0.25000000       0.00000000 </v>
    <v>       0.25000000       0.75000000       0.00000000 </v>
    <v>       0.50000000       0.75000000       0.75000000 </v>
    <v>       0.50000000       0.75000000       0.25000000 </v>
    <v>       0.00000000       0.75000000       0.75000000 </v>
    <v>       0.00000000       0.75000000       0.25000000 </v>
   </varray>
  </structure>
  <varray name="forces" >
   <v>       1.27503959       0.00000000       1.29404058 </v>
   <v>       1.27503959       0.00000000      -1.29404058 </v>
   <v>      -1.27503959       0.00000000       1.29404058 </v>
   <v>      -1.27503959       0.00000000      -1.29404058 </v>
   <v>       1.27503959       0.00000000       1.29404058 </v>
   <v>       1.27503959       0.00000000      -1.29404058 </v>
   <v>      -1.27503959       0.00000000       1.29404058 </v>
   <v>      -1.27503959       0.00000000      -1.29404058 </v>
   <v>       0.00000000      -0.55998704       0.00000000 </v>
   <v>       0.00000000      -1.01759667       0.00000000 </v>
   <v>       0.00000000       0.55998704       0.00000000 </v>
   <v>       0.00000000       1.01759667       0.00000000 </v>
   <v>       0.00000000      -0.55998704       0.00000000 </v>
   <v>       0.00000000      -1.01759667       0.00000000 </v>
   <v>       0.00000000       0.55998704       0.00000000 </v>
   <v>       0.00000000       1.01759667       0.00000000 </v>
   <v>       0.00000000       0.00000000       0.00000000 </v>
   <v>       0.00000000       0.00000000       0.00000000 </v>
   <v>       0.00000000       0.00000000       0.00000000 </v>
   <v>       0.00000000       0.00000000       0.00000000 </v>
   <v>       0.00000000       1.06847630      -1.40054280 </v>
   <v>       0.00000000       1.06847630       1.40054280 </v>
   <v>       0.00000000      -1.06847630      -1.40054280 </v>
   <v>       0.00000000      -1.06847630       1.40054280 </v>
   <v>       0.00000000       0.00000000       0.00000000 </v>
   <v>       0.00000000       0.00000000       0.00000000 </v>
   <v>       0.00000000       0.00000000       0.00000000 </v>
   <v>       0.00000000       0.00000000       0.00000000 </v>
   <v>       0.00000000       1.06847630      -1.40054280 </v>
   <v>       0.00000000       1.06847630       1.40054280 </v>
   <v>       0.00000000      -1.06847630      -1.40054280 </v>
   <v>       0.00000000      -1.06847630       1.40054280 </v>
  </varray>
  <varray name="stress" >
   <v>    -108.86360422       0.00000000       0.00000000 </v>
   <v>       0.00000000     -76.30508937       0.00000000 </v>
   <v>       0.00000000       0.00000000     -88.94396414 </v>
  </varray>
  <energy>
   <i name="e_fr_energy">   -157.32563478 </i>
   <i name="e_wo_entrp">   -157.31979836 </i>
   <i name="e_0_energy">     -0.01167284 </i>
  </energy>
  <time name="totalsc">  187.96  188.55</time>
  <eigenvalues>
   <array>
    <dimension dim="1">band</dimension>
    <dimension dim="2">kpoint</dimension>
    <dimension dim="3">spin</dimension>
    <field>eigene</field>
    <field>occ</field>
    <set>
     <set comment="spin 1">
      <set comment="kpoint 1">
       <r>  -31.3867    1.0000 </r>
       <r>  -31.3732    1.0000 </r>
       <r>  -31.3730    1.0000 </r>
       <r>  -31.3730    1.0000 </r>
       <r>  -31.3606    1.0000 </r>
       <r>  -31.3604    1.0000 </r>
       <r>  -31.3603    1.0000 </r>
       <r>  -31.3486    1.0000 </r>
       <r>  -14.9558    1.0000 </r>
       <r>  -14.9286    1.0000 </r>
       <r>  -14.8211    1.0000 </r>
       <r>  -14.5019    1.0000 </r>
       <r>  -14.5010    1.0000 </r>
       <r>  -14.4622    1.0000 </r>
       <r>  -14.2861    1.0000 </r>
       <r>  -14.2562    1.0000 </r>
       <r>  -14.2008    1.0000 </r>
       <r>  -14.1691    1.0000 </r>
       <r>  -13.9969    1.0000 </r>
       <r>  -13.9825    1.0000 </r>
       <r>  -13.9492    1.0000 </r>
       <r>  -13.7505    1.0000 </r>
       <r>  -13.6521    1.0000 </r>
       <r>  -13.5933    1.0000 </r>
       <r>  -13.5717    1.0000 </r>
       <r>  -13.4436    1.0000 </r>
       <r>  -13.4408    1.0000 </r>
       <r>  -13.3982    1.0000 </r>
       <r>  -13.3729    1.0000 </r>
       <r>  -13.3725    1.0000 </r>
       <r>  -13.3467    1.0000 </r>
       <r>  -13.2727    1.0000 </r>
       <r>  -13.2692    1.0000 </r>
       <r>  -13.2448    1.0000 </r>
       <r>  -13.2410    1.0000 </r>
       <r>  -13.2384    1.0000 </r>
       <r>  -13.2351    1.0000 </r>
       <r>  -13.2108    1.0000 </r>
       <r>  -13.2064    1.0000 </r>
       <r>  -13.1253    1.0000 </r>
       <r>  -13.0969    1.0000 </r>
       <r>  -13.0065    1.0000 </r>
       <r>  -13.0044    1.0000 </r>
       <r>  -12.9391    1.0000 </r>
       <r>  -12.7772    1.0000 </r>
       <r>  -12.7745    1.0000 </r>
       <r>  -12.7660    1.0000 </r>
       <r>  -12.7473    1.0000 </r>
       <r>   -3.0500    1.0000 </r>
       <r>   -3.0065    1.0000 </r>
       <r>   -2.9700    1.0000 </r>
       <r>   -2.8535    1.0000 </r>
       <r>   -2.8302    1.0000 </r>
       <r>   -2.7928    1.0000 </r>
       <r>   -2.2598    1.0000 </r>
       <r>   -2.2461    1.0000 </r>
       <r>   -2.1263    1.0000 </r>
       <r>   -1.9650    1.0000 </r>
       <r>   -1.9197    1.0000 </r>
       <r>   -1.8627    1.0000 </r>
       <r>   -1.6882    1.0000 </r>
       <r>   -1.6577    1.0000 </r>
       <r>   -1.6291    1.0000 </r>
       <r>   -1.4707    1.0000 </r>
       <r>   -1.4533    1.0000 </r>
       <r>   -1.3858    1.0000 </r>
       <r>   -1.3565    1.0000 </r>
       <r>   -1.2556    1.0000 </r>
       <r>   -1.2137    1.0000 </r>
       <r>   -1.0671    1.0000 </r>
       <r>   -1.0342    1.0000 </r>
       <r>   -0.9579    1.0000 </r>
       <r>   -0.9265    1.0000 </r>
       <r>   -0.9048    1.0000 </r>
       <r>   -0.7702    1.0000 </r>
       <r>   -0.7475    1.0000 </r>
       <r>   -0.7461    1.0000 </r>
       <r>   -0.7193    1.0000 </r>
       <r>   -0.7099    1.0000 </r>
       <r>   -0.6877    1.0000 </r>
       <r>   -0.6812    1.0000 </r>
       <r>   -0.5900    1.0000 </r>
       <r>   -0.5633    1.0000 </r>
       <r>   -0.5590    1.0000 </r>
       <r>   -0.5589    1.0000 </r>
       <r>   -0.5564    1.0000 </r>
       <r>   -0.5552    1.0000 </r>
       <r>   -0.3530    1.0000 </r>
       <r>   -0.3229    1.0000 </r>
       <r>   -0.2992    1.0000 </r>
       <r>   -0.2682    1.0000 </r>
       <r>   -0.2638    1.0000 </r>
       <r>   -0.1804    1.0000 </r>
       <r>   -0.1511    1.0000 </r>
       <r>    0.1503    1.0000 </r>
       <r>    0.1701    1.0000 </r>
       <r>    0.1877    1.0000 </r>
       <r>    0.1957    1.0000 </r>
       <r>    0.2878    1.0000 </r>
       <r>    0.3133    1.0000 </r>
       <r>    0.4225    1.0000 </r>
       <r>    0.5935    1.0000 </r>
       <r>    0.6101    1.0000 </r>
       <r>    0.9288    1.0000 </r>
       <r>    1.0066    1.0000 </r>
       <r>    1.0152    1.0000 </r>
       <r>    1.0393    1.0000 </r>
       <r>    1.0410    1.0000 </r>
       <r>    1.0457    1.0000 </r>
       <r>    1.0626    1.0000 </r>
       <r>    1.0680    1.0000 </r>
       <r>    1.0710    1.0000 </r>
       <r>    1.1036    1.0000 </r>
       <r>    1.3568    1.0000 </r>
       <r>    1.3587    1.0000 </r>
       <r>    1.4314    1.0000 </r>
       <r>    1.4602    1.0000 </r>
       <r>    1.5297    1.0000 </r>
       <r>    1.5355    1.0000 </r>
       <r>    1.5468    1.0000 </r>
       <r>    1.5742    1.0000 </r>
       <r>    1.6363    1.0000 </r>
       <r>    1.7858    1.0000 </r>
       <r>    1.7979    1.0000 </r>
       <r>    1.8225    1.0000 </r>
       <r>    1.8317    1.0000 </r>
       <r>    1.8340    1.0000 </r>
       <r>    1.9173    1.0000 </r>
       <r>    2.0026    1.0000 </r>
       <r>    2.1795    1.0000 </r>
       <r>    2.2662    1.0000 </r>
       <r>    2.2971    1.0000 </r>
       <r>    2.4937    1.0000 </r>
       <r>    2.9902    0.0000 </r>
       <r>    3.1486    0.0000 </r>
       <r>    3.4685    0.0000 </r>
       <r>    3.7134    0.0000 </r>
       <r>    4.6811    0.0000 </r>
       <r>    4.7979    0.0000 </r>
       <r>    4.9529    0.0000 </r>
       <r>    5.2233    0.0000 </r>
       <r>    5.5232    0.0000 </r>
       <r>    6.1328    0.0000 </r>
       <r>    6.4110    0.0000 </r>
       <r>    6.8437    0.0000 </r>
       <r>    7.2195    0.0000 </r>
       <r>    7.2196    0.0000 </r>
       <r>    7.4335    0.0000 </r>
       <r>    7.5259    0.0000 </r>
       <r>    7.7229    0.0000 </r>
       <r>    8.0155    0.0000 </r>
       <r>    8.5066    0.0000 </r>
       <r>    8.6087    0.0000 </r>
       <r>    8.7180    0.0000 </r>
       <r>    8.8207    0.0000 </r>
       <r>    8.8225    0.0000 </r>
       <r>    8.8423    0.0000 </r>
       <r>    8.9766    0.0000 </r>
       <r>    8.9875    0.0000 </r>
       <r>    9.1254    0.0000 </r>
       <r>    9.1376    0.0000 </r>
       <r>    9.1436    0.0000 </r>
       <r>    9.1934    0.0000 </r>
       <r>    9.2038    0.0000 </r>
       <r>    9.3081    0.0000 </r>
       <r>    9.5946    0.0000 </r>
       <r>    9.5956    0.0000 </r>
       <r>    9.6311    0.0000 </r>
       <r>    9.7788    0.0000 </r>
       <r>    9.7790    0.0000 </r>
       <r>    9.8080    0.0000 </r>
       <r>    9.9288    0.0000 </r>
       <r>   10.3961    0.0000 </r>
       <r>   10.4470    0.0000 </r>
       <r>   10.4506    0.0000 </r>
       <r>   10.7330    0.0000 </r>
      </set>
      <set comment="kpoint 2">
       <r>  -31.3833    1.0000 </r>
       <r>  -31.3764    1.0000 </r>
       <r>  -31.3700    1.0000 </r>
       <r>  -31.3699    1.0000 </r>
       <r>  -31.3637    1.0000 </r>
       <r>  -31.3636    1.0000 </r>
       <r>  -31.3574    1.0000 </r>
       <r>  -31.3515    1.0000 </r>
       <r>  -14.8584    1.0000 </r>
       <r>  -14.8513    1.0000 </r>
       <r>  -14.7936    1.0000 </r>
       <r>  -14.5656    1.0000 </r>
       <r>  -14.5159    1.0000 </r>
       <r>  -14.4656    1.0000 </r>
       <r>  -14.4100    1.0000 </r>
       <r>  -14.4010    1.0000 </r>
       <r>  -14.1638    1.0000 </r>
       <r>  -14.1553    1.0000 </r>
       <r>  -14.0538    1.0000 </r>
       <r>  -13.9462    1.0000 </r>
       <r>  -13.8690    1.0000 </r>
       <r>  -13.8186    1.0000 </r>
       <r>  -13.7765    1.0000 </r>
       <r>  -13.7565    1.0000 </r>
       <r>  -13.4167    1.0000 </r>
       <r>  -13.3981    1.0000 </r>
       <r>  -13.3804    1.0000 </r>
       <r>  -13.3783    1.0000 </r>
       <r>  -13.3656    1.0000 </r>
       <r>  -13.3528    1.0000 </r>
       <r>  -13.2661    1.0000 </r>
       <r>  -13.2642    1.0000 </r>
       <r>  -13.2509    1.0000 </r>
       <r>  -13.2471    1.0000 </r>
       <r>  -13.2395    1.0000 </r>
       <r>  -13.2197    1.0000 </r>
       <r>  -13.1977    1.0000 </r>
       <r>  -13.1696    1.0000 </r>
       <r>  -13.1608    1.0000 </r>
       <r>  -13.0814    1.0000 </r>
       <r>  -13.0334    1.0000 </r>
       <r>  -13.0122    1.0000 </r>
       <r>  -12.9681    1.0000 </r>
       <r>  -12.9124    1.0000 </r>
       <r>  -12.8975    1.0000 </r>
       <r>  -12.8619    1.0000 </r>
       <r>  -12.8426    1.0000 </r>
       <r>  -12.8031    1.0000 </r>
       <r>   -2.9507    1.0000 </r>
       <r>   -2.9302    1.0000 </r>
       <r>   -2.8818    1.0000 </r>
       <r>   -2.8571    1.0000 </r>
       <r>   -2.5966    1.0000 </r>
       <r>   -2.5641    1.0000 </r>
       <r>   -2.2607    1.0000 </r>
       <r>   -2.2456    1.0000 </r>
       <r>   -1.9722    1.0000 </r>
       <r>   -1.8682    1.0000 </r>
       <r>   -1.8354    1.0000 </r>
       <r>   -1.7864    1.0000 </r>
       <r>   -1.7071    1.0000 </r>
       <r>   -1.6879    1.0000 </r>
       <r>   -1.6640    1.0000 </r>
       <r>   -1.6083    1.0000 </r>
       <r>   -1.5982    1.0000 </r>
       <r>   -1.5966    1.0000 </r>
       <r>   -1.5877    1.0000 </r>
       <r>   -1.4706    1.0000 </r>
       <r>   -1.3513    1.0000 </r>
       <r>   -1.3429    1.0000 </r>
       <r>   -1.2861    1.0000 </r>
       <r>   -1.0918    1.0000 </r>
       <r>   -1.0517    1.0000 </r>
       <r>   -1.0389    1.0000 </r>
       <r>   -0.9622    1.0000 </r>
       <r>   -0.9546    1.0000 </r>
       <r>   -0.7065    1.0000 </r>
       <r>   -0.6852    1.0000 </r>
       <r>   -0.6786    1.0000 </r>
       <r>   -0.6379    1.0000 </r>
       <r>   -0.5851    1.0000 </r>
       <r>   -0.5717    1.0000 </r>
       <r>   -0.5695    1.0000 </r>
       <r>   -0.5646    1.0000 </r>
       <r>   -0.5605    1.0000 </r>
       <r>   -0.5035    1.0000 </r>
       <r>   -0.4726    1.0000 </r>
       <r>   -0.3618    1.0000 </r>
       <r>   -0.3098    1.0000 </r>
       <r>   -0.2981    1.0000 </r>
       <r>   -0.2806    1.0000 </r>
       <r>   -0.2187    1.0000 </r>
       <r>   -0.1769    1.0000 </r>
       <r>   -0.0273    1.0000 </r>
       <r>    0.0426    1.0000 </r>
       <r>    0.1816    1.0000 </r>
       <r>    0.3106    1.0000 </r>
       <r>    0.3461    1.0000 </r>
       <r>    0.3734    1.0000 </r>
       <r>    0.5155    1.0000 </r>
       <r>    0.5823    1.0000 </r>
       <r>    0.6300    1.0000 </r>
       <r>    0.7041    1.0000 </r>
       <r>    0.8209    1.0000 </r>
       <r>    0.9949    1.0000 </r>
       <r>    1.0194    1.0000 </r>
       <r>    1.0329    1.0000 </r>
       <r>    1.0523    1.0000 </r>
       <r>    1.0980    1.0000 </r>
       <r>    1.1260    1.0000 </r>
       <r>    1.1476    1.0000 </r>
       <r>    1.1600    1.0000 </r>
       <r>    1.2263    1.0000 </r>
       <r>    1.2940    1.0000 </r>
       <r>    1.3575    1.0000 </r>
       <r>    1.3811    1.0000 </r>
       <r>    1.4074    1.0000 </r>
       <r>    1.4540    1.0000 </r>
       <r>    1.5716    1.0000 </r>
       <r>    1.5951    1.0000 </r>
       <r>    1.6021    1.0000 </r>
       <r>    1.7434    1.0000 </r>
       <r>    1.7509    1.0000 </r>
       <r>    1.7656    1.0000 </r>
       <r>    1.7951    1.0000 </r>
       <r>    1.9191    1.0000 </r>
       <r>    1.9696    1.0000 </r>
       <r>    1.9743    1.0000 </r>
       <r>    2.0398    1.0000 </r>
       <r>    2.0740    1.0000 </r>
       <r>    2.1741    1.0000 </r>
       <r>    2.2081    1.0000 </r>
       <r>    2.2589    1.0000 </r>
       <r>    2.8477    0.0000 </r>
       <r>    3.2164    0.0000 </r>
       <r>    3.4504    0.0000 </r>
       <r>    4.0094    0.0000 </r>
       <r>    4.7085    0.0000 </r>
       <r>    5.0768    0.0000 </r>
       <r>    5.0787    0.0000 </r>
       <r>    5.3841    0.0000 </r>
       <r>    5.4557    0.0000 </r>
       <r>    5.7730    0.0000 </r>
       <r>    6.0365    0.0000 </r>
       <r>    7.0390    0.0000 </r>
       <r>    7.4110    0.0000 </r>
       <r>    7.5392    0.0000 </r>
       <r>    7.7261    0.0000 </r>
       <r>    7.7616    0.0000 </r>
       <r>    8.0106    0.0000 </r>
       <r>    8.0578    0.0000 </r>
       <r>    8.1274    0.0000 </r>
       <r>    8.2982    0.0000 </r>
       <r>    8.3349    0.0000 </r>
       <r>    8.4152    0.0000 </r>
       <r>    8.6774    0.0000 </r>
       <r>    8.7662    0.0000 </r>
       <r>    8.8078    0.0000 </r>
       <r>    8.8635    0.0000 </r>
       <r>    8.9210    0.0000 </r>
       <r>    8.9525    0.0000 </r>
       <r>    8.9770    0.0000 </r>
       <r>    9.3807    0.0000 </r>
       <r>    9.3967    0.0000 </r>
       <r>    9.4876    0.0000 </r>
       <r>    9.6391    0.0000 </r>
       <r>    9.7306    0.0000 </r>
       <r>    9.9268    0.0000 </r>
       <r>   10.0230    0.0000 </r>
       <r>   10.0366    0.0000 </r>
       <r>   10.0388    0.0000 </r>
       <r>   10.0907    0.0000 </r>
       <r>   10.1217    0.0000 </r>
       <r>   10.2309    0.0000 </r>
       <r>   10.3078    0.0000 </r>
       <r>   10.3447    0.0000 </r>
      </set>
      <set comment="kpoint 3">
       <r>  -31.3833    1.0000 </r>
       <r>  -31.3764    1.0000 </r>
       <r>  -31.3700    1.0000 </r>
       <r>  -31.3699    1.0000 </r>
       <r>  -31.3637    1.0000 </r>
       <r>  -31.3636    1.0000 </r>
       <r>  -31.3574    1.0000 </r>
       <r>  -31.3515    1.0000 </r>
       <r>  -14.9305    1.0000 </r>
       <r>  -14.8436    1.0000 </r>
       <r>  -14.7960    1.0000 </r>
       <r>  -14.5721    1.0000 </r>
       <r>  -14.4091    1.0000 </r>
       <r>  -14.4018    1.0000 </r>
       <r>  -14.3457    1.0000 </r>
       <r>  -14.3361    1.0000 </r>
       <r>  -14.2329    1.0000 </r>
       <r>  -14.2027    1.0000 </r>
       <r>  -14.1633    1.0000 </r>
       <r>  -14.1557    1.0000 </r>
       <r>  -13.8307    1.0000 </r>
       <r>  -13.7117    1.0000 </r>
       <r>  -13.6785    1.0000 </r>
       <r>  -13.6204    1.0000 </r>
       <r>  -13.5405    1.0000 </r>
       <r>  -13.3955    1.0000 </r>
       <r>  -13.3934    1.0000 </r>
       <r>  -13.3873    1.0000 </r>
       <r>  -13.3794    1.0000 </r>
       <r>  -13.3666    1.0000 </r>
       <r>  -13.3529    1.0000 </r>
       <r>  -13.2704    1.0000 </r>
       <r>  -13.2606    1.0000 </r>
       <r>  -13.2432    1.0000 </r>
       <r>  -13.2324    1.0000 </r>
       <r>  -13.2151    1.0000 </r>
       <r>  -13.1970    1.0000 </r>
       <r>  -13.1468    1.0000 </r>
       <r>  -13.0983    1.0000 </r>
       <r>  -13.0848    1.0000 </r>
       <r>  -13.0107    1.0000 </r>
       <r>  -13.0028    1.0000 </r>
       <r>  -12.9894    1.0000 </r>
       <r>  -12.8948    1.0000 </r>
       <r>  -12.8946    1.0000 </r>
       <r>  -12.8773    1.0000 </r>
       <r>  -12.8649    1.0000 </r>
       <r>  -12.7856    1.0000 </r>
       <r>   -3.0667    1.0000 </r>
       <r>   -3.0556    1.0000 </r>
       <r>   -2.9270    1.0000 </r>
       <r>   -2.8878    1.0000 </r>
       <r>   -2.8066    1.0000 </r>
       <r>   -2.7956    1.0000 </r>
       <r>   -2.2822    1.0000 </r>
       <r>   -2.2761    1.0000 </r>
       <r>   -2.0500    1.0000 </r>
       <r>   -1.9183    1.0000 </r>
       <r>   -1.8436    1.0000 </r>
       <r>   -1.8304    1.0000 </r>
       <r>   -1.7047    1.0000 </r>
       <r>   -1.6906    1.0000 </r>
       <r>   -1.6599    1.0000 </r>
       <r>   -1.6123    1.0000 </r>
       <r>   -1.4401    1.0000 </r>
       <r>   -1.3999    1.0000 </r>
       <r>   -1.3830    1.0000 </r>
       <r>   -1.3496    1.0000 </r>
       <r>   -1.1286    1.0000 </r>
       <r>   -1.0582    1.0000 </r>
       <r>   -1.0419    1.0000 </r>
       <r>   -1.0085    1.0000 </r>
       <r>   -0.9273    1.0000 </r>
       <r>   -0.9026    1.0000 </r>
       <r>   -0.7247    1.0000 </r>
       <r>   -0.7156    1.0000 </r>
       <r>   -0.7081    1.0000 </r>
       <r>   -0.7039    1.0000 </r>
       <r>   -0.6951    1.0000 </r>
       <r>   -0.6895    1.0000 </r>
       <r>   -0.6144    1.0000 </r>
       <r>   -0.5935    1.0000 </r>
       <r>   -0.5839    1.0000 </r>
       <r>   -0.5727    1.0000 </r>
       <r>   -0.5705    1.0000 </r>
       <r>   -0.4534    1.0000 </r>
       <r>   -0.4125    1.0000 </r>
       <r>   -0.3459    1.0000 </r>
       <r>   -0.3428    1.0000 </r>
       <r>   -0.3417    1.0000 </r>
       <r>   -0.3022    1.0000 </r>
       <r>   -0.2981    1.0000 </r>
       <r>   -0.1389    1.0000 </r>
       <r>   -0.0523    1.0000 </r>
       <r>    0.0129    1.0000 </r>
       <r>    0.1079    1.0000 </r>
       <r>    0.1545    1.0000 </r>
       <r>    0.1874    1.0000 </r>
       <r>    0.2009    1.0000 </r>
       <r>    0.3854    1.0000 </r>
       <r>    0.4910    1.0000 </r>
       <r>    0.6255    1.0000 </r>
       <r>    0.6644    1.0000 </r>
       <r>    0.9176    1.0000 </r>
       <r>    0.9511    1.0000 </r>
       <r>    0.9792    1.0000 </r>
       <r>    1.0740    1.0000 </r>
       <r>    1.0872    1.0000 </r>
       <r>    1.0931    1.0000 </r>
       <r>    1.0960    1.0000 </r>
       <r>    1.1414    1.0000 </r>
       <r>    1.1447    1.0000 </r>
       <r>    1.1942    1.0000 </r>
       <r>    1.2684    1.0000 </r>
       <r>    1.3565    1.0000 </r>
       <r>    1.3966    1.0000 </r>
       <r>    1.4105    1.0000 </r>
       <r>    1.4823    1.0000 </r>
       <r>    1.5499    1.0000 </r>
       <r>    1.5973    1.0000 </r>
       <r>    1.6384    1.0000 </r>
       <r>    1.7211    1.0000 </r>
       <r>    1.7477    1.0000 </r>
       <r>    1.7769    1.0000 </r>
       <r>    1.8400    1.0000 </r>
       <r>    1.8405    1.0000 </r>
       <r>    1.8580    1.0000 </r>
       <r>    2.0379    1.0000 </r>
       <r>    2.0421    1.0000 </r>
       <r>    2.1637    1.0000 </r>
       <r>    2.1943    1.0000 </r>
       <r>    2.2392    1.0000 </r>
       <r>    2.4604    1.0000 </r>
       <r>    2.6030    0.9956 </r>
       <r>    2.8240    0.0001 </r>
       <r>    3.3805    0.0000 </r>
       <r>    3.8514    0.0000 </r>
       <r>    4.4930    0.0000 </r>
       <r>    4.7952    0.0000 </r>
       <r>    4.9263    0.0000 </r>
       <r>    5.5986    0.0000 </r>
       <r>    5.7692    0.0000 </r>
       <r>    6.1183    0.0000 </r>
       <r>    6.1596    0.0000 </r>
       <r>    7.0338    0.0000 </r>
       <r>    7.1674    0.0000 </r>
       <r>    7.4423    0.0000 </r>
       <r>    7.6316    0.0000 </r>
       <r>    7.6733    0.0000 </r>
       <r>    7.8022    0.0000 </r>
       <r>    7.9491    0.0000 </r>
       <r>    8.1637    0.0000 </r>
       <r>    8.5012    0.0000 </r>
       <r>    8.5537    0.0000 </r>
       <r>    8.7101    0.0000 </r>
       <r>    8.7149    0.0000 </r>
       <r>    8.7740    0.0000 </r>
       <r>    8.8813    0.0000 </r>
       <r>    8.9362    0.0000 </r>
       <r>    9.0528    0.0000 </r>
       <r>    9.1363    0.0000 </r>
       <r>    9.1781    0.0000 </r>
       <r>    9.2205    0.0000 </r>
       <r>    9.2756    0.0000 </r>
       <r>    9.4823    0.0000 </r>
       <r>    9.6380    0.0000 </r>
       <r>    9.7298    0.0000 </r>
       <r>    9.8141    0.0000 </r>
       <r>    9.8686    0.0000 </r>
       <r>    9.8812    0.0000 </r>
       <r>    9.9422    0.0000 </r>
       <r>   10.0382    0.0000 </r>
       <r>   10.0915    0.0000 </r>
       <r>   10.0978    0.0000 </r>
       <r>   10.1362    0.0000 </r>
       <r>   10.4206    0.0000 </r>
      </set>
      <set comment="kpoint 4">
       <r>  -31.3800    1.0000 </r>
       <r>  -31.3733    1.0000 </r>
       <r>  -31.3732    1.0000 </r>
       <r>  -31.3669    1.0000 </r>
       <r>  -31.3669    1.0000 </r>
       <r>  -31.3608    1.0000 </r>
       <r>  -31.3603    1.0000 </r>
       <r>  -31.3545    1.0000 </r>
       <r>  -14.8757    1.0000 </r>
       <r>  -14.8258    1.0000 </r>
       <r>  -14.7302    1.0000 </r>
       <r>  -14.6031    1.0000 </r>
       <r>  -14.4724    1.0000 </r>
       <r>  -14.4534    1.0000 </r>
       <r>  -14.3460    1.0000 </r>
       <r>  -14.3451    1.0000 </r>
       <r>  -14.2254    1.0000 </r>
       <r>  -14.2173    1.0000 </r>
       <r>  -14.1157    1.0000 </r>
       <r>  -14.0902    1.0000 </r>
       <r>  -13.8811    1.0000 </r>
       <r>  -13.8322    1.0000 </r>
       <r>  -13.7033    1.0000 </r>
       <r>  -13.6941    1.0000 </r>
       <r>  -13.4687    1.0000 </r>
       <r>  -13.4206    1.0000 </r>
       <r>  -13.3967    1.0000 </r>
       <r>  -13.3830    1.0000 </r>
       <r>  -13.3759    1.0000 </r>
       <r>  -13.3707    1.0000 </r>
       <r>  -13.3596    1.0000 </r>
       <r>  -13.2943    1.0000 </r>
       <r>  -13.2933    1.0000 </r>
       <r>  -13.2908    1.0000 </r>
       <r>  -13.2252    1.0000 </r>
       <r>  -13.1647    1.0000 </r>
       <r>  -13.1306    1.0000 </r>
       <r>  -13.0710    1.0000 </r>
       <r>  -13.0633    1.0000 </r>
       <r>  -13.0129    1.0000 </r>
       <r>  -12.9934    1.0000 </r>
       <r>  -12.9881    1.0000 </r>
       <r>  -12.9481    1.0000 </r>
       <r>  -12.9119    1.0000 </r>
       <r>  -12.9095    1.0000 </r>
       <r>  -12.9068    1.0000 </r>
       <r>  -12.8885    1.0000 </r>
       <r>  -12.8423    1.0000 </r>
       <r>   -2.9871    1.0000 </r>
       <r>   -2.9771    1.0000 </r>
       <r>   -2.8506    1.0000 </r>
       <r>   -2.8383    1.0000 </r>
       <r>   -2.6011    1.0000 </r>
       <r>   -2.5840    1.0000 </r>
       <r>   -2.2800    1.0000 </r>
       <r>   -2.2720    1.0000 </r>
       <r>   -1.9328    1.0000 </r>
       <r>   -1.8484    1.0000 </r>
       <r>   -1.8000    1.0000 </r>
       <r>   -1.7707    1.0000 </r>
       <r>   -1.7135    1.0000 </r>
       <r>   -1.6985    1.0000 </r>
       <r>   -1.6891    1.0000 </r>
       <r>   -1.6349    1.0000 </r>
       <r>   -1.5940    1.0000 </r>
       <r>   -1.5880    1.0000 </r>
       <r>   -1.5788    1.0000 </r>
       <r>   -1.5285    1.0000 </r>
       <r>   -1.3820    1.0000 </r>
       <r>   -1.3517    1.0000 </r>
       <r>   -1.2732    1.0000 </r>
       <r>   -1.1495    1.0000 </r>
       <r>   -1.0480    1.0000 </r>
       <r>   -1.0416    1.0000 </r>
       <r>   -0.9442    1.0000 </r>
       <r>   -0.9380    1.0000 </r>
       <r>   -0.6859    1.0000 </r>
       <r>   -0.6825    1.0000 </r>
       <r>   -0.6768    1.0000 </r>
       <r>   -0.6522    1.0000 </r>
       <r>   -0.6066    1.0000 </r>
       <r>   -0.5913    1.0000 </r>
       <r>   -0.5625    1.0000 </r>
       <r>   -0.5421    1.0000 </r>
       <r>   -0.4655    1.0000 </r>
       <r>   -0.4161    1.0000 </r>
       <r>   -0.3935    1.0000 </r>
       <r>   -0.3392    1.0000 </r>
       <r>   -0.3373    1.0000 </r>
       <r>   -0.3121    1.0000 </r>
       <r>   -0.2609    1.0000 </r>
       <r>   -0.2415    1.0000 </r>
       <r>   -0.1279    1.0000 </r>
       <r>   -0.0872    1.0000 </r>
       <r>   -0.0395    1.0000 </r>
       <r>    0.0531    1.0000 </r>
       <r>    0.3264    1.0000 </r>
       <r>    0.4411    1.0000 </r>
       <r>    0.4983    1.0000 </r>
       <r>    0.5305    1.0000 </r>
       <r>    0.5762    1.0000 </r>
       <r>    0.6584    1.0000 </r>
       <r>    0.7917    1.0000 </r>
       <r>    0.9200    1.0000 </r>
       <r>    1.0000    1.0000 </r>
       <r>    1.0514    1.0000 </r>
       <r>    1.0854    1.0000 </r>
       <r>    1.0881    1.0000 </r>
       <r>    1.0935    1.0000 </r>
       <r>    1.1341    1.0000 </r>
       <r>    1.1661    1.0000 </r>
       <r>    1.1669    1.0000 </r>
       <r>    1.2516    1.0000 </r>
       <r>    1.2549    1.0000 </r>
       <r>    1.3367    1.0000 </r>
       <r>    1.3599    1.0000 </r>
       <r>    1.4005    1.0000 </r>
       <r>    1.4147    1.0000 </r>
       <r>    1.5025    1.0000 </r>
       <r>    1.5727    1.0000 </r>
       <r>    1.6097    1.0000 </r>
       <r>    1.7256    1.0000 </r>
       <r>    1.7577    1.0000 </r>
       <r>    1.8054    1.0000 </r>
       <r>    1.8659    1.0000 </r>
       <r>    1.8879    1.0000 </r>
       <r>    1.9337    1.0000 </r>
       <r>    2.0197    1.0000 </r>
       <r>    2.0286    1.0000 </r>
       <r>    2.0905    1.0000 </r>
       <r>    2.1204    1.0000 </r>
       <r>    2.1631    1.0000 </r>
       <r>    2.5959    0.9976 </r>
       <r>    2.6074    0.9937 </r>
       <r>    2.7982    0.0018 </r>
       <r>    3.1333    0.0000 </r>
       <r>    4.2114    0.0000 </r>
       <r>    4.6192    0.0000 </r>
       <r>    4.8908    0.0000 </r>
       <r>    4.9783    0.0000 </r>
       <r>    5.7614    0.0000 </r>
       <r>    5.9280    0.0000 </r>
       <r>    6.0707    0.0000 </r>
       <r>    6.1012    0.0000 </r>
       <r>    6.7386    0.0000 </r>
       <r>    7.1369    0.0000 </r>
       <r>    7.5886    0.0000 </r>
       <r>    7.6553    0.0000 </r>
       <r>    7.8297    0.0000 </r>
       <r>    7.8328    0.0000 </r>
       <r>    8.0430    0.0000 </r>
       <r>    8.1014    0.0000 </r>
       <r>    8.1082    0.0000 </r>
       <r>    8.2118    0.0000 </r>
       <r>    8.5026    0.0000 </r>
       <r>    8.6030    0.0000 </r>
       <r>    8.7197    0.0000 </r>
       <r>    8.7501    0.0000 </r>
       <r>    8.8614    0.0000 </r>
       <r>    8.8709    0.0000 </r>
       <r>    8.8943    0.0000 </r>
       <r>    8.8952    0.0000 </r>
       <r>    9.0369    0.0000 </r>
       <r>    9.5297    0.0000 </r>
       <r>    9.5322    0.0000 </r>
       <r>    9.7324    0.0000 </r>
       <r>    9.8143    0.0000 </r>
       <r>    9.8694    0.0000 </r>
       <r>    9.8859    0.0000 </r>
       <r>    9.9526    0.0000 </r>
       <r>   10.1548    0.0000 </r>
       <r>   10.1640    0.0000 </r>
       <r>   10.1880    0.0000 </r>
       <r>   10.2111    0.0000 </r>
       <r>   10.2694    0.0000 </r>
       <r>   10.4578    0.0000 </r>
      </set>
      <set comment="kpoint 5">
       <r>  -31.3834    1.0000 </r>
       <r>  -31.3766    1.0000 </r>
       <r>  -31.3699    1.0000 </r>
       <r>  -31.3698    1.0000 </r>
       <r>  -31.3635    1.0000 </r>
       <r>  -31.3635    1.0000 </r>
       <r>  -31.3576    1.0000 </r>
       <r>  -31.3516    1.0000 </r>
       <r>  -14.9193    1.0000 </r>
       <r>  -14.8549    1.0000 </r>
       <r>  -14.8024    1.0000 </r>
       <r>  -14.6641    1.0000 </r>
       <r>  -14.5634    1.0000 </r>
       <r>  -14.4356    1.0000 </r>
       <r>  -14.2288    1.0000 </r>
       <r>  -14.1977    1.0000 </r>
       <r>  -14.1162    1.0000 </r>
       <r>  -14.1019    1.0000 </r>
       <r>  -14.0061    1.0000 </r>
       <r>  -13.9969    1.0000 </r>
       <r>  -13.9785    1.0000 </r>
       <r>  -13.8237    1.0000 </r>
       <r>  -13.7698    1.0000 </r>
       <r>  -13.7180    1.0000 </r>
       <r>  -13.5168    1.0000 </r>
       <r>  -13.4659    1.0000 </r>
       <r>  -13.4631    1.0000 </r>
       <r>  -13.4547    1.0000 </r>
       <r>  -13.4043    1.0000 </r>
       <r>  -13.2696    1.0000 </r>
       <r>  -13.2662    1.0000 </r>
       <r>  -13.2621    1.0000 </r>
       <r>  -13.2514    1.0000 </r>
       <r>  -13.2492    1.0000 </r>
       <r>  -13.2481    1.0000 </r>
       <r>  -13.2319    1.0000 </r>
       <r>  -13.2275    1.0000 </r>
       <r>  -13.2173    1.0000 </r>
       <r>  -13.2135    1.0000 </r>
       <r>  -13.1604    1.0000 </r>
       <r>  -13.0326    1.0000 </r>
       <r>  -12.9982    1.0000 </r>
       <r>  -12.9931    1.0000 </r>
       <r>  -12.9514    1.0000 </r>
       <r>  -12.8106    1.0000 </r>
       <r>  -12.7658    1.0000 </r>
       <r>  -12.7502    1.0000 </r>
       <r>  -12.7425    1.0000 </r>
       <r>   -2.9723    1.0000 </r>
       <r>   -2.9351    1.0000 </r>
       <r>   -2.6183    1.0000 </r>
       <r>   -2.5394    1.0000 </r>
       <r>   -2.5317    1.0000 </r>
       <r>   -2.5264    1.0000 </r>
       <r>   -2.2573    1.0000 </r>
       <r>   -2.2467    1.0000 </r>
       <r>   -2.0980    1.0000 </r>
       <r>   -1.8997    1.0000 </r>
       <r>   -1.8457    1.0000 </r>
       <r>   -1.8360    1.0000 </r>
       <r>   -1.8291    1.0000 </r>
       <r>   -1.7380    1.0000 </r>
       <r>   -1.6052    1.0000 </r>
       <r>   -1.5574    1.0000 </r>
       <r>   -1.4853    1.0000 </r>
       <r>   -1.4524    1.0000 </r>
       <r>   -1.4134    1.0000 </r>
       <r>   -1.4043    1.0000 </r>
       <r>   -1.3102    1.0000 </r>
       <r>   -1.2901    1.0000 </r>
       <r>   -1.2577    1.0000 </r>
       <r>   -1.2357    1.0000 </r>
       <r>   -1.2127    1.0000 </r>
       <r>   -1.1743    1.0000 </r>
       <r>   -1.1233    1.0000 </r>
       <r>   -1.0006    1.0000 </r>
       <r>   -0.9960    1.0000 </r>
       <r>   -0.9617    1.0000 </r>
       <r>   -0.9265    1.0000 </r>
       <r>   -0.8924    1.0000 </r>
       <r>   -0.8503    1.0000 </r>
       <r>   -0.7910    1.0000 </r>
       <r>   -0.7887    1.0000 </r>
       <r>   -0.6890    1.0000 </r>
       <r>   -0.5055    1.0000 </r>
       <r>   -0.4678    1.0000 </r>
       <r>   -0.4344    1.0000 </r>
       <r>   -0.3446    1.0000 </r>
       <r>   -0.3237    1.0000 </r>
       <r>   -0.3194    1.0000 </r>
       <r>   -0.2639    1.0000 </r>
       <r>   -0.2577    1.0000 </r>
       <r>   -0.0279    1.0000 </r>
       <r>    0.1173    1.0000 </r>
       <r>    0.2991    1.0000 </r>
       <r>    0.3381    1.0000 </r>
       <r>    0.4126    1.0000 </r>
       <r>    0.4357    1.0000 </r>
       <r>    0.4731    1.0000 </r>
       <r>    0.6419    1.0000 </r>
       <r>    0.6724    1.0000 </r>
       <r>    0.6947    1.0000 </r>
       <r>    0.8304    1.0000 </r>
       <r>    0.9573    1.0000 </r>
       <r>    0.9591    1.0000 </r>
       <r>    0.9953    1.0000 </r>
       <r>    0.9975    1.0000 </r>
       <r>    1.0569    1.0000 </r>
       <r>    1.0768    1.0000 </r>
       <r>    1.1504    1.0000 </r>
       <r>    1.1572    1.0000 </r>
       <r>    1.2199    1.0000 </r>
       <r>    1.2340    1.0000 </r>
       <r>    1.2342    1.0000 </r>
       <r>    1.2773    1.0000 </r>
       <r>    1.3898    1.0000 </r>
       <r>    1.3959    1.0000 </r>
       <r>    1.4483    1.0000 </r>
       <r>    1.4956    1.0000 </r>
       <r>    1.5459    1.0000 </r>
       <r>    1.5858    1.0000 </r>
       <r>    1.6384    1.0000 </r>
       <r>    1.6542    1.0000 </r>
       <r>    1.6823    1.0000 </r>
       <r>    1.7570    1.0000 </r>
       <r>    1.8182    1.0000 </r>
       <r>    1.8608    1.0000 </r>
       <r>    1.8986    1.0000 </r>
       <r>    2.1406    1.0000 </r>
       <r>    2.2268    1.0000 </r>
       <r>    2.2845    1.0000 </r>
       <r>    2.2977    1.0000 </r>
       <r>    2.9972    0.0000 </r>
       <r>    3.0247    0.0000 </r>
       <r>    3.1686    0.0000 </r>
       <r>    3.5197    0.0000 </r>
       <r>    4.0774    0.0000 </r>
       <r>    4.6146    0.0000 </r>
       <r>    4.9256    0.0000 </r>
       <r>    4.9876    0.0000 </r>
       <r>    5.2044    0.0000 </r>
       <r>    5.5161    0.0000 </r>
       <r>    6.3943    0.0000 </r>
       <r>    6.4310    0.0000 </r>
       <r>    6.7548    0.0000 </r>
       <r>    6.9619    0.0000 </r>
       <r>    7.0653    0.0000 </r>
       <r>    7.3809    0.0000 </r>
       <r>    7.4645    0.0000 </r>
       <r>    7.5636    0.0000 </r>
       <r>    8.0690    0.0000 </r>
       <r>    8.1259    0.0000 </r>
       <r>    8.4952    0.0000 </r>
       <r>    8.5815    0.0000 </r>
       <r>    8.5944    0.0000 </r>
       <r>    8.6395    0.0000 </r>
       <r>    8.7211    0.0000 </r>
       <r>    8.7397    0.0000 </r>
       <r>    8.7999    0.0000 </r>
       <r>    8.8173    0.0000 </r>
       <r>    8.8243    0.0000 </r>
       <r>    8.8298    0.0000 </r>
       <r>    8.8561    0.0000 </r>
       <r>    8.9393    0.0000 </r>
       <r>    9.4843    0.0000 </r>
       <r>    9.6423    0.0000 </r>
       <r>    9.6735    0.0000 </r>
       <r>    9.7616    0.0000 </r>
       <r>    9.8651    0.0000 </r>
       <r>    9.9139    0.0000 </r>
       <r>    9.9336    0.0000 </r>
       <r>    9.9353    0.0000 </r>
       <r>   10.2049    0.0000 </r>
       <r>   10.2220    0.0000 </r>
       <r>   10.2924    0.0000 </r>
       <r>   10.5367    0.0000 </r>
      </set>
      <set comment="kpoint 6">
       <r>  -31.3800    1.0000 </r>
       <r>  -31.3733    1.0000 </r>
       <r>  -31.3732    1.0000 </r>
       <r>  -31.3668    1.0000 </r>
       <r>  -31.3668    1.0000 </r>
       <r>  -31.3607    1.0000 </r>
       <r>  -31.3605    1.0000 </r>
       <r>  -31.3546    1.0000 </r>
       <r>  -14.8152    1.0000 </r>
       <r>  -14.7913    1.0000 </r>
       <r>  -14.7693    1.0000 </r>
       <r>  -14.6218    1.0000 </r>
       <r>  -14.5312    1.0000 </r>
       <r>  -14.5088    1.0000 </r>
       <r>  -14.4722    1.0000 </r>
       <r>  -14.2617    1.0000 </r>
       <r>  -14.2313    1.0000 </r>
       <r>  -14.1245    1.0000 </r>
       <r>  -14.0202    1.0000 </r>
       <r>  -13.9870    1.0000 </r>
       <r>  -13.8624    1.0000 </r>
       <r>  -13.8479    1.0000 </r>
       <r>  -13.8262    1.0000 </r>
       <r>  -13.7216    1.0000 </r>
       <r>  -13.4997    1.0000 </r>
       <r>  -13.4722    1.0000 </r>
       <r>  -13.4258    1.0000 </r>
       <r>  -13.4093    1.0000 </r>
       <r>  -13.3656    1.0000 </r>
       <r>  -13.3149    1.0000 </r>
       <r>  -13.2581    1.0000 </r>
       <r>  -13.2471    1.0000 </r>
       <r>  -13.2467    1.0000 </r>
       <r>  -13.2406    1.0000 </r>
       <r>  -13.2261    1.0000 </r>
       <r>  -13.2208    1.0000 </r>
       <r>  -13.1734    1.0000 </r>
       <r>  -13.1342    1.0000 </r>
       <r>  -13.1307    1.0000 </r>
       <r>  -13.0663    1.0000 </r>
       <r>  -13.0068    1.0000 </r>
       <r>  -12.9726    1.0000 </r>
       <r>  -12.9566    1.0000 </r>
       <r>  -12.9548    1.0000 </r>
       <r>  -12.9284    1.0000 </r>
       <r>  -12.8527    1.0000 </r>
       <r>  -12.8233    1.0000 </r>
       <r>  -12.8169    1.0000 </r>
       <r>   -2.6003    1.0000 </r>
       <r>   -2.5946    1.0000 </r>
       <r>   -2.5910    1.0000 </r>
       <r>   -2.5485    1.0000 </r>
       <r>   -2.5341    1.0000 </r>
       <r>   -2.5277    1.0000 </r>
       <r>   -2.2603    1.0000 </r>
       <r>   -2.2451    1.0000 </r>
       <r>   -1.9450    1.0000 </r>
       <r>   -1.8460    1.0000 </r>
       <r>   -1.8251    1.0000 </r>
       <r>   -1.8068    1.0000 </r>
       <r>   -1.7531    1.0000 </r>
       <r>   -1.7061    1.0000 </r>
       <r>   -1.6914    1.0000 </r>
       <r>   -1.6031    1.0000 </r>
       <r>   -1.5863    1.0000 </r>
       <r>   -1.5714    1.0000 </r>
       <r>   -1.5510    1.0000 </r>
       <r>   -1.5318    1.0000 </r>
       <r>   -1.4404    1.0000 </r>
       <r>   -1.4345    1.0000 </r>
       <r>   -1.3427    1.0000 </r>
       <r>   -1.3159    1.0000 </r>
       <r>   -1.2603    1.0000 </r>
       <r>   -1.2311    1.0000 </r>
       <r>   -1.2078    1.0000 </r>
       <r>   -1.1931    1.0000 </r>
       <r>   -1.1488    1.0000 </r>
       <r>   -1.0902    1.0000 </r>
       <r>   -0.9415    1.0000 </r>
       <r>   -0.9246    1.0000 </r>
       <r>   -0.8602    1.0000 </r>
       <r>   -0.7769    1.0000 </r>
       <r>   -0.7682    1.0000 </r>
       <r>   -0.7193    1.0000 </r>
       <r>   -0.7109    1.0000 </r>
       <r>   -0.7025    1.0000 </r>
       <r>   -0.3532    1.0000 </r>
       <r>   -0.3086    1.0000 </r>
       <r>   -0.3002    1.0000 </r>
       <r>   -0.2791    1.0000 </r>
       <r>   -0.2698    1.0000 </r>
       <r>   -0.1552    1.0000 </r>
       <r>   -0.1194    1.0000 </r>
       <r>    0.1108    1.0000 </r>
       <r>    0.1856    1.0000 </r>
       <r>    0.3294    1.0000 </r>
       <r>    0.4706    1.0000 </r>
       <r>    0.6100    1.0000 </r>
       <r>    0.6890    1.0000 </r>
       <r>    0.7196    1.0000 </r>
       <r>    0.7599    1.0000 </r>
       <r>    0.8137    1.0000 </r>
       <r>    0.8445    1.0000 </r>
       <r>    0.9373    1.0000 </r>
       <r>    1.0171    1.0000 </r>
       <r>    1.0332    1.0000 </r>
       <r>    1.1117    1.0000 </r>
       <r>    1.1200    1.0000 </r>
       <r>    1.1556    1.0000 </r>
       <r>    1.1601    1.0000 </r>
       <r>    1.1690    1.0000 </r>
       <r>    1.2297    1.0000 </r>
       <r>    1.2494    1.0000 </r>
       <r>    1.2535    1.0000 </r>
       <r>    1.3035    1.0000 </r>
       <r>    1.3398    1.0000 </r>
       <r>    1.4530    1.0000 </r>
       <r>    1.5080    1.0000 </r>
       <r>    1.5426    1.0000 </r>
       <r>    1.5514    1.0000 </r>
       <r>    1.6067    1.0000 </r>
       <r>    1.6272    1.0000 </r>
       <r>    1.6868    1.0000 </r>
       <r>    1.7894    1.0000 </r>
       <r>    1.7895    1.0000 </r>
       <r>    1.7942    1.0000 </r>
       <r>    1.8708    1.0000 </r>
       <r>    1.9546    1.0000 </r>
       <r>    2.0254    1.0000 </r>
       <r>    2.2450    1.0000 </r>
       <r>    2.2933    1.0000 </r>
       <r>    2.3789    1.0000 </r>
       <r>    2.7632    0.0279 </r>
       <r>    2.9134    0.0000 </r>
       <r>    3.1784    0.0000 </r>
       <r>    3.2935    0.0000 </r>
       <r>    4.2662    0.0000 </r>
       <r>    4.5379    0.0000 </r>
       <r>    5.0837    0.0000 </r>
       <r>    5.1458    0.0000 </r>
       <r>    5.3726    0.0000 </r>
       <r>    5.3782    0.0000 </r>
       <r>    5.7581    0.0000 </r>
       <r>    5.9839    0.0000 </r>
       <r>    7.2217    0.0000 </r>
       <r>    7.3657    0.0000 </r>
       <r>    7.5422    0.0000 </r>
       <r>    7.6927    0.0000 </r>
       <r>    7.7814    0.0000 </r>
       <r>    7.8749    0.0000 </r>
       <r>    8.1275    0.0000 </r>
       <r>    8.2579    0.0000 </r>
       <r>    8.3229    0.0000 </r>
       <r>    8.4259    0.0000 </r>
       <r>    8.5027    0.0000 </r>
       <r>    8.5726    0.0000 </r>
       <r>    8.5751    0.0000 </r>
       <r>    8.6380    0.0000 </r>
       <r>    8.8397    0.0000 </r>
       <r>    8.8450    0.0000 </r>
       <r>    8.8671    0.0000 </r>
       <r>    8.9517    0.0000 </r>
       <r>    8.9739    0.0000 </r>
       <r>    9.0658    0.0000 </r>
       <r>    9.3502    0.0000 </r>
       <r>    9.3734    0.0000 </r>
       <r>    9.5413    0.0000 </r>
       <r>    9.6715    0.0000 </r>
       <r>    9.9151    0.0000 </r>
       <r>    9.9386    0.0000 </r>
       <r>    9.9916    0.0000 </r>
       <r>    9.9964    0.0000 </r>
       <r>   10.0443    0.0000 </r>
       <r>   10.0644    0.0000 </r>
       <r>   10.1886    0.0000 </r>
       <r>   10.3205    0.0000 </r>
      </set>
      <set comment="kpoint 7">
       <r>  -31.3800    1.0000 </r>
       <r>  -31.3733    1.0000 </r>
       <r>  -31.3733    1.0000 </r>
       <r>  -31.3668    1.0000 </r>
       <r>  -31.3668    1.0000 </r>
       <r>  -31.3607    1.0000 </r>
       <r>  -31.3605    1.0000 </r>
       <r>  -31.3546    1.0000 </r>
       <r>  -14.8885    1.0000 </r>
       <r>  -14.8207    1.0000 </r>
       <r>  -14.7437    1.0000 </r>
       <r>  -14.5806    1.0000 </r>
       <r>  -14.5417    1.0000 </r>
       <r>  -14.4651    1.0000 </r>
       <r>  -14.3444    1.0000 </r>
       <r>  -14.2249    1.0000 </r>
       <r>  -14.2108    1.0000 </r>
       <r>  -14.1933    1.0000 </r>
       <r>  -14.1344    1.0000 </r>
       <r>  -14.0868    1.0000 </r>
       <r>  -13.9120    1.0000 </r>
       <r>  -13.8693    1.0000 </r>
       <r>  -13.6640    1.0000 </r>
       <r>  -13.6580    1.0000 </r>
       <r>  -13.5025    1.0000 </r>
       <r>  -13.4657    1.0000 </r>
       <r>  -13.4102    1.0000 </r>
       <r>  -13.3962    1.0000 </r>
       <r>  -13.3540    1.0000 </r>
       <r>  -13.3457    1.0000 </r>
       <r>  -13.2819    1.0000 </r>
       <r>  -13.2792    1.0000 </r>
       <r>  -13.2535    1.0000 </r>
       <r>  -13.2395    1.0000 </r>
       <r>  -13.2361    1.0000 </r>
       <r>  -13.2221    1.0000 </r>
       <r>  -13.2184    1.0000 </r>
       <r>  -13.1479    1.0000 </r>
       <r>  -13.1210    1.0000 </r>
       <r>  -13.0648    1.0000 </r>
       <r>  -12.9761    1.0000 </r>
       <r>  -12.9727    1.0000 </r>
       <r>  -12.9619    1.0000 </r>
       <r>  -12.9325    1.0000 </r>
       <r>  -12.9007    1.0000 </r>
       <r>  -12.8594    1.0000 </r>
       <r>  -12.8483    1.0000 </r>
       <r>  -12.8016    1.0000 </r>
       <r>   -2.9711    1.0000 </r>
       <r>   -2.9522    1.0000 </r>
       <r>   -2.6182    1.0000 </r>
       <r>   -2.5825    1.0000 </r>
       <r>   -2.5249    1.0000 </r>
       <r>   -2.5107    1.0000 </r>
       <r>   -2.2817    1.0000 </r>
       <r>   -2.2766    1.0000 </r>
       <r>   -2.0214    1.0000 </r>
       <r>   -1.8908    1.0000 </r>
       <r>   -1.8495    1.0000 </r>
       <r>   -1.8141    1.0000 </r>
       <r>   -1.8021    1.0000 </r>
       <r>   -1.7252    1.0000 </r>
       <r>   -1.6098    1.0000 </r>
       <r>   -1.6058    1.0000 </r>
       <r>   -1.5283    1.0000 </r>
       <r>   -1.4804    1.0000 </r>
       <r>   -1.3790    1.0000 </r>
       <r>   -1.3682    1.0000 </r>
       <r>   -1.3318    1.0000 </r>
       <r>   -1.2899    1.0000 </r>
       <r>   -1.2869    1.0000 </r>
       <r>   -1.2551    1.0000 </r>
       <r>   -1.2041    1.0000 </r>
       <r>   -1.1290    1.0000 </r>
       <r>   -1.0993    1.0000 </r>
       <r>   -1.0105    1.0000 </r>
       <r>   -0.9597    1.0000 </r>
       <r>   -0.9393    1.0000 </r>
       <r>   -0.9300    1.0000 </r>
       <r>   -0.8954    1.0000 </r>
       <r>   -0.8582    1.0000 </r>
       <r>   -0.8369    1.0000 </r>
       <r>   -0.8237    1.0000 </r>
       <r>   -0.8003    1.0000 </r>
       <r>   -0.4279    1.0000 </r>
       <r>   -0.3561    1.0000 </r>
       <r>   -0.3363    1.0000 </r>
       <r>   -0.3330    1.0000 </r>
       <r>   -0.3193    1.0000 </r>
       <r>   -0.3022    1.0000 </r>
       <r>   -0.2921    1.0000 </r>
       <r>   -0.2459    1.0000 </r>
       <r>    0.0724    1.0000 </r>
       <r>    0.1670    1.0000 </r>
       <r>    0.1674    1.0000 </r>
       <r>    0.2156    1.0000 </r>
       <r>    0.2698    1.0000 </r>
       <r>    0.5419    1.0000 </r>
       <r>    0.5925    1.0000 </r>
       <r>    0.6017    1.0000 </r>
       <r>    0.6796    1.0000 </r>
       <r>    0.7164    1.0000 </r>
       <r>    0.8126    1.0000 </r>
       <r>    0.9570    1.0000 </r>
       <r>    0.9639    1.0000 </r>
       <r>    0.9845    1.0000 </r>
       <r>    1.0805    1.0000 </r>
       <r>    1.1111    1.0000 </r>
       <r>    1.1116    1.0000 </r>
       <r>    1.1711    1.0000 </r>
       <r>    1.1786    1.0000 </r>
       <r>    1.2300    1.0000 </r>
       <r>    1.2436    1.0000 </r>
       <r>    1.2591    1.0000 </r>
       <r>    1.3126    1.0000 </r>
       <r>    1.3500    1.0000 </r>
       <r>    1.3630    1.0000 </r>
       <r>    1.4055    1.0000 </r>
       <r>    1.4233    1.0000 </r>
       <r>    1.5291    1.0000 </r>
       <r>    1.6336    1.0000 </r>
       <r>    1.7110    1.0000 </r>
       <r>    1.7293    1.0000 </r>
       <r>    1.7483    1.0000 </r>
       <r>    1.8590    1.0000 </r>
       <r>    1.8678    1.0000 </r>
       <r>    1.8996    1.0000 </r>
       <r>    1.9634    1.0000 </r>
       <r>    2.0871    1.0000 </r>
       <r>    2.1707    1.0000 </r>
       <r>    2.2020    1.0000 </r>
       <r>    2.2777    1.0000 </r>
       <r>    2.6746    0.7236 </r>
       <r>    2.7501    0.0614 </r>
       <r>    3.0643    0.0000 </r>
       <r>    3.3140    0.0000 </r>
       <r>    4.2098    0.0000 </r>
       <r>    4.4519    0.0000 </r>
       <r>    4.8812    0.0000 </r>
       <r>    4.9205    0.0000 </r>
       <r>    5.4598    0.0000 </r>
       <r>    5.7194    0.0000 </r>
       <r>    6.0589    0.0000 </r>
       <r>    6.0606    0.0000 </r>
       <r>    7.1227    0.0000 </r>
       <r>    7.3442    0.0000 </r>
       <r>    7.4788    0.0000 </r>
       <r>    7.6110    0.0000 </r>
       <r>    7.6643    0.0000 </r>
       <r>    7.8127    0.0000 </r>
       <r>    8.0790    0.0000 </r>
       <r>    8.1584    0.0000 </r>
       <r>    8.3093    0.0000 </r>
       <r>    8.4045    0.0000 </r>
       <r>    8.4049    0.0000 </r>
       <r>    8.4879    0.0000 </r>
       <r>    8.5410    0.0000 </r>
       <r>    8.8538    0.0000 </r>
       <r>    8.9539    0.0000 </r>
       <r>    8.9852    0.0000 </r>
       <r>    9.0440    0.0000 </r>
       <r>    9.0592    0.0000 </r>
       <r>    9.1768    0.0000 </r>
       <r>    9.2352    0.0000 </r>
       <r>    9.4299    0.0000 </r>
       <r>    9.4756    0.0000 </r>
       <r>    9.5014    0.0000 </r>
       <r>    9.6697    0.0000 </r>
       <r>    9.7722    0.0000 </r>
       <r>    9.8593    0.0000 </r>
       <r>    9.9324    0.0000 </r>
       <r>    9.9645    0.0000 </r>
       <r>   10.0434    0.0000 </r>
       <r>   10.0796    0.0000 </r>
       <r>   10.1179    0.0000 </r>
       <r>   10.3072    0.0000 </r>
      </set>
      <set comment="kpoint 8">
       <r>  -31.3767    1.0000 </r>
       <r>  -31.3702    1.0000 </r>
       <r>  -31.3701    1.0000 </r>
       <r>  -31.3700    1.0000 </r>
       <r>  -31.3640    1.0000 </r>
       <r>  -31.3638    1.0000 </r>
       <r>  -31.3635    1.0000 </r>
       <r>  -31.3576    1.0000 </r>
       <r>  -14.8291    1.0000 </r>
       <r>  -14.7932    1.0000 </r>
       <r>  -14.6855    1.0000 </r>
       <r>  -14.5808    1.0000 </r>
       <r>  -14.5685    1.0000 </r>
       <r>  -14.5109    1.0000 </r>
       <r>  -14.4098    1.0000 </r>
       <r>  -14.2912    1.0000 </r>
       <r>  -14.2058    1.0000 </r>
       <r>  -14.1326    1.0000 </r>
       <r>  -14.0641    1.0000 </r>
       <r>  -14.0491    1.0000 </r>
       <r>  -13.8965    1.0000 </r>
       <r>  -13.8958    1.0000 </r>
       <r>  -13.8427    1.0000 </r>
       <r>  -13.7694    1.0000 </r>
       <r>  -13.4794    1.0000 </r>
       <r>  -13.4750    1.0000 </r>
       <r>  -13.4187    1.0000 </r>
       <r>  -13.3936    1.0000 </r>
       <r>  -13.3707    1.0000 </r>
       <r>  -13.3510    1.0000 </r>
       <r>  -13.3223    1.0000 </r>
       <r>  -13.3041    1.0000 </r>
       <r>  -13.2737    1.0000 </r>
       <r>  -13.2521    1.0000 </r>
       <r>  -13.1762    1.0000 </r>
       <r>  -13.1365    1.0000 </r>
       <r>  -13.1080    1.0000 </r>
       <r>  -13.0900    1.0000 </r>
       <r>  -13.0433    1.0000 </r>
       <r>  -13.0106    1.0000 </r>
       <r>  -12.9948    1.0000 </r>
       <r>  -12.9852    1.0000 </r>
       <r>  -12.9486    1.0000 </r>
       <r>  -12.9402    1.0000 </r>
       <r>  -12.9171    1.0000 </r>
       <r>  -12.8939    1.0000 </r>
       <r>  -12.8675    1.0000 </r>
       <r>  -12.8590    1.0000 </r>
       <r>   -2.6312    1.0000 </r>
       <r>   -2.6255    1.0000 </r>
       <r>   -2.5809    1.0000 </r>
       <r>   -2.5778    1.0000 </r>
       <r>   -2.5228    1.0000 </r>
       <r>   -2.5178    1.0000 </r>
       <r>   -2.2798    1.0000 </r>
       <r>   -2.2723    1.0000 </r>
       <r>   -1.9070    1.0000 </r>
       <r>   -1.8485    1.0000 </r>
       <r>   -1.8475    1.0000 </r>
       <r>   -1.7955    1.0000 </r>
       <r>   -1.7484    1.0000 </r>
       <r>   -1.7110    1.0000 </r>
       <r>   -1.6597    1.0000 </r>
       <r>   -1.6344    1.0000 </r>
       <r>   -1.5773    1.0000 </r>
       <r>   -1.5578    1.0000 </r>
       <r>   -1.5366    1.0000 </r>
       <r>   -1.5083    1.0000 </r>
[...]
       <r>     5.2714     1.7403   140.1063 </r>
       <r>     5.4258     2.4844   140.4900 </r>
       <r>     5.5803     2.8809   140.9349 </r>
       <r>     5.7347     2.8665   141.3776 </r>
       <r>     5.8892     3.9017   141.9802 </r>
       <r>     6.0436     5.5539   142.8379 </r>
       <r>     6.1980     5.7510   143.7261 </r>
       <r>     6.3525     0.6494   143.8264 </r>
       <r>     6.5069     1.1154   143.9986 </r>
       <r>     6.6614     0.0247   144.0025 </r>
       <r>     6.8158     1.7687   144.2756 </r>
       <r>     6.9702     2.1281   144.6043 </r>
       <r>     7.1247     2.4851   144.9881 </r>
       <r>     7.2791     3.3927   145.5120 </r>
       <r>     7.4336     4.6725   146.2337 </r>
       <r>     7.5880     4.5599   146.9379 </r>
       <r>     7.7424     7.1816   148.0470 </r>
       <r>     7.8969     9.9851   149.5891 </r>
       <r>     8.0513     5.0124   150.3633 </r>
       <r>     8.2058    10.5360   151.9904 </r>
       <r>     8.3602     6.3475   152.9708 </r>
       <r>     8.5146     8.9075   154.3464 </r>
       <r>     8.6691    12.2791   156.2428 </r>
       <r>     8.8235    11.5511   158.0268 </r>
       <r>     8.9780    17.1496   160.6754 </r>
       <r>     9.1324    12.0295   162.5332 </r>
       <r>     9.2869     9.2602   163.9634 </r>
       <r>     9.4413     6.0383   164.8959 </r>
       <r>     9.5957     9.4822   166.3603 </r>
       <r>     9.7502     8.4083   167.6589 </r>
       <r>     9.9046    16.1973   170.1604 </r>
       <r>    10.0591    15.5116   172.5561 </r>
       <r>    10.2135    13.2856   174.6079 </r>
       <r>    10.3679     5.9487   175.5266 </r>
       <r>    10.5224     2.4674   175.9077 </r>
       <r>    10.6768     0.3714   175.9650 </r>
       <r>    10.8313     0.2257   175.9999 </r>
       <r>    10.9857     0.0007   176.0000 </r>
       <r>    11.1401     0.0000   176.0000 </r>
       <r>    11.2946     0.0000   176.0000 </r>
       <r>    11.4490     0.0000   176.0000 </r>
       <r>    11.6035     0.0000   176.0000 </r>
       <r>    11.7579     0.0000   176.0000 </r>
       <r>    11.9123     0.0000   176.0000 </r>
       <r>    12.0668     0.0000   176.0000 </r>
       <r>    12.2212     0.0000   176.0000 </r>
       <r>    12.3757     0.0000   176.0000 </r>
       <r>    12.5301     0.0000   176.0000 </r>
       <r>    12.6845     0.0000   176.0000 </r>
       <r>    12.8390     0.0000   176.0000 </r>
      </set>
      <set comment="spin 2">
       <r>   -33.4932     0.0000     0.0000 </r>
       <r>   -33.3387     0.0000     0.0000 </r>
       <r>   -33.1843     0.0000     0.0000 </r>
       <r>   -33.0298     0.0000     0.0000 </r>
       <r>   -32.8754     0.0000     0.0000 </r>
       <r>   -32.7210     0.0000     0.0000 </r>
       <r>   -32.5665     0.0000     0.0000 </r>
       <r>   -32.4121     0.0000     0.0000 </r>
       <r>   -32.2576     0.0000     0.0000 </r>
       <r>   -32.1032     0.0000     0.0000 </r>
       <r>   -31.9488     0.0000     0.0000 </r>
       <r>   -31.7943     0.0000     0.0000 </r>
       <r>   -31.6399     0.0000     0.0000 </r>
       <r>   -31.4854     0.0289     0.0045 </r>
       <r>   -31.3310    43.6298     6.7427 </r>
       <r>   -31.1766     8.1412     8.0000 </r>
       <r>   -31.0221     0.0000     8.0000 </r>
       <r>   -30.8677     0.0000     8.0000 </r>
       <r>   -30.7132     0.0000     8.0000 </r>
       <r>   -30.5588     0.0000     8.0000 </r>
       <r>   -30.4044     0.0000     8.0000 </r>
       <r>   -30.2499     0.0000     8.0000 </r>
       <r>   -30.0955     0.0000     8.0000 </r>
       <r>   -29.9410     0.0000     8.0000 </r>
       <r>   -29.7866     0.0000     8.0000 </r>
       <r>   -29.6322     0.0000     8.0000 </r>
       <r>   -29.4777     0.0000     8.0000 </r>
       <r>   -29.3233     0.0000     8.0000 </r>
       <r>   -29.1688     0.0000     8.0000 </r>
       <r>   -29.0144     0.0000     8.0000 </r>
       <r>   -28.8600     0.0000     8.0000 </r>
       <r>   -28.7055     0.0000     8.0000 </r>
       <r>   -28.5511     0.0000     8.0000 </r>
       <r>   -28.3966     0.0000     8.0000 </r>
       <r>   -28.2422     0.0000     8.0000 </r>
       <r>   -28.0878     0.0000     8.0000 </r>
       <r>   -27.9333     0.0000     8.0000 </r>
       <r>   -27.7789     0.0000     8.0000 </r>
       <r>   -27.6244     0.0000     8.0000 </r>
       <r>   -27.4700     0.0000     8.0000 </r>
       <r>   -27.3155     0.0000     8.0000 </r>
       <r>   -27.1611     0.0000     8.0000 </r>
       <r>   -27.0067     0.0000     8.0000 </r>
       <r>   -26.8522     0.0000     8.0000 </r>
       <r>   -26.6978     0.0000     8.0000 </r>
       <r>   -26.5433     0.0000     8.0000 </r>
       <r>   -26.3889     0.0000     8.0000 </r>
       <r>   -26.2345     0.0000     8.0000 </r>
       <r>   -26.0800     0.0000     8.0000 </r>
       <r>   -25.9256     0.0000     8.0000 </r>
       <r>   -25.7711     0.0000     8.0000 </r>
       <r>   -25.6167     0.0000     8.0000 </r>
       <r>   -25.4623     0.0000     8.0000 </r>
       <r>   -25.3078     0.0000     8.0000 </r>
       <r>   -25.1534     0.0000     8.0000 </r>
       <r>   -24.9989     0.0000     8.0000 </r>
       <r>   -24.8445     0.0000     8.0000 </r>
       <r>   -24.6901     0.0000     8.0000 </r>
       <r>   -24.5356     0.0000     8.0000 </r>
       <r>   -24.3812     0.0000     8.0000 </r>
       <r>   -24.2267     0.0000     8.0000 </r>
       <r>   -24.0723     0.0000     8.0000 </r>
       <r>   -23.9179     0.0000     8.0000 </r>
       <r>   -23.7634     0.0000     8.0000 </r>
       <r>   -23.6090     0.0000     8.0000 </r>
       <r>   -23.4545     0.0000     8.0000 </r>
       <r>   -23.3001     0.0000     8.0000 </r>
       <r>   -23.1457     0.0000     8.0000 </r>
       <r>   -22.9912     0.0000     8.0000 </r>
       <r>   -22.8368     0.0000     8.0000 </r>
       <r>   -22.6823     0.0000     8.0000 </r>
       <r>   -22.5279     0.0000     8.0000 </r>
       <r>   -22.3735     0.0000     8.0000 </r>
       <r>   -22.2190     0.0000     8.0000 </r>
       <r>   -22.0646     0.0000     8.0000 </r>
       <r>   -21.9101     0.0000     8.0000 </r>
       <r>   -21.7557     0.0000     8.0000 </r>
       <r>   -21.6013     0.0000     8.0000 </r>
       <r>   -21.4468     0.0000     8.0000 </r>
       <r>   -21.2924     0.0000     8.0000 </r>
       <r>   -21.1379     0.0000     8.0000 </r>
       <r>   -20.9835     0.0000     8.0000 </r>
       <r>   -20.8290     0.0000     8.0000 </r>
       <r>   -20.6746     0.0000     8.0000 </r>
       <r>   -20.5202     0.0000     8.0000 </r>
       <r>   -20.3657     0.0000     8.0000 </r>
       <r>   -20.2113     0.0000     8.0000 </r>
       <r>   -20.0568     0.0000     8.0000 </r>
       <r>   -19.9024     0.0000     8.0000 </r>
       <r>   -19.7480     0.0000     8.0000 </r>
       <r>   -19.5935     0.0000     8.0000 </r>
       <r>   -19.4391     0.0000     8.0000 </r>
       <r>   -19.2846     0.0000     8.0000 </r>
       <r>   -19.1302     0.0000     8.0000 </r>
       <r>   -18.9758     0.0000     8.0000 </r>
       <r>   -18.8213     0.0000     8.0000 </r>
       <r>   -18.6669     0.0000     8.0000 </r>
       <r>   -18.5124     0.0000     8.0000 </r>
       <r>   -18.3580     0.0000     8.0000 </r>
       <r>   -18.2036     0.0000     8.0000 </r>
       <r>   -18.0491     0.0000     8.0000 </r>
       <r>   -17.8947     0.0000     8.0000 </r>
       <r>   -17.7402     0.0000     8.0000 </r>
       <r>   -17.5858     0.0000     8.0000 </r>
       <r>   -17.4314     0.0000     8.0000 </r>
       <r>   -17.2769     0.0000     8.0000 </r>
       <r>   -17.1225     0.0000     8.0000 </r>
       <r>   -16.9680     0.0000     8.0000 </r>
       <r>   -16.8136     0.0000     8.0000 </r>
       <r>   -16.6592     0.0000     8.0000 </r>
       <r>   -16.5047     0.0000     8.0000 </r>
       <r>   -16.3503     0.0000     8.0000 </r>
       <r>   -16.1958     0.0000     8.0000 </r>
       <r>   -16.0414     0.0000     8.0000 </r>
       <r>   -15.8870     0.0000     8.0000 </r>
       <r>   -15.7325     0.0000     8.0000 </r>
       <r>   -15.5781     0.0000     8.0000 </r>
       <r>   -15.4236     0.0000     8.0000 </r>
       <r>   -15.2692     0.0000     8.0000 </r>
       <r>   -15.1147     0.0000     8.0000 </r>
       <r>   -14.9603     0.0783     8.0121 </r>
       <r>   -14.8059     5.2767     8.8270 </r>
       <r>   -14.6514    14.3366    11.0412 </r>
       <r>   -14.4970    12.5823    12.9844 </r>
       <r>   -14.3425    10.8330    14.6575 </r>
       <r>   -14.1881    10.3694    16.2589 </r>
       <r>   -14.0337    17.1147    18.9021 </r>
       <r>   -13.8792     9.1864    20.3209 </r>
       <r>   -13.7248     8.1738    21.5833 </r>
       <r>   -13.5703    11.9264    23.4252 </r>
       <r>   -13.4159    19.9962    26.5134 </r>
       <r>   -13.2615    38.8721    32.5168 </r>
       <r>   -13.1070    31.0332    37.3096 </r>
       <r>   -12.9526    25.3819    41.2296 </r>
       <r>   -12.7981    30.0050    45.8636 </r>
       <r>   -12.6437    13.7172    47.9821 </r>
       <r>   -12.4893     0.1159    48.0000 </r>
       <r>   -12.3348     0.0000    48.0000 </r>
       <r>   -12.1804     0.0000    48.0000 </r>
       <r>   -12.0259     0.0000    48.0000 </r>
       <r>   -11.8715     0.0000    48.0000 </r>
       <r>   -11.7171     0.0000    48.0000 </r>
       <r>   -11.5626     0.0000    48.0000 </r>
       <r>   -11.4082     0.0000    48.0000 </r>
       <r>   -11.2537     0.0000    48.0000 </r>
       <r>   -11.0993     0.0000    48.0000 </r>
       <r>   -10.9449     0.0000    48.0000 </r>
       <r>   -10.7904     0.0000    48.0000 </r>
       <r>   -10.6360     0.0000    48.0000 </r>
       <r>   -10.4815     0.0000    48.0000 </r>
       <r>   -10.3271     0.0000    48.0000 </r>
       <r>   -10.1727     0.0000    48.0000 </r>
       <r>   -10.0182     0.0000    48.0000 </r>
       <r>    -9.8638     0.0000    48.0000 </r>
       <r>    -9.7093     0.0000    48.0000 </r>
       <r>    -9.5549     0.0000    48.0000 </r>
       <r>    -9.4005     0.0000    48.0000 </r>
       <r>    -9.2460     0.0000    48.0000 </r>
       <r>    -9.0916     0.0000    48.0000 </r>
       <r>    -8.9371     0.0000    48.0000 </r>
       <r>    -8.7827     0.0000    48.0000 </r>
       <r>    -8.6282     0.0000    48.0000 </r>
       <r>    -8.4738     0.0000    48.0000 </r>
       <r>    -8.3194     0.0000    48.0000 </r>
       <r>    -8.1649     0.0000    48.0000 </r>
       <r>    -8.0105     0.0000    48.0000 </r>
       <r>    -7.8560     0.0000    48.0000 </r>
       <r>    -7.7016     0.0000    48.0000 </r>
       <r>    -7.5472     0.0000    48.0000 </r>
       <r>    -7.3927     0.0000    48.0000 </r>
       <r>    -7.2383     0.0000    48.0000 </r>
       <r>    -7.0838     0.0000    48.0000 </r>
       <r>    -6.9294     0.0000    48.0000 </r>
       <r>    -6.7750     0.0000    48.0000 </r>
       <r>    -6.6205     0.0000    48.0000 </r>
       <r>    -6.4661     0.0000    48.0000 </r>
       <r>    -6.3116     0.0000    48.0000 </r>
       <r>    -6.1572     0.0000    48.0000 </r>
       <r>    -6.0028     0.0000    48.0000 </r>
       <r>    -5.8483     0.0000    48.0000 </r>
       <r>    -5.6939     0.0000    48.0000 </r>
       <r>    -5.5394     0.0000    48.0000 </r>
       <r>    -5.3850     0.0000    48.0000 </r>
       <r>    -5.2306     0.0000    48.0000 </r>
       <r>    -5.0761     0.0000    48.0000 </r>
       <r>    -4.9217     0.0000    48.0000 </r>
       <r>    -4.7672     0.0000    48.0000 </r>
       <r>    -4.6128     0.0000    48.0000 </r>
       <r>    -4.4584     0.0000    48.0000 </r>
       <r>    -4.3039     0.0000    48.0000 </r>
       <r>    -4.1495     0.0000    48.0000 </r>
       <r>    -3.9950     0.0000    48.0000 </r>
       <r>    -3.8406     0.0000    48.0000 </r>
       <r>    -3.6862     0.0000    48.0000 </r>
       <r>    -3.5317     0.0000    48.0000 </r>
       <r>    -3.3773     0.0000    48.0000 </r>
       <r>    -3.2228     0.0000    48.0000 </r>
       <r>    -3.0684     0.0005    48.0001 </r>
       <r>    -2.9139     1.0738    48.1659 </r>
       <r>    -2.7595     3.0078    48.6304 </r>
       <r>    -2.6051     5.8481    49.5336 </r>
       <r>    -2.4506     6.9253    50.6032 </r>
       <r>    -2.2962     6.8378    51.6592 </r>
       <r>    -2.1417    12.3980    53.5740 </r>
       <r>    -1.9873     6.3019    54.5472 </r>
       <r>    -1.8329    12.4861    56.4756 </r>
       <r>    -1.6784    11.1669    58.2002 </r>
       <r>    -1.5240    25.5787    62.1506 </r>
       <r>    -1.3695    20.9466    65.3856 </r>
       <r>    -1.2151    20.3832    68.5336 </r>
       <r>    -1.0607    29.8078    73.1371 </r>
       <r>    -0.9062    29.3677    77.6727 </r>
       <r>    -0.7518    20.0596    80.7707 </r>
       <r>    -0.5973    18.0349    83.5560 </r>
       <r>    -0.4429    14.3921    85.7788 </r>
       <r>    -0.2885    25.9198    89.7818 </r>
       <r>    -0.1340    10.4236    91.3917 </r>
       <r>     0.0204     9.1036    92.7976 </r>
       <r>     0.1749     7.9772    94.0296 </r>
       <r>     0.3293     9.6771    95.5242 </r>
       <r>     0.4837     9.5022    96.9917 </r>
       <r>     0.6382    12.7451    98.9600 </r>
       <r>     0.7926    12.2070   100.8453 </r>
       <r>     0.9471    15.6409   103.2609 </r>
       <r>     1.1015    21.4355   106.5714 </r>
       <r>     1.2559    29.5381   111.1333 </r>
       <r>     1.4104    23.0981   114.7005 </r>
       <r>     1.5648    21.2162   117.9772 </r>
       <r>     1.7193    19.3134   120.9599 </r>
       <r>     1.8737    17.0050   123.5862 </r>
       <r>     2.0281    13.8990   125.7328 </r>
       <r>     2.1826    16.4487   128.2731 </r>
       <r>     2.3370    10.5775   129.9067 </r>
       <r>     2.4915     5.4084   130.7420 </r>
       <r>     2.6459     2.3718   131.1083 </r>
       <r>     2.8004     6.3724   132.0924 </r>
       <r>     2.9548     4.2631   132.7508 </r>
       <r>     3.1092     4.2846   133.4126 </r>
       <r>     3.2637     3.6225   133.9720 </r>
       <r>     3.4181     3.4553   134.5057 </r>
       <r>     3.5726     3.6406   135.0679 </r>
       <r>     3.7270     3.8814   135.6674 </r>
       <r>     3.8814     1.3355   135.8736 </r>
       <r>     4.0359     1.3443   136.0812 </r>
       <r>     4.1903     1.9478   136.3821 </r>
       <r>     4.3448     3.8660   136.9791 </r>
       <r>     4.4992     2.8346   137.4169 </r>
       <r>     4.6536     2.0213   137.7291 </r>
       <r>     4.8081     1.8989   138.0223 </r>
       <r>     4.9625     7.0526   139.1115 </r>
       <r>     5.1170     3.8106   139.7001 </r>
       <r>     5.2714     2.2510   140.0477 </r>
       <r>     5.4258     1.9549   140.3496 </r>
       <r>     5.5803     2.7546   140.7750 </r>
       <r>     5.7347     3.5643   141.3255 </r>
       <r>     5.8892     3.1207   141.8075 </r>
       <r>     6.0436     5.1791   142.6073 </r>
       <r>     6.1980     6.6274   143.6309 </r>
       <r>     6.3525     1.2270   143.8204 </r>
       <r>     6.5069     0.7795   143.9407 </r>
       <r>     6.6614     0.3908   144.0011 </r>
       <r>     6.8158     1.8009   144.2792 </r>
       <r>     6.9702     2.0942   144.6027 </r>
       <r>     7.1247     2.2912   144.9565 </r>
       <r>     7.2791     3.4128   145.4836 </r>
       <r>     7.4336     4.4551   146.1716 </r>
       <r>     7.5880     4.6142   146.8842 </r>
       <r>     7.7424     7.1349   147.9862 </r>
       <r>     7.8969    10.2319   149.5664 </r>
       <r>     8.0513     4.9652   150.3332 </r>
       <r>     8.2058    10.5217   151.9582 </r>
       <r>     8.3602     6.2289   152.9202 </r>
       <r>     8.5146     8.0601   154.1650 </r>
       <r>     8.6691    12.7354   156.1318 </r>
       <r>     8.8235    11.1580   157.8551 </r>
       <r>     8.9780    17.0009   160.4807 </r>
       <r>     9.1324    12.4142   162.3980 </r>
       <r>     9.2869    10.0083   163.9437 </r>
       <r>     9.4413     5.7419   164.8305 </r>
       <r>     9.5957     9.6472   166.3204 </r>
       <r>     9.7502     8.0209   167.5591 </r>
       <r>     9.9046    15.9580   170.0237 </r>
       <r>    10.0591    15.3358   172.3921 </r>
       <r>    10.2135    14.1402   174.5760 </r>
       <r>    10.3679     6.7614   175.6202 </r>
       <r>    10.5224     1.7783   175.8948 </r>
       <r>    10.6768     0.4595   175.9658 </r>
       <r>    10.8313     0.2211   175.9999 </r>
       <r>    10.9857     0.0004   176.0000 </r>
       <r>    11.1401     0.0000   176.0000 </r>
       <r>    11.2946     0.0000   176.0000 </r>
       <r>    11.4490     0.0000   176.0000 </r>
       <r>    11.6035     0.0000   176.0000 </r>
       <r>    11.7579     0.0000   176.0000 </r>
       <r>    11.9123     0.0000   176.0000 </r>
       <r>    12.0668     0.0000   176.0000 </r>
       <r>    12.2212     0.0000   176.0000 </r>
       <r>    12.3757     0.0000   176.0000 </r>
       <r>    12.5301     0.0000   176.0000 </r>
       <r>    12.6845     0.0000   176.0000 </r>
       <r>    12.8390     0.0000   176.0000 </r>
      </set>
     </set>
    </array>
   </total>
  </dos>
 </calculation>
 <structure name="finalpos" >
  <crystal>
   <varray name="basis" >
    <v>       8.00000000       0.00000000       0.00000000 </v>
    <v>       0.00000000       8.00000000       0.00000000 </v>
    <v>       0.00000000       0.00000000       8.00000000 </v>
   </varray>
   <i name="volume">    512.00000000 </i>
   <varray name="rec_basis" >
    <v>       0.12500000       0.00000000       0.00000000 </v>
    <v>       0.00000000       0.12500000       0.00000000 </v>
    <v>       0.00000000       0.00000000       0.12500000 </v>
   </varray>
  </crystal>
  <varray name="positions" >
   <v>       0.75000000       0.00000000       0.75000000 </v>
   <v>       0.75000000       0.00000000       0.25000000 </v>
   <v>       0.75000000       0.50000000       0.75000000 </v>
   <v>       0.75000000       0.50000000       0.25000000 </v>
   <v>       0.25000000       0.50000000       0.75000000 </v>
   <v>       0.25000000       0.50000000       0.25000000 </v>
   <v>       0.25000000       0.00000000       0.75000000 </v>
   <v>       0.25000000       0.00000000       0.25000000 </v>
   <v>       0.00000000       0.25000000       0.50000000 </v>
   <v>       0.00000000       0.25000000       0.00000000 </v>
   <v>       0.50000000       0.25000000       0.50000000 </v>
   <v>       0.50000000       0.25000000       0.00000000 </v>
   <v>       0.50000000       0.75000000       0.50000000 </v>
   <v>       0.50000000       0.75000000       0.00000000 </v>
   <v>       0.00000000       0.75000000       0.50000000 </v>
   <v>       0.00000000       0.75000000       0.00000000 </v>
   <v>       0.50000000       0.50000000       0.50000000 </v>
   <v>       0.50000000       0.50000000       0.00000000 </v>
   <v>       0.75000000       0.75000000       0.00000000 </v>
   <v>       0.75000000       0.25000000       0.00000000 </v>
   <v>       0.00000000       0.25000000       0.75000000 </v>
   <v>       0.00000000       0.25000000       0.25000000 </v>
   <v>       0.50000000       0.25000000       0.75000000 </v>
   <v>       0.50000000       0.25000000       0.25000000 </v>
   <v>       0.00000000       0.00000000       0.50000000 </v>
   <v>       0.00000000       0.00000000       0.00000000 </v>
   <v>       0.25000000       0.25000000       0.00000000 </v>
   <v>       0.25000000       0.75000000       0.00000000 </v>
   <v>       0.50000000       0.75000000       0.75000000 </v>
   <v>       0.50000000       0.75000000       0.25000000 </v>
   <v>       0.00000000       0.75000000       0.75000000 </v>
   <v>       0.00000000       0.75000000       0.25000000 </v>
  </varray>
 </structure>
</modeling>
