<?xml version="1.0" encoding="ISO-8859-1"?>
<modeling>
 <generator>
  <i name="program" type="string">vasp </i>
  <i name="version" type="string">5.3.5  </i>
  <i name="subversion" type="string">31Mar14 (build Jun 20 2014 13:15:13) complex                          parallel </i>
  <i name="platform" type="string">LinuxIFC </i>
  <i name="date" type="string">2025 11 21 </i>
  <i name="time" type="string">11:36:08 </i>
 </generator>
 <incar>
  <i type="string" name="PREC">accurate</i>
  <i type="int" name="IALGO">    68</i>
  <i type="logical" name="ADDGRID"> T  </i>
  <i type="int" name="NELM">   100</i>
  <i type="int" name="NELMIN">     4</i>
  <i type="int" name="IBRION">     2</i>
  <i name="EDIFF">      0.00000100</i>
  <i name="EDIFFG">     -0.02000000</i>
  <i type="int" name="NSW">    30</i>
  <i type="int" name="ISIF">     3</i>
  <i name="ENCUT">    500.00000000</i>
  <i type="logical" name="LREAL"> F  </i>
  <i type="int" name="ISMEAR">     1</i>
  <i name="SIGMA">      0.30000000</i>
  <i type="logical" name="LWAVE"> F  </i>
  <i type="logical" name="LCHARG"> F  </i>
  <i type="int" name="NELM">   100</i>
 </incar>
 <kpoints>
  <generation param="Auto">
   <i name="subdivisionlength">     70.00000000 </i>
   <v type="int" name="divisions">      28       28        5 </v>
   <v name="usershift">      0.00000000       0.00000000       0.00000000 </v>
   <v name="genvec1">      0.03571429       0.00000000       0.00000000 </v>
   <v name="genvec2">      0.00000000       0.03571429       0.00000000 </v>
   <v name="genvec3">      0.00000000       0.00000000       0.20000000 </v>
   <v name="shift">      0.00000000       0.00000000       0.00000000 </v>
  </generation>
  <varray name="kpointlist" >
   <v>       0.00000000       0.00000000       0.00000000 </v>
   <v>       0.03571429       0.00000000       0.00000000 </v>
   <v>       0.07142857       0.00000000       0.00000000 </v>
   <v>       0.10714286       0.00000000       0.00000000 </v>
   <v>       0.14285714       0.00000000       0.00000000 </v>
   <v>       0.17857143       0.00000000       0.00000000 </v>
   <v>       0.21428571       0.00000000       0.00000000 </v>
   <v>       0.25000000       0.00000000       0.00000000 </v>
   <v>       0.28571429       0.00000000       0.00000000 </v>
   <v>       0.32142857       0.00000000       0.00000000 </v>
   <v>       0.35714286       0.00000000       0.00000000 </v>
   <v>       0.39285714       0.00000000       0.00000000 </v>
   <v>       0.42857143       0.00000000       0.00000000 </v>
   <v>       0.46428571       0.00000000       0.00000000 </v>
   <v>       0.50000000       0.00000000       0.00000000 </v>
   <v>       0.03571429       0.03571429       0.00000000 </v>
   <v>       0.07142857       0.03571429       0.00000000 </v>
   <v>       0.10714286       0.03571429       0.00000000 </v>
   <v>       0.14285714       0.03571429       0.00000000 </v>
   <v>       0.17857143       0.03571429       0.00000000 </v>
   <v>       0.21428571       0.03571429       0.00000000 </v>
   <v>       0.25000000       0.03571429       0.00000000 </v>
   <v>       0.28571429       0.03571429       0.00000000 </v>
   <v>       0.32142857       0.03571429       0.00000000 </v>
   <v>       0.35714286       0.03571429       0.00000000 </v>
   <v>       0.39285714       0.03571429       0.00000000 </v>
   <v>       0.42857143       0.03571429       0.00000000 </v>
   <v>       0.46428571       0.03571429       0.00000000 </v>
   <v>       0.07142857       0.07142857       0.00000000 </v>
   <v>       0.10714286       0.07142857       0.00000000 </v>
   <v>       0.14285714       0.07142857       0.00000000 </v>
   <v>       0.17857143       0.07142857       0.00000000 </v>
   <v>       0.21428571       0.07142857       0.00000000 </v>
   <v>       0.25000000       0.07142857       0.00000000 </v>
   <v>       0.28571429       0.07142857       0.00000000 </v>
   <v>       0.32142857       0.07142857       0.00000000 </v>
   <v>       0.35714286       0.07142857       0.00000000 </v>
   <v>       0.39285714       0.07142857       0.00000000 </v>
   <v>       0.42857143       0.07142857       0.00000000 </v>
   <v>       0.46428571       0.07142857       0.00000000 </v>
   <v>       0.10714286       0.10714286       0.00000000 </v>
   <v>       0.14285714       0.10714286       0.00000000 </v>
   <v>       0.17857143       0.10714286       0.00000000 </v>
   <v>       0.21428571       0.10714286       0.00000000 </v>
   <v>       0.25000000       0.10714286       0.00000000 </v>
   <v>       0.28571429       0.10714286       0.00000000 </v>
   <v>       0.32142857       0.10714286       0.00000000 </v>
   <v>       0.35714286       0.10714286       0.00000000 </v>
   <v>       0.39285714       0.10714286       0.00000000 </v>
   <v>       0.42857143       0.10714286       0.00000000 </v>
   <v>       0.14285714       0.14285714       0.00000000 </v>
   <v>       0.17857143       0.14285714       0.00000000 </v>
   <v>       0.21428571       0.14285714       0.00000000 </v>
   <v>       0.25000000       0.14285714       0.00000000 </v>
   <v>       0.28571429       0.14285714       0.00000000 </v>
   <v>       0.32142857       0.14285714       0.00000000 </v>
   <v>       0.35714286       0.14285714       0.00000000 </v>
   <v>       0.39285714       0.14285714       0.00000000 </v>
   <v>       0.42857143       0.14285714       0.00000000 </v>
   <v>       0.17857143       0.17857143       0.00000000 </v>
   <v>       0.21428571       0.17857143       0.00000000 </v>
   <v>       0.25000000       0.17857143       0.00000000 </v>
   <v>       0.28571429       0.17857143       0.00000000 </v>
   <v>       0.32142857       0.17857143       0.00000000 </v>
   <v>       0.35714286       0.17857143       0.00000000 </v>
   <v>       0.39285714       0.17857143       0.00000000 </v>
   <v>       0.21428571       0.21428571       0.00000000 </v>
   <v>       0.25000000       0.21428571       0.00000000 </v>
   <v>       0.28571429       0.21428571       0.00000000 </v>
   <v>       0.32142857       0.21428571       0.00000000 </v>
   <v>       0.35714286       0.21428571       0.00000000 </v>
   <v>       0.39285714       0.21428571       0.00000000 </v>
   <v>       0.25000000       0.25000000       0.00000000 </v>
   <v>       0.28571429       0.25000000       0.00000000 </v>
   <v>       0.32142857       0.25000000       0.00000000 </v>
   <v>       0.35714286       0.25000000       0.00000000 </v>
   <v>       0.28571429       0.28571429       0.00000000 </v>
   <v>       0.32142857       0.28571429       0.00000000 </v>
   <v>       0.35714286       0.28571429       0.00000000 </v>
   <v>       0.32142857       0.32142857       0.00000000 </v>
   <v>       0.00000000       0.00000000       0.20000000 </v>
   <v>       0.03571429       0.00000000       0.20000000 </v>
   <v>       0.07142857       0.00000000       0.20000000 </v>
   <v>       0.10714286       0.00000000       0.20000000 </v>
   <v>       0.14285714       0.00000000       0.20000000 </v>
   <v>       0.17857143       0.00000000       0.20000000 </v>
   <v>       0.21428571       0.00000000       0.20000000 </v>
   <v>       0.25000000       0.00000000       0.20000000 </v>
   <v>       0.28571429       0.00000000       0.20000000 </v>
   <v>       0.32142857       0.00000000       0.20000000 </v>
   <v>       0.35714286       0.00000000       0.20000000 </v>
   <v>       0.39285714       0.00000000       0.20000000 </v>
   <v>       0.42857143       0.00000000       0.20000000 </v>
   <v>       0.46428571       0.00000000       0.20000000 </v>
   <v>       0.50000000       0.00000000       0.20000000 </v>
   <v>      -0.46428571       0.00000000       0.20000000 </v>
   <v>      -0.42857143       0.00000000       0.20000000 </v>
   <v>      -0.39285714       0.00000000       0.20000000 </v>
   <v>      -0.35714286       0.00000000       0.20000000 </v>
   <v>      -0.32142857       0.00000000       0.20000000 </v>
   <v>      -0.28571429       0.00000000       0.20000000 </v>
   <v>      -0.25000000       0.00000000       0.20000000 </v>
   <v>      -0.21428571       0.00000000       0.20000000 </v>
   <v>      -0.17857143       0.00000000       0.20000000 </v>
   <v>      -0.14285714       0.00000000       0.20000000 </v>
   <v>      -0.10714286       0.00000000       0.20000000 </v>
   <v>      -0.07142857       0.00000000       0.20000000 </v>
   <v>      -0.03571429       0.00000000       0.20000000 </v>
   <v>       0.03571429       0.03571429       0.20000000 </v>
   <v>       0.07142857       0.03571429       0.20000000 </v>
   <v>       0.10714286       0.03571429       0.20000000 </v>
   <v>       0.14285714       0.03571429       0.20000000 </v>
   <v>       0.17857143       0.03571429       0.20000000 </v>
   <v>       0.21428571       0.03571429       0.20000000 </v>
   <v>       0.25000000       0.03571429       0.20000000 </v>
   <v>       0.28571429       0.03571429       0.20000000 </v>
   <v>       0.32142857       0.03571429       0.20000000 </v>
   <v>       0.35714286       0.03571429       0.20000000 </v>
   <v>       0.39285714       0.03571429       0.20000000 </v>
   <v>       0.42857143       0.03571429       0.20000000 </v>
   <v>       0.46428571       0.03571429       0.20000000 </v>
   <v>       0.50000000       0.03571429       0.20000000 </v>
   <v>      -0.46428571       0.03571429       0.20000000 </v>
   <v>      -0.42857143       0.03571429       0.20000000 </v>
   <v>      -0.39285714       0.03571429       0.20000000 </v>
   <v>      -0.35714286       0.03571429       0.20000000 </v>
   <v>      -0.32142857       0.03571429       0.20000000 </v>
   <v>      -0.28571429       0.03571429       0.20000000 </v>
   <v>      -0.25000000       0.03571429       0.20000000 </v>
   <v>      -0.21428571       0.03571429       0.20000000 </v>
   <v>      -0.17857143       0.03571429       0.20000000 </v>
   <v>      -0.14285714       0.03571429       0.20000000 </v>
   <v>      -0.10714286       0.03571429       0.20000000 </v>
   <v>       0.07142857       0.07142857       0.20000000 </v>
   <v>       0.10714286       0.07142857       0.20000000 </v>
   <v>       0.14285714       0.07142857       0.20000000 </v>
   <v>       0.17857143       0.07142857       0.20000000 </v>
   <v>       0.21428571       0.07142857       0.20000000 </v>
   <v>       0.25000000       0.07142857       0.20000000 </v>
   <v>       0.28571429       0.07142857       0.20000000 </v>
   <v>       0.32142857       0.07142857       0.20000000 </v>
   <v>       0.35714286       0.07142857       0.20000000 </v>
   <v>       0.39285714       0.07142857       0.20000000 </v>
   <v>       0.42857143       0.07142857       0.20000000 </v>
   <v>       0.46428571       0.07142857       0.20000000 </v>
   <v>       0.50000000       0.07142857       0.20000000 </v>
   <v>      -0.46428571       0.07142857       0.20000000 </v>
   <v>      -0.42857143       0.07142857       0.20000000 </v>
   <v>      -0.39285714       0.07142857       0.20000000 </v>
   <v>      -0.35714286       0.07142857       0.20000000 </v>
   <v>      -0.32142857       0.07142857       0.20000000 </v>
   <v>      -0.28571429       0.07142857       0.20000000 </v>
   <v>      -0.25000000       0.07142857       0.20000000 </v>
   <v>      -0.21428571       0.07142857       0.20000000 </v>
   <v>      -0.17857143       0.07142857       0.20000000 </v>
   <v>       0.10714286       0.10714286       0.20000000 </v>
   <v>       0.14285714       0.10714286       0.20000000 </v>
   <v>       0.17857143       0.10714286       0.20000000 </v>
   <v>       0.21428571       0.10714286       0.20000000 </v>
   <v>       0.25000000       0.10714286       0.20000000 </v>
   <v>       0.28571429       0.10714286       0.20000000 </v>
   <v>       0.32142857       0.10714286       0.20000000 </v>
   <v>       0.35714286       0.10714286       0.20000000 </v>
   <v>       0.39285714       0.10714286       0.20000000 </v>
   <v>       0.42857143       0.10714286       0.20000000 </v>
   <v>       0.46428571       0.10714286       0.20000000 </v>
   <v>       0.50000000       0.10714286       0.20000000 </v>
   <v>      -0.46428571       0.10714286       0.20000000 </v>
   <v>      -0.42857143       0.10714286       0.20000000 </v>
   <v>      -0.39285714       0.10714286       0.20000000 </v>
   <v>      -0.35714286       0.10714286       0.20000000 </v>
   <v>      -0.32142857       0.10714286       0.20000000 </v>
   <v>      -0.28571429       0.10714286       0.20000000 </v>
   <v>      -0.25000000       0.10714286       0.20000000 </v>
   <v>       0.14285714       0.14285714       0.20000000 </v>
   <v>       0.17857143       0.14285714       0.20000000 </v>
   <v>       0.21428571       0.14285714       0.20000000 </v>
   <v>       0.25000000       0.14285714       0.20000000 </v>
   <v>       0.28571429       0.14285714       0.20000000 </v>
   <v>       0.32142857       0.14285714       0.20000000 </v>
   <v>       0.35714286       0.14285714       0.20000000 </v>
   <v>       0.39285714       0.14285714       0.20000000 </v>
   <v>       0.42857143       0.14285714       0.20000000 </v>
   <v>       0.46428571       0.14285714       0.20000000 </v>
   <v>       0.50000000       0.14285714       0.20000000 </v>
   <v>      -0.46428571       0.14285714       0.20000000 </v>
   <v>      -0.42857143       0.14285714       0.20000000 </v>
   <v>      -0.39285714       0.14285714       0.20000000 </v>
   <v>      -0.35714286       0.14285714       0.20000000 </v>
   <v>      -0.32142857       0.14285714       0.20000000 </v>
   <v>       0.17857143       0.17857143       0.20000000 </v>
   <v>       0.21428571       0.17857143       0.20000000 </v>
   <v>       0.25000000       0.17857143       0.20000000 </v>
   <v>       0.28571429       0.17857143       0.20000000 </v>
   <v>       0.32142857       0.17857143       0.20000000 </v>
   <v>       0.35714286       0.17857143       0.20000000 </v>
   <v>       0.39285714       0.17857143       0.20000000 </v>
   <v>       0.42857143       0.17857143       0.20000000 </v>
   <v>       0.46428571       0.17857143       0.20000000 </v>
   <v>       0.50000000       0.17857143       0.20000000 </v>
   <v>      -0.46428571       0.17857143       0.20000000 </v>
   <v>      -0.42857143       0.17857143       0.20000000 </v>
   <v>      -0.39285714       0.17857143       0.20000000 </v>
   <v>       0.21428571       0.21428571       0.20000000 </v>
   <v>       0.25000000       0.21428571       0.20000000 </v>
   <v>       0.28571429       0.21428571       0.20000000 </v>
   <v>       0.32142857       0.21428571       0.20000000 </v>
   <v>       0.35714286       0.21428571       0.20000000 </v>
   <v>       0.39285714       0.21428571       0.20000000 </v>
   <v>       0.42857143       0.21428571       0.20000000 </v>
   <v>       0.46428571       0.21428571       0.20000000 </v>
   <v>       0.50000000       0.21428571       0.20000000 </v>
   <v>      -0.46428571       0.21428571       0.20000000 </v>
   <v>       0.25000000       0.25000000       0.20000000 </v>
   <v>       0.28571429       0.25000000       0.20000000 </v>
   <v>       0.32142857       0.25000000       0.20000000 </v>
   <v>       0.35714286       0.25000000       0.20000000 </v>
   <v>       0.39285714       0.25000000       0.20000000 </v>
   <v>       0.42857143       0.25000000       0.20000000 </v>
   <v>       0.46428571       0.25000000       0.20000000 </v>
   <v>       0.28571429       0.28571429       0.20000000 </v>
   <v>       0.32142857       0.28571429       0.20000000 </v>
   <v>       0.35714286       0.28571429       0.20000000 </v>
   <v>       0.39285714       0.28571429       0.20000000 </v>
   <v>       0.32142857       0.32142857       0.20000000 </v>
   <v>       0.00000000       0.00000000       0.40000000 </v>
   <v>       0.03571429       0.00000000       0.40000000 </v>
   <v>       0.07142857       0.00000000       0.40000000 </v>
   <v>       0.10714286       0.00000000       0.40000000 </v>
   <v>       0.14285714       0.00000000       0.40000000 </v>
   <v>       0.17857143       0.00000000       0.40000000 </v>
   <v>       0.21428571       0.00000000       0.40000000 </v>
   <v>       0.25000000       0.00000000       0.40000000 </v>
   <v>       0.28571429       0.00000000       0.40000000 </v>
   <v>       0.32142857       0.00000000       0.40000000 </v>
   <v>       0.35714286       0.00000000       0.40000000 </v>
   <v>       0.39285714       0.00000000       0.40000000 </v>
   <v>       0.42857143       0.00000000       0.40000000 </v>
   <v>       0.46428571       0.00000000       0.40000000 </v>
   <v>       0.50000000       0.00000000       0.40000000 </v>
   <v>      -0.46428571       0.00000000       0.40000000 </v>
   <v>      -0.42857143       0.00000000       0.40000000 </v>
   <v>      -0.39285714       0.00000000       0.40000000 </v>
   <v>      -0.35714286       0.00000000       0.40000000 </v>
   <v>      -0.32142857       0.00000000       0.40000000 </v>
   <v>      -0.28571429       0.00000000       0.40000000 </v>
   <v>      -0.25000000       0.00000000       0.40000000 </v>
   <v>      -0.21428571       0.00000000       0.40000000 </v>
   <v>      -0.17857143       0.00000000       0.40000000 </v>
   <v>      -0.14285714       0.00000000       0.40000000 </v>
   <v>      -0.10714286       0.00000000       0.40000000 </v>
   <v>      -0.07142857       0.00000000       0.40000000 </v>
   <v>      -0.03571429       0.00000000       0.40000000 </v>
   <v>       0.03571429       0.03571429       0.40000000 </v>
   <v>       0.07142857       0.03571429       0.40000000 </v>
   <v>       0.10714286       0.03571429       0.40000000 </v>
   <v>       0.14285714       0.03571429       0.40000000 </v>
   <v>       0.17857143       0.03571429       0.40000000 </v>
   <v>       0.21428571       0.03571429       0.40000000 </v>
   <v>       0.25000000       0.03571429       0.40000000 </v>
   <v>       0.28571429       0.03571429       0.40000000 </v>
   <v>       0.32142857       0.03571429       0.40000000 </v>
   <v>       0.35714286       0.03571429       0.40000000 </v>
   <v>       0.39285714       0.03571429       0.40000000 </v>
   <v>       0.42857143       0.03571429       0.40000000 </v>
   <v>       0.46428571       0.03571429       0.40000000 </v>
   <v>       0.50000000       0.03571429       0.40000000 </v>
   <v>      -0.46428571       0.03571429       0.40000000 </v>
   <v>      -0.42857143       0.03571429       0.40000000 </v>
   <v>      -0.39285714       0.03571429       0.40000000 </v>
   <v>      -0.35714286       0.03571429       0.40000000 </v>
   <v>      -0.32142857       0.03571429       0.40000000 </v>
   <v>      -0.28571429       0.03571429       0.40000000 </v>
   <v>      -0.25000000       0.03571429       0.40000000 </v>
   <v>      -0.21428571       0.03571429       0.40000000 </v>
   <v>      -0.17857143       0.03571429       0.40000000 </v>
   <v>      -0.14285714       0.03571429       0.40000000 </v>
   <v>      -0.10714286       0.03571429       0.40000000 </v>
   <v>       0.07142857       0.07142857       0.40000000 </v>
   <v>       0.10714286       0.07142857       0.40000000 </v>
   <v>       0.14285714       0.07142857       0.40000000 </v>
   <v>       0.17857143       0.07142857       0.40000000 </v>
   <v>       0.21428571       0.07142857       0.40000000 </v>
   <v>       0.25000000       0.07142857       0.40000000 </v>
   <v>       0.28571429       0.07142857       0.40000000 </v>
   <v>       0.32142857       0.07142857       0.40000000 </v>
   <v>       0.35714286       0.07142857       0.40000000 </v>
   <v>       0.39285714       0.07142857       0.40000000 </v>
   <v>       0.42857143       0.07142857       0.40000000 </v>
   <v>       0.46428571       0.07142857       0.40000000 </v>
   <v>       0.50000000       0.07142857       0.40000000 </v>
   <v>      -0.46428571       0.07142857       0.40000000 </v>
   <v>      -0.42857143       0.07142857       0.40000000 </v>
   <v>      -0.39285714       0.07142857       0.40000000 </v>
   <v>      -0.35714286       0.07142857       0.40000000 </v>
   <v>      -0.32142857       0.07142857       0.40000000 </v>
   <v>      -0.28571429       0.07142857       0.40000000 </v>
   <v>      -0.25000000       0.07142857       0.40000000 </v>
   <v>      -0.21428571       0.07142857       0.40000000 </v>
   <v>      -0.17857143       0.07142857       0.40000000 </v>
   <v>       0.10714286       0.10714286       0.40000000 </v>
   <v>       0.14285714       0.10714286       0.40000000 </v>
   <v>       0.17857143       0.10714286       0.40000000 </v>
   <v>       0.21428571       0.10714286       0.40000000 </v>
   <v>       0.25000000       0.10714286       0.40000000 </v>
   <v>       0.28571429       0.10714286       0.40000000 </v>
   <v>       0.32142857       0.10714286       0.40000000 </v>
   <v>       0.35714286       0.10714286       0.40000000 </v>
   <v>       0.39285714       0.10714286       0.40000000 </v>
   <v>       0.42857143       0.10714286       0.40000000 </v>
   <v>       0.46428571       0.10714286       0.40000000 </v>
   <v>       0.50000000       0.10714286       0.40000000 </v>
   <v>      -0.46428571       0.10714286       0.40000000 </v>
   <v>      -0.42857143       0.10714286       0.40000000 </v>
   <v>      -0.39285714       0.10714286       0.40000000 </v>
   <v>      -0.35714286       0.10714286       0.40000000 </v>
   <v>      -0.32142857       0.10714286       0.40000000 </v>
   <v>      -0.28571429       0.10714286       0.40000000 </v>
   <v>      -0.25000000       0.10714286       0.40000000 </v>
   <v>       0.14285714       0.14285714       0.40000000 </v>
   <v>       0.17857143       0.14285714       0.40000000 </v>
   <v>       0.21428571       0.14285714       0.40000000 </v>
   <v>       0.25000000       0.14285714       0.40000000 </v>
   <v>       0.28571429       0.14285714       0.40000000 </v>
   <v>       0.32142857       0.14285714       0.40000000 </v>
   <v>       0.35714286       0.14285714       0.40000000 </v>
   <v>       0.39285714       0.14285714       0.40000000 </v>
   <v>       0.42857143       0.14285714       0.40000000 </v>
   <v>       0.46428571       0.14285714       0.40000000 </v>
   <v>       0.50000000       0.14285714       0.40000000 </v>
   <v>      -0.46428571       0.14285714       0.40000000 </v>
   <v>      -0.42857143       0.14285714       0.40000000 </v>
   <v>      -0.39285714       0.14285714       0.40000000 </v>
   <v>      -0.35714286       0.14285714       0.40000000 </v>
   <v>      -0.32142857       0.14285714       0.40000000 </v>
   <v>       0.17857143       0.17857143       0.40000000 </v>
   <v>       0.21428571       0.17857143       0.40000000 </v>
   <v>       0.25000000       0.17857143       0.40000000 </v>
   <v>       0.28571429       0.17857143       0.40000000 </v>
   <v>       0.32142857       0.17857143       0.40000000 </v>
   <v>       0.35714286       0.17857143       0.40000000 </v>
   <v>       0.39285714       0.17857143       0.40000000 </v>
   <v>       0.42857143       0.17857143       0.40000000 </v>
   <v>       0.46428571       0.17857143       0.40000000 </v>
   <v>       0.50000000       0.17857143       0.40000000 </v>
   <v>      -0.46428571       0.17857143       0.40000000 </v>
   <v>      -0.42857143       0.17857143       0.40000000 </v>
   <v>      -0.39285714       0.17857143       0.40000000 </v>
   <v>       0.21428571       0.21428571       0.40000000 </v>
   <v>       0.25000000       0.21428571       0.40000000 </v>
   <v>       0.28571429       0.21428571       0.40000000 </v>
   <v>       0.32142857       0.21428571       0.40000000 </v>
   <v>       0.35714286       0.21428571       0.40000000 </v>
   <v>       0.39285714       0.21428571       0.40000000 </v>
   <v>       0.42857143       0.21428571       0.40000000 </v>
   <v>       0.46428571       0.21428571       0.40000000 </v>
   <v>       0.50000000       0.21428571       0.40000000 </v>
   <v>      -0.46428571       0.21428571       0.40000000 </v>
   <v>       0.25000000       0.25000000       0.40000000 </v>
   <v>       0.28571429       0.25000000       0.40000000 </v>
   <v>       0.32142857       0.25000000       0.40000000 </v>
   <v>       0.35714286       0.25000000       0.40000000 </v>
   <v>       0.39285714       0.25000000       0.40000000 </v>
   <v>       0.42857143       0.25000000       0.40000000 </v>
   <v>       0.46428571       0.25000000       0.40000000 </v>
   <v>       0.28571429       0.28571429       0.40000000 </v>
   <v>       0.32142857       0.28571429       0.40000000 </v>
   <v>       0.35714286       0.28571429       0.40000000 </v>
   <v>       0.39285714       0.28571429       0.40000000 </v>
   <v>       0.32142857       0.32142857       0.40000000 </v>
  </varray>
  <varray name="weights" >
   <v>       0.00025510 </v>
   <v>       0.00153061 </v>
   <v>       0.00153061 </v>
   <v>       0.00153061 </v>
   <v>       0.00153061 </v>
   <v>       0.00153061 </v>
   <v>       0.00153061 </v>
   <v>       0.00153061 </v>
   <v>       0.00153061 </v>
   <v>       0.00153061 </v>
   <v>       0.00153061 </v>
   <v>       0.00153061 </v>
   <v>       0.00153061 </v>
   <v>       0.00153061 </v>
   <v>       0.00076531 </v>
   <v>       0.00153061 </v>
   <v>       0.00306122 </v>
   <v>       0.00306122 </v>
   <v>       0.00306122 </v>
   <v>       0.00306122 </v>
   <v>       0.00306122 </v>
   <v>       0.00306122 </v>
   <v>       0.00306122 </v>
   <v>       0.00306122 </v>
   <v>       0.00306122 </v>
   <v>       0.00306122 </v>
   <v>       0.00306122 </v>
   <v>       0.00306122 </v>
   <v>       0.00153061 </v>
   <v>       0.00306122 </v>
   <v>       0.00306122 </v>
   <v>       0.00306122 </v>
   <v>       0.00306122 </v>
   <v>       0.00306122 </v>
   <v>       0.00306122 </v>
   <v>       0.00306122 </v>
   <v>       0.00306122 </v>
   <v>       0.00306122 </v>
   <v>       0.00306122 </v>
   <v>       0.00153061 </v>
   <v>       0.00153061 </v>
   <v>       0.00306122 </v>
   <v>       0.00306122 </v>
   <v>       0.00306122 </v>
   <v>       0.00306122 </v>
   <v>       0.00306122 </v>
   <v>       0.00306122 </v>
   <v>       0.00306122 </v>
   <v>       0.00306122 </v>
   <v>       0.00306122 </v>
   <v>       0.00153061 </v>
   <v>       0.00306122 </v>
   <v>       0.00306122 </v>
   <v>       0.00306122 </v>
   <v>       0.00306122 </v>
   <v>       0.00306122 </v>
   <v>       0.00306122 </v>
   <v>       0.00306122 </v>
   <v>       0.00153061 </v>
   <v>       0.00153061 </v>
   <v>       0.00306122 </v>
   <v>       0.00306122 </v>
   <v>       0.00306122 </v>
   <v>       0.00306122 </v>
   <v>       0.00306122 </v>
   <v>       0.00306122 </v>
   <v>       0.00153061 </v>
   <v>       0.00306122 </v>
   <v>       0.00306122 </v>
   <v>       0.00306122 </v>
   <v>       0.00306122 </v>
   <v>       0.00153061 </v>
   <v>       0.00153061 </v>
   <v>       0.00306122 </v>
   <v>       0.00306122 </v>
   <v>       0.00306122 </v>
   <v>       0.00153061 </v>
   <v>       0.00306122 </v>
   <v>       0.00153061 </v>
   <v>       0.00153061 </v>
   <v>       0.00051020 </v>
   <v>       0.00153061 </v>
   <v>       0.00153061 </v>
   <v>       0.00153061 </v>
   <v>       0.00153061 </v>
   <v>       0.00153061 </v>
   <v>       0.00153061 </v>
   <v>       0.00153061 </v>
   <v>       0.00153061 </v>
   <v>       0.00153061 </v>
   <v>       0.00153061 </v>
   <v>       0.00153061 </v>
   <v>       0.00153061 </v>
   <v>       0.00153061 </v>
   <v>       0.00153061 </v>
   <v>       0.00153061 </v>
   <v>       0.00153061 </v>
   <v>       0.00153061 </v>
   <v>       0.00153061 </v>
   <v>       0.00153061 </v>
   <v>       0.00153061 </v>
   <v>       0.00153061 </v>
   <v>       0.00153061 </v>
   <v>       0.00153061 </v>
   <v>       0.00153061 </v>
   <v>       0.00153061 </v>
   <v>       0.00153061 </v>
   <v>       0.00153061 </v>
   <v>       0.00306122 </v>
   <v>       0.00306122 </v>
   <v>       0.00306122 </v>
   <v>       0.00306122 </v>
   <v>       0.00306122 </v>
   <v>       0.00306122 </v>
   <v>       0.00306122 </v>
   <v>       0.00306122 </v>
   <v>       0.00306122 </v>
   <v>       0.00306122 </v>
   <v>       0.00306122 </v>
   <v>       0.00306122 </v>
   <v>       0.00306122 </v>
   <v>       0.00306122 </v>
   <v>       0.00306122 </v>
   <v>       0.00306122 </v>
   <v>       0.00306122 </v>
   <v>       0.00306122 </v>
   <v>       0.00306122 </v>
   <v>       0.00306122 </v>
   <v>       0.00306122 </v>
   <v>       0.00306122 </v>
   <v>       0.00306122 </v>
   <v>       0.00306122 </v>
   <v>       0.00306122 </v>
   <v>       0.00306122 </v>
   <v>       0.00306122 </v>
   <v>       0.00306122 </v>
   <v>       0.00306122 </v>
   <v>       0.00306122 </v>
   <v>       0.00306122 </v>
   <v>       0.00306122 </v>
   <v>       0.00306122 </v>
   <v>       0.00306122 </v>
   <v>       0.00306122 </v>
   <v>       0.00306122 </v>
   <v>       0.00306122 </v>
   <v>       0.00306122 </v>
   <v>       0.00306122 </v>
   <v>       0.00306122 </v>
   <v>       0.00306122 </v>
   <v>       0.00306122 </v>
   <v>       0.00306122 </v>
   <v>       0.00306122 </v>
   <v>       0.00306122 </v>
   <v>       0.00306122 </v>
   <v>       0.00306122 </v>
   <v>       0.00306122 </v>
   <v>       0.00306122 </v>
   <v>       0.00306122 </v>
   <v>       0.00306122 </v>
   <v>       0.00306122 </v>
   <v>       0.00306122 </v>
   <v>       0.00306122 </v>
   <v>       0.00306122 </v>
   <v>       0.00306122 </v>
   <v>       0.00306122 </v>
   <v>       0.00306122 </v>
   <v>       0.00306122 </v>
   <v>       0.00306122 </v>
   <v>       0.00306122 </v>
   <v>       0.00306122 </v>
   <v>       0.00306122 </v>
   <v>       0.00306122 </v>
   <v>       0.00306122 </v>
   <v>       0.00306122 </v>
   <v>       0.00306122 </v>
   <v>       0.00306122 </v>
   <v>       0.00306122 </v>
   <v>       0.00306122 </v>
   <v>       0.00306122 </v>
   <v>       0.00306122 </v>
   <v>       0.00306122 </v>
   <v>       0.00306122 </v>
   <v>       0.00306122 </v>
   <v>       0.00306122 </v>
   <v>       0.00306122 </v>
   <v>       0.00306122 </v>
   <v>       0.00306122 </v>
   <v>       0.00306122 </v>
   <v>       0.00306122 </v>
   <v>       0.00306122 </v>
   <v>       0.00306122 </v>
   <v>       0.00306122 </v>
   <v>       0.00306122 </v>
   <v>       0.00306122 </v>
   <v>       0.00306122 </v>
   <v>       0.00306122 </v>
   <v>       0.00306122 </v>
   <v>       0.00306122 </v>
   <v>       0.00306122 </v>
   <v>       0.00306122 </v>
   <v>       0.00306122 </v>
   <v>       0.00306122 </v>
   <v>       0.00306122 </v>
   <v>       0.00306122 </v>
   <v>       0.00306122 </v>
   <v>       0.00306122 </v>
   <v>       0.00306122 </v>
   <v>       0.00306122 </v>
   <v>       0.00306122 </v>
   <v>       0.00306122 </v>
   <v>       0.00306122 </v>
   <v>       0.00306122 </v>
   <v>       0.00306122 </v>
   <v>       0.00306122 </v>
   <v>       0.00306122 </v>
   <v>       0.00306122 </v>
   <v>       0.00306122 </v>
   <v>       0.00306122 </v>
   <v>       0.00306122 </v>
   <v>       0.00306122 </v>
   <v>       0.00306122 </v>
   <v>       0.00306122 </v>
   <v>       0.00306122 </v>
   <v>       0.00306122 </v>
   <v>       0.00306122 </v>
   <v>       0.00051020 </v>
   <v>       0.00153061 </v>
   <v>       0.00153061 </v>
   <v>       0.00153061 </v>
   <v>       0.00153061 </v>
   <v>       0.00153061 </v>
   <v>       0.00153061 </v>
   <v>       0.00153061 </v>
   <v>       0.00153061 </v>
   <v>       0.00153061 </v>
   <v>       0.00153061 </v>
   <v>       0.00153061 </v>
   <v>       0.00153061 </v>
   <v>       0.00153061 </v>
   <v>       0.00153061 </v>
   <v>       0.00153061 </v>
   <v>       0.00153061 </v>
   <v>       0.00153061 </v>
   <v>       0.00153061 </v>
   <v>       0.00153061 </v>
   <v>       0.00153061 </v>
   <v>       0.00153061 </v>
   <v>       0.00153061 </v>
   <v>       0.00153061 </v>
   <v>       0.00153061 </v>
   <v>       0.00153061 </v>
   <v>       0.00153061 </v>
   <v>       0.00153061 </v>
   <v>       0.00306122 </v>
   <v>       0.00306122 </v>
   <v>       0.00306122 </v>
   <v>       0.00306122 </v>
   <v>       0.00306122 </v>
   <v>       0.00306122 </v>
   <v>       0.00306122 </v>
   <v>       0.00306122 </v>
   <v>       0.00306122 </v>
   <v>       0.00306122 </v>
   <v>       0.00306122 </v>
   <v>       0.00306122 </v>
   <v>       0.00306122 </v>
   <v>       0.00306122 </v>
   <v>       0.00306122 </v>
   <v>       0.00306122 </v>
   <v>       0.00306122 </v>
   <v>       0.00306122 </v>
   <v>       0.00306122 </v>
   <v>       0.00306122 </v>
   <v>       0.00306122 </v>
   <v>       0.00306122 </v>
   <v>       0.00306122 </v>
   <v>       0.00306122 </v>
   <v>       0.00306122 </v>
   <v>       0.00306122 </v>
   <v>       0.00306122 </v>
   <v>       0.00306122 </v>
   <v>       0.00306122 </v>
   <v>       0.00306122 </v>
   <v>       0.00306122 </v>
   <v>       0.00306122 </v>
   <v>       0.00306122 </v>
   <v>       0.00306122 </v>
   <v>       0.00306122 </v>
   <v>       0.00306122 </v>
   <v>       0.00306122 </v>
   <v>       0.00306122 </v>
   <v>       0.00306122 </v>
   <v>       0.00306122 </v>
   <v>       0.00306122 </v>
   <v>       0.00306122 </v>
   <v>       0.00306122 </v>
   <v>       0.00306122 </v>
   <v>       0.00306122 </v>
   <v>       0.00306122 </v>
   <v>       0.00306122 </v>
   <v>       0.00306122 </v>
   <v>       0.00306122 </v>
   <v>       0.00306122 </v>
   <v>       0.00306122 </v>
   <v>       0.00306122 </v>
   <v>       0.00306122 </v>
   <v>       0.00306122 </v>
   <v>       0.00306122 </v>
   <v>       0.00306122 </v>
   <v>       0.00306122 </v>
   <v>       0.00306122 </v>
   <v>       0.00306122 </v>
   <v>       0.00306122 </v>
   <v>       0.00306122 </v>
   <v>       0.00306122 </v>
   <v>       0.00306122 </v>
   <v>       0.00306122 </v>
   <v>       0.00306122 </v>
   <v>       0.00306122 </v>
   <v>       0.00306122 </v>
   <v>       0.00306122 </v>
   <v>       0.00306122 </v>
   <v>       0.00306122 </v>
   <v>       0.00306122 </v>
   <v>       0.00306122 </v>
   <v>       0.00306122 </v>
   <v>       0.00306122 </v>
   <v>       0.00306122 </v>
   <v>       0.00306122 </v>
   <v>       0.00306122 </v>
   <v>       0.00306122 </v>
   <v>       0.00306122 </v>
   <v>       0.00306122 </v>
   <v>       0.00306122 </v>
   <v>       0.00306122 </v>
   <v>       0.00306122 </v>
   <v>       0.00306122 </v>
   <v>       0.00306122 </v>
   <v>       0.00306122 </v>
   <v>       0.00306122 </v>
   <v>       0.00306122 </v>
   <v>       0.00306122 </v>
   <v>       0.00306122 </v>
   <v>       0.00306122 </v>
   <v>       0.00306122 </v>
   <v>       0.00306122 </v>
   <v>       0.00306122 </v>
   <v>       0.00306122 </v>
   <v>       0.00306122 </v>
   <v>       0.00306122 </v>
   <v>       0.00306122 </v>
   <v>       0.00306122 </v>
   <v>       0.00306122 </v>
   <v>       0.00306122 </v>
   <v>       0.00306122 </v>
   <v>       0.00306122 </v>
   <v>       0.00306122 </v>
   <v>       0.00306122 </v>
   <v>       0.00306122 </v>
   <v>       0.00306122 </v>
   <v>       0.00306122 </v>
   <v>       0.00306122 </v>
   <v>       0.00306122 </v>
   <v>       0.00306122 </v>
   <v>       0.00306122 </v>
   <v>       0.00306122 </v>
   <v>       0.00306122 </v>
   <v>       0.00306122 </v>
   <v>       0.00306122 </v>
   <v>       0.00306122 </v>
  </varray>
 </kpoints>
 <parameters>
  <separator name="general" >
   <i type="string" name="SYSTEM">unknown system</i>
   <i type="logical" name="LCOMPAT"> F  </i>
  </separator>
  <separator name="electronic" >
   <i type="string" name="PREC">accura</i>
   <i name="ENMAX">    500.00000000</i>
   <i name="ENAUG">    412.49600000</i>
   <i name="EDIFF">      0.00000100</i>
   <i type="int" name="IALGO">    68</i>
   <i type="int" name="IWAVPR">    11</i>
   <i type="int" name="NBANDS">    40</i>
   <i name="NELECT">     66.00000000</i>
   <i type="int" name="TURBO">     0</i>
   <i type="int" name="IRESTART">     0</i>
   <i type="int" name="NREBOOT">     0</i>
   <i type="int" name="NMIN">     0</i>
   <i name="EREF">      0.00000000</i>
   <separator name="electronic smearing" >
    <i type="int" name="ISMEAR">     1</i>
    <i name="SIGMA">      0.30000000</i>
    <i name="KSPACING">      0.50000000</i>
    <i type="logical" name="KGAMMA"> T  </i>
   </separator>
   <separator name="electronic projectors" >
    <i type="logical" name="LREAL"> F  </i>
    <v name="ROPT">      0.00000000      0.00000000</v>
    <i type="int" name="LMAXPAW">  -100</i>
    <i type="int" name="LMAXMIX">     2</i>
    <i type="logical" name="NLSPLINE"> F  </i>
   </separator>
   <separator name="electronic startup" >
    <i type="int" name="ISTART">     0</i>
    <i type="int" name="ICHARG">     2</i>
    <i type="int" name="INIWAV">     1</i>
   </separator>
   <separator name="electronic spin" >
    <i type="int" name="ISPIN">     1</i>
    <i type="logical" name="LNONCOLLINEAR"> F  </i>
    <v name="MAGMOM">      1.00000000      1.00000000      1.00000000      1.00000000      1.00000000      1.00000000</v>
    <i name="NUPDOWN">     -1.00000000</i>
    <i type="logical" name="LSORBIT"> F  </i>
    <v name="SAXIS">      0.00000000      0.00000000      1.00000000</v>
    <i type="logical" name="LSPIRAL"> F  </i>
    <v name="QSPIRAL">      0.00000000      0.00000000      0.00000000</v>
    <i type="logical" name="LZEROZ"> F  </i>
   </separator>
   <separator name="electronic exchange-correlation" >
    <i type="logical" name="LASPH"> F  </i>
    <i type="logical" name="LMETAGGA"> F  </i>
   </separator>
   <separator name="electronic convergence" >
    <i type="int" name="NELM">   100</i>
    <i type="int" name="NELMDL">     0</i>
    <i type="int" name="NELMIN">     4</i>
    <i name="ENINI">    500.00000000</i>
    <separator name="electronic convergence detail" >
     <i type="logical" name="LDIAG"> T  </i>
     <i type="logical" name="LSUBROT"> F  </i>
     <i name="WEIMIN">      0.00100000</i>
     <i name="EBREAK">      0.00000001</i>
     <i name="DEPER">      0.30000000</i>
     <i type="int" name="NRMM">     4</i>
     <i name="TIME">      0.40000000</i>
    </separator>
   </separator>
   <separator name="electronic mixer" >
    <i name="AMIX">      0.40000000</i>
    <i name="BMIX">      1.00000000</i>
    <i name="AMIN">      0.10000000</i>
    <i name="AMIX_MAG">      1.60000000</i>
    <i name="BMIX_MAG">      1.00000000</i>
    <separator name="electronic mixer details" >
     <i type="int" name="IMIX">     4</i>
     <i type="int" name="MAXMIX">   -45</i>
     <i name="WC">    100.00000000</i>
     <i type="int" name="INIMIX">     1</i>
     <i type="int" name="MIXPRE">     1</i>
     <i type="int" name="MREMOVE">     5</i>
    </separator>
   </separator>
   <separator name="electronic dipolcorrection" >
    <i type="logical" name="LDIPOL"> F  </i>
    <i type="logical" name="LMONO"> F  </i>
    <i type="int" name="IDIPOL">     0</i>
    <i name="EPSILON">      1.00000000</i>
    <v name="DIPOL">   -100.00000000   -100.00000000   -100.00000000</v>
    <i name="EFIELD">      0.00000000</i>
   </separator>
  </separator>
  <separator name="grids" >
   <i type="int" name="NGX">    24</i>
   <i type="int" name="NGY">    24</i>
   <i type="int" name="NGZ">   108</i>
   <i type="int" name="NGXF">    48</i>
   <i type="int" name="NGYF">    48</i>
   <i type="int" name="NGZF">   216</i>
   <i type="logical" name="ADDGRID"> T  </i>
  </separator>
  <separator name="ionic" >
   <i type="int" name="NSW">    30</i>
   <i type="int" name="IBRION">     2</i>
   <i type="int" name="ISIF">     3</i>
   <i name="PSTRESS">      0.00000000</i>
   <i name="EDIFFG">     -0.02000000</i>
   <i type="int" name="NFREE">     1</i>
   <i name="POTIM">      0.50000000</i>
   <i name="SMASS">     -3.00000000</i>
   <i name="SCALEE">      1.00000000</i>
  </separator>
  <separator name="ionic md" >
   <i name="TEBEG">      0.00010000</i>
   <i name="TEEND">      0.00010000</i>
   <i type="int" name="NBLOCK">     1</i>
   <i type="int" name="KBLOCK">    30</i>
   <i type="int" name="NPACO">   256</i>
   <i name="APACO">     16.00000000</i>
  </separator>
  <separator name="symmetry" >
   <i type="int" name="ISYM">     2</i>
   <i name="SYMPREC">      0.00001000</i>
  </separator>
  <separator name="dos" >
   <i type="logical" name="LORBIT"> F  </i>
   <v name="RWIGS">     -1.00000000     -1.00000000</v>
   <i type="int" name="NEDOS">   301</i>
   <i name="EMIN">     10.00000000</i>
   <i name="EMAX">    -10.00000000</i>
   <i name="EFERMI">      0.00000000</i>
  </separator>
  <separator name="writing" >
   <i type="int" name="NWRITE">     2</i>
   <i type="logical" name="LWAVE"> F  </i>
   <i type="logical" name="LCHARG"> F  </i>
   <i type="logical" name="LPARD"> F  </i>
   <i type="logical" name="LVTOT"> F  </i>
   <i type="logical" name="LVHAR"> F  </i>
   <i type="logical" name="LELF"> F  </i>
   <i type="logical" name="LOPTICS"> F  </i>
   <v name="STM">      0.00000000      0.00000000      0.00000000      0.00000000      0.00000000      0.00000000      0.00000000</v>
  </separator>
  <separator name="performance" >
   <i type="int" name="NPAR">     4</i>
   <i type="int" name="NSIM">     4</i>
   <i type="int" name="NBLK">    -1</i>
   <i type="logical" name="LPLANE"> T  </i>
   <i type="logical" name="LSCALAPACK"> T  </i>
   <i type="logical" name="LSCAAWARE"> F  </i>
   <i type="logical" name="LSCALU"> F  </i>
   <i type="logical" name="LASYNC"> F  </i>
   <i type="logical" name="LORBITALREAL"> F  </i>
  </separator>
  <separator name="miscellaneous" >
   <i type="int" name="IDIOT">     3</i>
   <i type="logical" name="LMUSIC"> F  </i>
   <v name="POMASS">    107.86800000    196.96600000</v>
   <v name="DARWINR">      0.00000000      0.00000000</v>
   <v name="DARWINV">      1.00000000      1.00000000</v>
   <i type="logical" name="LCORR"> T  </i>
  </separator>
  <i type="logical" name="GGA_COMPAT"> T  </i>
  <i type="logical" name="LBERRY"> F  </i>
  <i type="int" name="ICORELEVEL">     0</i>
  <i type="logical" name="LDAU"> F  </i>
  <i type="int" name="I_CONSTRAINED_M">     0</i>
  <separator name="electronic exchange-correlation" >
   <i type="string" name="GGA">--</i>
   <i type="int" name="VOSKOWN">     0</i>
   <i type="logical" name="LHFCALC"> F  </i>
   <i type="string" name="PRECFOCK"></i>
   <i type="logical" name="LSYMGRAD"> F  </i>
   <i type="logical" name="LHFONE"> F  </i>
   <i type="logical" name="LRHFCALC"> F  </i>
   <i type="logical" name="LTHOMAS"> F  </i>
   <i type="logical" name="LMODELHF"> F  </i>
   <i name="ENCUT4O">     -1.00000000</i>
   <i type="int" name="EXXOEP">     0</i>
   <i type="int" name="FOURORBIT">     0</i>
   <i name="AEXX">      0.00000000</i>
   <i name="HFALPHA">      0.00000000</i>
   <i name="MCALPHA">      0.00000000</i>
   <i name="ALDAX">      1.00000000</i>
   <i name="AGGAX">      1.00000000</i>
   <i name="ALDAC">      1.00000000</i>
   <i name="AGGAC">      1.00000000</i>
   <i type="int" name="NKREDX">     1</i>
   <i type="int" name="NKREDY">     1</i>
   <i type="int" name="NKREDZ">     1</i>
   <i type="logical" name="SHIFTRED"> F  </i>
   <i type="logical" name="ODDONLY"> F  </i>
   <i type="logical" name="EVENONLY"> F  </i>
   <i type="int" name="LMAXFOCK">     0</i>
   <i type="int" name="NMAXFOCKAE">     0</i>
   <i type="logical" name="LFOCKAEDFT"> F  </i>
   <i name="HFSCREEN">      0.00000000</i>
   <i name="HFSCREENC">      0.00000000</i>
   <i type="int" name="NBANDSGWLOW">     0</i>
  </separator>
  <separator name="vdW DFT" >
   <i type="logical" name="LUSE_VDW"> F  </i>
   <i name="Zab_VDW">     -0.84910000</i>
   <i name="PARAM1">      0.12340000</i>
   <i name="PARAM2">      1.00000000</i>
   <i name="PARAM3">      0.00000000</i>
  </separator>
  <separator name="model GW" >
   <i type="int" name="MODEL_GW">     0</i>
   <i name="MODEL_EPS0">     10.68194605</i>
   <i name="MODEL_ALPHA">      1.00000000</i>
  </separator>
  <separator name="linear response parameters" >
   <i type="logical" name="LEPSILON"> F  </i>
   <i type="logical" name="LRPA"> F  </i>
   <i type="logical" name="LNABLA"> F  </i>
   <i type="logical" name="LVEL"> F  </i>
   <i type="int" name="KINTER">     0</i>
   <i name="CSHIFT">      0.10000000</i>
   <i name="OMEGAMAX">     -1.00000000</i>
   <i name="DEG_THRESHOLD">      0.00200000</i>
  </separator>
  <separator name="orbital magnetization" >
   <i type="logical" name="NUCIND"> F  </i>
   <v name="MAGPOS">      0.00000000      0.00000000      0.00000000</v>
   <i type="logical" name="LNICSALL"> T  </i>
   <i type="logical" name="ORBITALMAG"> F  </i>
   <i type="logical" name="LMAGBLOCH"> F  </i>
   <i type="logical" name="LCHIMAG"> F  </i>
   <i type="logical" name="LGAUGE"> T  </i>
   <i type="int" name="MAGATOM">     0</i>
   <v name="MAGDIPOL">      0.00000000      0.00000000      0.00000000</v>
   <v name="AVECCONST">      0.00000000      0.00000000      0.00000000</v>
  </separator>
  <separator name="response functions" >
   <i type="logical" name="LADDER"> F  </i>
   <i type="logical" name="LFXC"> F  </i>
   <i type="logical" name="LHARTREE"> T  </i>
   <i type="int" name="IBSE">     0</i>
   <i type="logical" name="LTCTE"> F  </i>
   <i type="logical" name="LTETE"> F  </i>
   <i type="logical" name="LTRIPLET"> F  </i>
   <i type="logical" name="LFXCEPS"> F  </i>
   <i type="logical" name="LFXHEG"> F  </i>
   <i type="logical" name="L2ORDER"> F  </i>
   <i type="logical" name="LUSEW"> F  </i>
   <i name="ENCUTGW">     -2.00000000</i>
   <i name="ENCUTGWSOFT">     -2.00000000</i>
   <i name="ENCUTLF">     -1.00000000</i>
   <i type="int" name="LMAXMP2">    -1</i>
   <i name="SCISSOR">      0.00000000</i>
   <i type="int" name="NOMEGA">     0</i>
   <i type="int" name="NOMEGAR">     0</i>
   <i type="int" name="NBANDSGW">    -1</i>
   <i type="int" name="NBANDSO">    -1</i>
   <i type="int" name="NBANDSV">    -1</i>
   <i type="int" name="NELM">   100</i>
   <i type="int" name="DIM">     3</i>
   <i type="int" name="ANTIRES">     0</i>
   <i name="OMEGAMAX">    -30.00000000</i>
   <i name="OMEGAMIN">    -30.00000000</i>
   <i name="OMEGATL">   -200.00000000</i>
   <i type="int" name="OMEGAGRID">     0</i>
   <i name="CSHIFT">     -0.10000000</i>
   <i type="logical" name="SELFENERGY"> F  </i>
   <i type="logical" name="LSPECTRAL"> F  </i>
   <i type="logical" name="ODDONLYGW"> F  </i>
   <i type="logical" name="EVENONLYGW"> F  </i>
   <i type="int" name="NKREDLFX">     1</i>
   <i type="int" name="NKREDLFY">     1</i>
   <i type="int" name="NKREDLFZ">     1</i>
   <i type="int" name="MAXMEM">  1800</i>
   <i type="int" name="TELESCOPE">     0</i>
   <i type="int" name="TAUPAR">     1</i>
  </separator>
  <separator name="External order field" >
   <i name="OFIELD_KAPPA">      0.00000000</i>
   <v name="OFIELD_K">      0.00000000      0.00000000      0.00000000</v>
   <i name="OFIELD_Q6_NEAR">      0.00000000</i>
   <i name="OFIELD_Q6_FAR">      0.00000000</i>
   <i name="OFIELD_A">      0.00000000</i>
  </separator>
 </parameters>
 <atominfo>
  <atoms>       6 </atoms>
  <types>       2 </types>
  <array name="atoms" >
   <dimension dim="1">ion</dimension>
   <field type="string">element</field>
   <field type="int">atomtype</field>
   <set>
    <rc><c>Ag</c><c>   1</c></rc>
    <rc><c>Ag</c><c>   1</c></rc>
    <rc><c>Ag</c><c>   1</c></rc>
    <rc><c>Ag</c><c>   1</c></rc>
    <rc><c>Au</c><c>   2</c></rc>
    <rc><c>Au</c><c>   2</c></rc>
   </set>
  </array>
  <array name="atomtypes" >
   <dimension dim="1">type</dimension>
   <field type="int">atomspertype</field>
   <field type="string">element</field>
   <field>mass</field>
   <field>valence</field>
   <field type="string">pseudopotential</field>
   <set>
    <rc><c>   4</c><c>Ag</c><c>    107.86800000</c><c>     11.00000000</c><c>  PAW_PBE Ag 02Apr2005                  </c></rc>
    <rc><c>   2</c><c>Au</c><c>    196.96600000</c><c>     11.00000000</c><c>  PAW_PBE Au 04Oct2007                  </c></rc>
   </set>
  </array>
 </atominfo>
 <structure name="initialpos" >
  <crystal>
   <varray name="basis" >
    <v>       2.07104037       0.00000000       2.07104037 </v>
    <v>       0.00000000      -2.07104037      -2.07104037 </v>
    <v>       8.30141253       8.30141253      -8.30141253 </v>
   </varray>
   <i name="volume">    106.81946050 </i>
   <varray name="rec_basis" >
    <v>       0.32189941      -0.16094970       0.16094970 </v>
    <v>       0.16094970      -0.32189941      -0.16094970 </v>
    <v>       0.04015381       0.04015381      -0.04015381 </v>
   </varray>
  </crystal>
  <varray name="positions" >
   <v>       0.33333333       0.66666667       0.16666667 </v>
   <v>       0.00000000       0.00000000       0.50055486 </v>
   <v>       0.33333333       0.66666667       0.66666667 </v>
   <v>       0.66666667       0.33333333       0.83277848 </v>
   <v>       0.00000000       0.00000000       0.00017057 </v>
   <v>       0.66666667       0.33333333       0.33316277 </v>
  </varray>
 </structure>
 <calculation>
  <scstep>
   <time name="dav">    6.67    6.67</time>
   <time name="total">    6.75    6.76</time>
   <energy>
    <i name="alphaZ">    321.95843429 </i>
    <i name="ewald">  -5781.79860662 </i>
    <i name="hartreedc">  -1096.04150584 </i>
    <i name="XCdc">    -11.10361321 </i>
    <i name="pawpsdc">   5762.04360401 </i>
    <i name="pawaedc">  -5531.41736657 </i>
    <i name="eentropy">      0.00061964 </i>
    <i name="bandstr">    786.43937508 </i>
    <i name="atom">   6001.21416313 </i>
    <i name="e_fr_energy">    451.29510393 </i>
    <i name="e_wo_entrp">    451.29448429 </i>
    <i name="e_0_energy">    451.29489738 </i>
   </energy>
  </scstep>
  <scstep>
   <time name="dav">    7.38    7.38</time>
   <time name="total">    7.40    7.42</time>
   <energy>
    <i name="e_fr_energy">     -7.15416422 </i>
    <i name="e_wo_entrp">     -7.15151771 </i>
    <i name="e_0_energy">     -7.15328205 </i>
   </energy>
  </scstep>
  <scstep>
   <time name="dav">    7.62    7.62</time>
   <time name="total">    7.64    7.66</time>
   <energy>
    <i name="e_fr_energy">    -18.94829598 </i>
    <i name="e_wo_entrp">    -18.94927847 </i>
    <i name="e_0_energy">    -18.94862348 </i>
   </energy>
  </scstep>
  <scstep>
   <time name="dav">    7.65    7.65</time>
   <time name="total">    7.67    7.69</time>
   <energy>
    <i name="e_fr_energy">    -19.03477733 </i>
    <i name="e_wo_entrp">    -19.03572757 </i>
    <i name="e_0_energy">    -19.03509408 </i>
   </energy>
  </scstep>
  <scstep>
   <time name="dav">    7.82    7.82</time>
   <time name="total">    8.38    8.39</time>
   <energy>
    <i name="e_fr_energy">    -19.03553933 </i>
    <i name="e_wo_entrp">    -19.03648926 </i>
    <i name="e_0_energy">    -19.03585597 </i>
   </energy>
  </scstep>
  <scstep>
   <time name="diag">    2.11    2.11</time>
   <time name="diis">    3.72    3.72</time>
   <time name="orth">    0.54    0.54</time>
   <time name="total">    6.97    7.00</time>
   <energy>
    <i name="e_fr_energy">    -17.58192206 </i>
    <i name="e_wo_entrp">    -17.58350166 </i>
    <i name="e_0_energy">    -17.58244859 </i>
   </energy>
  </scstep>
  <scstep>
   <time name="diag">    1.80    1.80</time>
   <time name="diis">    3.69    3.69</time>
   <time name="orth">    0.23    0.23</time>
   <time name="total">    6.34    6.35</time>
   <energy>
    <i name="e_fr_energy">    -17.53287388 </i>
    <i name="e_wo_entrp">    -17.53263782 </i>
    <i name="e_0_energy">    -17.53279519 </i>
   </energy>
  </scstep>
  <scstep>
   <time name="diag">    1.80    1.80</time>
   <time name="diis">    3.71    3.71</time>
   <time name="orth">    0.24    0.24</time>
   <time name="total">    6.37    6.38</time>
   <energy>
    <i name="e_fr_energy">    -17.53491600 </i>
    <i name="e_wo_entrp">    -17.53504859 </i>
    <i name="e_0_energy">    -17.53496020 </i>
   </energy>
  </scstep>
  <scstep>
   <time name="diag">    1.79    1.79</time>
   <time name="diis">    3.78    3.79</time>
   <time name="orth">    0.23    0.23</time>
   <time name="total">    6.42    6.44</time>
   <energy>
    <i name="e_fr_energy">    -17.49486260 </i>
    <i name="e_wo_entrp">    -17.49791960 </i>
    <i name="e_0_energy">    -17.49588160 </i>
   </energy>
  </scstep>
  <scstep>
   <time name="diag">    1.80    1.80</time>
   <time name="diis">    3.70    3.70</time>
   <time name="orth">    0.24    0.24</time>
   <time name="total">    6.37    6.38</time>
   <energy>
    <i name="e_fr_energy">    -17.49482118 </i>
    <i name="e_wo_entrp">    -17.49787274 </i>
    <i name="e_0_energy">    -17.49583836 </i>
   </energy>
  </scstep>
  <scstep>
   <time name="diag">    1.79    1.79</time>
   <time name="diis">    3.71    3.71</time>
   <time name="orth">    0.23    0.23</time>
   <time name="total">    6.35    6.37</time>
   <energy>
    <i name="e_fr_energy">    -17.49483312 </i>
    <i name="e_wo_entrp">    -17.49787845 </i>
    <i name="e_0_energy">    -17.49584823 </i>
   </energy>
  </scstep>
  <scstep>
   <time name="diag">    1.79    1.79</time>
   <time name="diis">    3.26    3.26</time>
   <time name="orth">    0.43    0.43</time>
   <time name="total">    6.11    6.12</time>
   <energy>
    <i name="e_fr_energy">    -17.49483913 </i>
    <i name="e_wo_entrp">    -17.49788320 </i>
    <i name="e_0_energy">    -17.49585382 </i>
   </energy>
  </scstep>
  <scstep>
   <time name="diag">    1.79    1.79</time>
   <time name="diis">    2.64    2.64</time>
   <time name="orth">    0.23    0.23</time>
   <time name="total">    4.75    4.76</time>
   <energy>
    <i name="alphaZ">    321.95843429 </i>
    <i name="ewald">  -5781.79860662 </i>
    <i name="hartreedc">  -1024.77402037 </i>
    <i name="XCdc">    -13.90639334 </i>
    <i name="pawpsdc">   6457.65751362 </i>
    <i name="pawaedc">  -6241.69008491 </i>
    <i name="eentropy">      0.00304374 </i>
    <i name="bandstr">    263.84111190 </i>
    <i name="atom">   6001.21416313 </i>
    <i name="e_fr_energy">    -17.49483854 </i>
    <i name="e_wo_entrp">    -17.49788228 </i>
    <i name="e_0_energy">    -17.49585312 </i>
   </energy>
  </scstep>
  <structure>
   <crystal>
    <varray name="basis" >
     <v>       2.07104037       0.00000000       2.07104037 </v>
     <v>       0.00000000      -2.07104037      -2.07104037 </v>
     <v>       8.30141253       8.30141253      -8.30141253 </v>
    </varray>
    <i name="volume">    106.81946050 </i>
    <varray name="rec_basis" >
     <v>       0.32189941      -0.16094970       0.16094970 </v>
     <v>       0.16094970      -0.32189941      -0.16094970 </v>
     <v>       0.04015381       0.04015381      -0.04015381 </v>
    </varray>
   </crystal>
   <varray name="positions" >
    <v>       0.33333333       0.66666667       0.16666667 </v>
    <v>       0.00000000       0.00000000       0.50055486 </v>
    <v>       0.33333333       0.66666667       0.66666667 </v>
    <v>       0.66666667       0.33333333       0.83277848 </v>
    <v>       0.00000000       0.00000000       0.00017057 </v>
    <v>       0.66666667       0.33333333       0.33316277 </v>
   </varray>
  </structure>
  <varray name="forces" >
   <v>       0.00000000       0.00000000       0.00000000 </v>
   <v>       0.01067484       0.01067484      -0.01067484 </v>
   <v>       0.00000000       0.00000000       0.00000000 </v>
   <v>      -0.01067484      -0.01067484       0.01067484 </v>
   <v>       0.00326146       0.00326146      -0.00326146 </v>
   <v>      -0.00326146      -0.00326146       0.00326146 </v>
  </varray>
  <varray name="stress" >
   <v>       1.02033807       0.27644211      -0.27644211 </v>
   <v>       0.27644211       1.02033807      -0.27644211 </v>
   <v>      -0.27644211      -0.27644211       1.02033807 </v>
  </varray>
  <energy>
   <i name="e_fr_energy">    -17.49483854 </i>
   <i name="e_wo_entrp">    -17.49585312 </i>
   <i name="e_0_energy">      0.00304374 </i>
  </energy>
  <time name="totalsc">   92.97   93.23</time>
  <eigenvalues>
   <array>
    <dimension dim="1">band</dimension>
    <dimension dim="2">kpoint</dimension>
    <dimension dim="3">spin</dimension>
    <field>eigene</field>
    <field>occ</field>
    <set>
     <set comment="spin 1">
      <set comment="kpoint 1">
       <r>   -0.2839    1.0000 </r>
       <r>    0.2521    1.0000 </r>
       <r>    1.2396    1.0000 </r>
       <r>    1.8078    1.0000 </r>
       <r>    1.9232    1.0000 </r>
       <r>    2.0735    1.0000 </r>
       <r>    3.4070    1.0000 </r>
       <r>    3.4419    1.0000 </r>
       <r>    3.4870    1.0000 </r>
       <r>    3.4870    1.0000 </r>
       <r>    3.5375    1.0000 </r>
       <r>    3.5375    1.0000 </r>
       <r>    3.5542    1.0000 </r>
       <r>    3.6071    1.0000 </r>
       <r>    3.6071    1.0000 </r>
       <r>    3.6234    1.0000 </r>
       <r>    3.6234    1.0000 </r>
       <r>    3.7579    1.0000 </r>
       <r>    3.7579    1.0000 </r>
       <r>    3.8775    1.0000 </r>
       <r>    3.8775    1.0000 </r>
       <r>    4.4372    1.0000 </r>
       <r>    4.4372    1.0000 </r>
       <r>    4.6064    1.0000 </r>
       <r>    4.6064    1.0000 </r>
       <r>    4.6777    1.0000 </r>
       <r>    4.6777    1.0000 </r>
       <r>    4.7645    1.0000 </r>
       <r>    4.8027    1.0000 </r>
       <r>    4.9361    1.0000 </r>
       <r>    4.9361    1.0000 </r>
       <r>    5.4177    1.0000 </r>
       <r>    5.4177    1.0000 </r>
       <r>    5.6910    1.0000 </r>
       <r>    5.6910    1.0000 </r>
       <r>    7.6993    1.0236 </r>
       <r>   11.3558    0.0000 </r>
       <r>   15.7620    0.0000 </r>
       <r>   15.8113    0.0000 </r>
       <r>   21.8885    0.0000 </r>
      </set>
      <set comment="kpoint 2">
       <r>   -0.2466    1.0000 </r>
       <r>    0.2890    1.0000 </r>
       <r>    1.2722    1.0000 </r>
       <r>    1.8336    1.0000 </r>
       <r>    1.9507    1.0000 </r>
       <r>    2.0973    1.0000 </r>
       <r>    3.3834    1.0000 </r>
       <r>    3.4049    1.0000 </r>
       <r>    3.4747    1.0000 </r>
       <r>    3.5030    1.0000 </r>
       <r>    3.5294    1.0000 </r>
       <r>    3.5512    1.0000 </r>
       <r>    3.5606    1.0000 </r>
       <r>    3.6128    1.0000 </r>
       <r>    3.6229    1.0000 </r>
       <r>    3.6257    1.0000 </r>
       <r>    3.6403    1.0000 </r>
       <r>    3.7645    1.0000 </r>
       <r>    3.7751    1.0000 </r>
       <r>    3.8811    1.0000 </r>
       <r>    3.8966    1.0000 </r>
       <r>    4.4188    1.0000 </r>
       <r>    4.4201    1.0000 </r>
       <r>    4.5060    1.0000 </r>
       <r>    4.5412    1.0000 </r>
       <r>    4.6125    1.0000 </r>
       <r>    4.6831    1.0000 </r>
       <r>    4.7022    1.0000 </r>
       <r>    4.7819    1.0000 </r>
       <r>    4.9309    1.0000 </r>
       <r>    5.1083    1.0000 </r>
       <r>    5.4226    1.0000 </r>
       <r>    5.5465    1.0000 </r>
       <r>    5.6382    1.0000 </r>
       <r>    5.6890    1.0000 </r>
       <r>    7.8367    1.0339 </r>
       <r>   11.3599    0.0000 </r>
       <r>   15.7872    0.0000 </r>
       <r>   15.8331    0.0000 </r>
       <r>   21.9044    0.0000 </r>
      </set>
      <set comment="kpoint 3">
       <r>   -0.1356    1.0000 </r>
       <r>    0.3979    1.0000 </r>
       <r>    1.3682    1.0000 </r>
       <r>    1.9087    1.0000 </r>
       <r>    2.0307    1.0000 </r>
       <r>    2.1667    1.0000 </r>
       <r>    3.3117    1.0000 </r>
       <r>    3.3393    1.0000 </r>
       <r>    3.4386    1.0000 </r>
       <r>    3.5002    1.0000 </r>
       <r>    3.5484    1.0000 </r>
       <r>    3.5826    1.0000 </r>
       <r>    3.5926    1.0000 </r>
       <r>    3.6018    1.0000 </r>
       <r>    3.6177    1.0000 </r>
       <r>    3.6700    1.0000 </r>
       <r>    3.6899    1.0000 </r>
       <r>    3.7894    1.0000 </r>
       <r>    3.8248    1.0000 </r>
       <r>    3.8923    1.0000 </r>
       <r>    3.9512    1.0000 </r>
       <r>    4.2098    1.0000 </r>
       <r>    4.3236    1.0000 </r>
       <r>    4.3820    1.0000 </r>
       <r>    4.4169    1.0000 </r>
       <r>    4.6269    1.0000 </r>
       <r>    4.6402    1.0000 </r>
       <r>    4.6921    1.0000 </r>
       <r>    4.8148    1.0000 </r>
       <r>    4.9211    1.0000 </r>
       <r>    5.1535    1.0000 </r>
       <r>    5.4351    1.0000 </r>
       <r>    5.6221    1.0000 </r>
       <r>    5.6836    1.0000 </r>
       <r>    5.8601    1.0000 </r>
       <r>    8.1894    0.4614 </r>
       <r>   11.3731    0.0000 </r>
       <r>   15.8620    0.0000 </r>
       <r>   15.8990    0.0000 </r>
       <r>   22.0160    0.0000 </r>
      </set>
      <set comment="kpoint 4">
       <r>    0.0453    1.0000 </r>
       <r>    0.5734    1.0000 </r>
       <r>    1.5208    1.0000 </r>
       <r>    2.0259    1.0000 </r>
       <r>    2.1533    1.0000 </r>
       <r>    2.2759    1.0000 </r>
       <r>    3.2077    1.0000 </r>
       <r>    3.2812    1.0000 </r>
       <r>    3.3819    1.0000 </r>
       <r>    3.4537    1.0000 </r>
       <r>    3.5523    1.0000 </r>
       <r>    3.5754    1.0000 </r>
       <r>    3.6130    1.0000 </r>
       <r>    3.6385    1.0000 </r>
       <r>    3.6650    1.0000 </r>
       <r>    3.7457    1.0000 </r>
       <r>    3.7684    1.0000 </r>
       <r>    3.8103    1.0000 </r>
       <r>    3.8912    1.0000 </r>
       <r>    3.9014    1.0000 </r>
       <r>    3.9503    1.0000 </r>
       <r>    4.0298    1.0000 </r>
       <r>    4.1216    1.0000 </r>
       <r>    4.3491    1.0000 </r>
       <r>    4.3716    1.0000 </r>
       <r>    4.5704    1.0000 </r>
       <r>    4.6484    1.0000 </r>
       <r>    4.6928    1.0000 </r>
       <r>    4.8257    1.0000 </r>
       <r>    4.9212    1.0000 </r>
       <r>    4.9888    1.0000 </r>
       <r>    5.4493    1.0000 </r>
       <r>    5.6766    1.0000 </r>
       <r>    5.8541    1.0000 </r>
       <r>    6.1953    1.0000 </r>
       <r>    8.6675   -0.0213 </r>
       <r>   11.3988    0.0000 </r>
       <r>   15.9799    0.0000 </r>
       <r>   16.0150    0.0000 </r>
       <r>   22.1308    0.0000 </r>
      </set>
      <set comment="kpoint 5">
       <r>    0.2895    1.0000 </r>
       <r>    0.8045    1.0000 </r>
       <r>    1.7160    1.0000 </r>
       <r>    2.1701    1.0000 </r>
       <r>    2.2922    1.0000 </r>
       <r>    2.4211    1.0000 </r>
       <r>    3.0916    1.0000 </r>
       <r>    3.2444    1.0000 </r>
       <r>    3.3113    1.0000 </r>
       <r>    3.3959    1.0000 </r>
       <r>    3.4682    1.0000 </r>
       <r>    3.4902    1.0000 </r>
       <r>    3.6824    1.0000 </r>
       <r>    3.6830    1.0000 </r>
       <r>    3.7002    1.0000 </r>
       <r>    3.7706    1.0000 </r>
       <r>    3.8396    1.0000 </r>
       <r>    3.8449    1.0000 </r>
       <r>    3.8695    1.0000 </r>
       <r>    3.9110    1.0000 </r>
       <r>    3.9836    1.0000 </r>
       <r>    3.9936    1.0000 </r>
       <r>    4.1070    1.0000 </r>
       <r>    4.3465    1.0000 </r>
       <r>    4.3606    1.0000 </r>
       <r>    4.4681    1.0000 </r>
       <r>    4.6496    1.0000 </r>
       <r>    4.6614    1.0000 </r>
       <r>    4.7081    1.0000 </r>
       <r>    4.9420    1.0000 </r>
       <r>    5.0130    1.0000 </r>
       <r>    5.4590    1.0000 </r>
       <r>    5.6706    1.0000 </r>
       <r>    6.1414    1.0000 </r>
       <r>    6.5484    1.0000 </r>
       <r>    9.2186    0.0000 </r>
       <r>   11.4426    0.0000 </r>
       <r>   16.1253    0.0000 </r>
       <r>   16.1946    0.0000 </r>
       <r>   21.1214    0.0000 </r>
      </set>
      <set comment="kpoint 6">
       <r>    0.5851    1.0000 </r>
       <r>    1.0718    1.0000 </r>
       <r>    1.9268    1.0000 </r>
       <r>    2.3108    1.0000 </r>
       <r>    2.4019    1.0000 </r>
       <r>    2.6043    1.0000 </r>
       <r>    2.9702    1.0000 </r>
       <r>    3.2309    1.0000 </r>
       <r>    3.2358    1.0000 </r>
       <r>    3.2785    1.0000 </r>
       <r>    3.3291    1.0000 </r>
       <r>    3.3812    1.0000 </r>
       <r>    3.6903    1.0000 </r>
       <r>    3.7400    1.0000 </r>
       <r>    3.7477    1.0000 </r>
       <r>    3.7790    1.0000 </r>
       <r>    3.8426    1.0000 </r>
       <r>    3.8919    1.0000 </r>
       <r>    3.9148    1.0000 </r>
       <r>    3.9924    1.0000 </r>
       <r>    4.0410    1.0000 </r>
       <r>    4.0958    1.0000 </r>
       <r>    4.1796    1.0000 </r>
       <r>    4.2442    1.0000 </r>
       <r>    4.3901    1.0000 </r>
       <r>    4.4311    1.0000 </r>
       <r>    4.5335    1.0000 </r>
       <r>    4.6663    1.0000 </r>
       <r>    4.7774    1.0000 </r>
       <r>    4.9880    1.0000 </r>
       <r>    5.1100    1.0000 </r>
       <r>    5.4600    1.0000 </r>
       <r>    5.6682    1.0000 </r>
       <r>    6.4442    1.0000 </r>
       <r>    6.9113    1.0000 </r>
       <r>    9.8156    0.0000 </r>
       <r>   11.5127    0.0000 </r>
       <r>   16.2959    0.0000 </r>
       <r>   16.4348    0.0000 </r>
       <r>   19.8594    0.0000 </r>
      </set>
      <set comment="kpoint 7">
       <r>    0.9123    1.0000 </r>
       <r>    1.3424    1.0000 </r>
       <r>    2.1116    1.0000 </r>
       <r>    2.3844    1.0000 </r>
       <r>    2.4761    1.0000 </r>
       <r>    2.7963    1.0000 </r>
       <r>    2.8489    1.0000 </r>
       <r>    2.9921    1.0000 </r>
       <r>    3.1788    1.0000 </r>
       <r>    3.2320    1.0000 </r>
       <r>    3.3130    1.0000 </r>
       <r>    3.3729    1.0000 </r>
       <r>    3.6319    1.0000 </r>
       <r>    3.7738    1.0000 </r>
       <r>    3.7916    1.0000 </r>
       <r>    3.8329    1.0000 </r>
       <r>    3.8664    1.0000 </r>
       <r>    3.8996    1.0000 </r>
       <r>    4.0506    1.0000 </r>
       <r>    4.0516    1.0000 </r>
       <r>    4.1329    1.0000 </r>
       <r>    4.1626    1.0000 </r>
       <r>    4.2296    1.0000 </r>
       <r>    4.2651    1.0000 </r>
       <r>    4.4365    1.0000 </r>
       <r>    4.4971    1.0000 </r>
       <r>    4.5125    1.0000 </r>
       <r>    4.7252    1.0000 </r>
       <r>    4.8960    1.0000 </r>
       <r>    5.0702    1.0000 </r>
       <r>    5.2271    1.0000 </r>
       <r>    5.4518    1.0000 </r>
       <r>    5.6707    1.0000 </r>
       <r>    6.7578    1.0000 </r>
       <r>    7.2855    1.0001 </r>
       <r>   10.4413    0.0000 </r>
       <r>   11.6199    0.0000 </r>
       <r>   16.4832    0.0000 </r>
       <r>   16.7256    0.0000 </r>
       <r>   18.5774    0.0000 </r>
      </set>
      <set comment="kpoint 8">
       <r>    1.2380    1.0000 </r>
       <r>    1.5727    1.0000 </r>
       <r>    2.2324    1.0000 </r>
       <r>    2.3682    1.0000 </r>
       <r>    2.5099    1.0000 </r>
       <r>    2.7283    1.0000 </r>
       <r>    2.7564    1.0000 </r>
       <r>    2.8953    1.0000 </r>
       <r>    3.1321    1.0000 </r>
       <r>    3.2007    1.0000 </r>
       <r>    3.3099    1.0000 </r>
       <r>    3.5217    1.0000 </r>
       <r>    3.5975    1.0000 </r>
       <r>    3.7800    1.0000 </r>
       <r>    3.7870    1.0000 </r>
       <r>    3.8523    1.0000 </r>
       <r>    3.8916    1.0000 </r>
       <r>    3.9215    1.0000 </r>
       <r>    4.1056    1.0000 </r>
       <r>    4.1687    1.0000 </r>
       <r>    4.2749    1.0000 </r>
       <r>    4.3541    1.0000 </r>
       <r>    4.3786    1.0000 </r>
       <r>    4.3953    1.0000 </r>
       <r>    4.4926    1.0000 </r>
       <r>    4.5696    1.0000 </r>
       <r>    4.6199    1.0000 </r>
       <r>    4.8043    1.0000 </r>
       <r>    5.0725    1.0000 </r>
       <r>    5.2037    1.0000 </r>
       <r>    5.3607    1.0000 </r>
       <r>    5.4385    1.0000 </r>
       <r>    5.6777    1.0000 </r>
       <r>    7.0851    1.0000 </r>
       <r>    7.6781    1.0204 </r>
       <r>   11.0771    0.0000 </r>
       <r>   11.7785    0.0000 </r>
       <r>   16.6302    0.0000 </r>
       <r>   16.9622    0.0000 </r>
       <r>   17.4269    0.0000 </r>
      </set>
      <set comment="kpoint 9">
       <r>    1.5095    1.0000 </r>
       <r>    1.7335    1.0000 </r>
       <r>    2.2623    1.0000 </r>
       <r>    2.3330    1.0000 </r>
       <r>    2.4824    1.0000 </r>
       <r>    2.5475    1.0000 </r>
       <r>    2.6230    1.0000 </r>
       <r>    2.8167    1.0000 </r>
       <r>    3.0553    1.0000 </r>
       <r>    3.2574    1.0000 </r>
       <r>    3.3647    1.0000 </r>
       <r>    3.5956    1.0000 </r>
       <r>    3.6487    1.0000 </r>
       <r>    3.7397    1.0000 </r>
       <r>    3.7560    1.0000 </r>
       <r>    3.8984    1.0000 </r>
       <r>    3.9226    1.0000 </r>
       <r>    4.0780    1.0000 </r>
       <r>    4.1847    1.0000 </r>
       <r>    4.3702    1.0000 </r>
       <r>    4.4276    1.0000 </r>
       <r>    4.4956    1.0000 </r>
       <r>    4.5665    1.0000 </r>
       <r>    4.5706    1.0000 </r>
       <r>    4.6791    1.0000 </r>
       <r>    4.7425    1.0000 </r>
       <r>    4.8528    1.0000 </r>
       <r>    4.8652    1.0000 </r>
       <r>    5.2769    1.0000 </r>
       <r>    5.3740    1.0000 </r>
       <r>    5.4436    1.0000 </r>
       <r>    5.5177    1.0000 </r>
       <r>    5.6906    1.0000 </r>
       <r>    7.4334    1.0013 </r>
       <r>    8.1005    0.7050 </r>
       <r>   11.6872    0.0000 </r>
       <r>   12.0113    0.0000 </r>
       <r>   15.8895    0.0000 </r>
       <r>   16.6064    0.0000 </r>
       <r>   16.8480    0.0000 </r>
      </set>
      <set comment="kpoint 10">
       <r>    1.6618    1.0000 </r>
       <r>    1.8470    1.0000 </r>
       <r>    2.1914    1.0000 </r>
       <r>    2.3245    1.0000 </r>
       <r>    2.3809    1.0000 </r>
       <r>    2.4259    1.0000 </r>
       <r>    2.5296    1.0000 </r>
       <r>    2.6963    1.0000 </r>
       <r>    2.9379    1.0000 </r>
       <r>    3.2537    1.0000 </r>
       <r>    3.4856    1.0000 </r>
       <r>    3.6104    1.0000 </r>
       <r>    3.6834    1.0000 </r>
       <r>    3.6891    1.0000 </r>
       <r>    3.7821    1.0000 </r>
       <r>    3.9023    1.0000 </r>
       <r>    4.0304    1.0000 </r>
       <r>    4.1499    1.0000 </r>
       <r>    4.4492    1.0000 </r>
       <r>    4.5590    1.0000 </r>
       <r>    4.5778    1.0000 </r>
       <r>    4.6514    1.0000 </r>
       <r>    4.7363    1.0000 </r>
       <r>    4.8036    1.0000 </r>
       <r>    4.8324    1.0000 </r>
       <r>    4.9236    1.0000 </r>
       <r>    5.1378    1.0000 </r>
       <r>    5.2653    1.0000 </r>
       <r>    5.3550    1.0000 </r>
       <r>    5.5384    1.0000 </r>
       <r>    5.5969    1.0000 </r>
       <r>    5.7262    1.0000 </r>
       <r>    5.7288    1.0000 </r>
       <r>    7.8123    1.0354 </r>
       <r>    8.5652   -0.0347 </r>
       <r>   12.1764    0.0000 </r>
       <r>   12.3579    0.0000 </r>
       <r>   14.6799    0.0000 </r>
       <r>   15.5432    0.0000 </r>
       <r>   15.8116    0.0000 </r>
      </set>
      <set comment="kpoint 11">
       <r>    1.6983    1.0000 </r>
       <r>    1.9258    1.0000 </r>
       <r>    2.0995    1.0000 </r>
       <r>    2.2246    1.0000 </r>
       <r>    2.3307    1.0000 </r>
       <r>    2.3622    1.0000 </r>
       <r>    2.4599    1.0000 </r>
       <r>    2.5810    1.0000 </r>
       <r>    2.8078    1.0000 </r>
       <r>    3.2300    1.0000 </r>
       <r>    3.5615    1.0000 </r>
       <r>    3.6126    1.0000 </r>
       <r>    3.6306    1.0000 </r>
       <r>    3.6640    1.0000 </r>
       <r>    3.9018    1.0000 </r>
       <r>    3.9610    1.0000 </r>
       <r>    4.1045    1.0000 </r>
       <r>    4.1849    1.0000 </r>
       <r>    4.5804    1.0000 </r>
       <r>    4.6918    1.0000 </r>
       <r>    4.8008    1.0000 </r>
       <r>    4.8905    1.0000 </r>
       <r>    4.8958    1.0000 </r>
       <r>    4.9267    1.0000 </r>
       <r>    5.0010    1.0000 </r>
       <r>    5.1808    1.0000 </r>
       <r>    5.3418    1.0000 </r>
       <r>    5.5926    1.0000 </r>
       <r>    5.6391    1.0000 </r>
       <r>    5.8054    1.0000 </r>
       <r>    5.8145    1.0000 </r>
       <r>    5.8554    1.0000 </r>
       <r>    6.0934    1.0000 </r>
       <r>    8.2285    0.3538 </r>
       <r>    9.0785   -0.0001 </r>
       <r>   12.4927    0.0000 </r>
       <r>   12.6554    0.0000 </r>
       <r>   13.5101    0.0000 </r>
       <r>   14.4046    0.0000 </r>
       <r>   15.0779    0.0000 </r>
      </set>
      <set comment="kpoint 12">
       <r>    1.6865    1.0000 </r>
       <r>    1.9550    1.0000 </r>
       <r>    2.0116    1.0000 </r>
       <r>    2.1278    1.0000 </r>
       <r>    2.3028    1.0000 </r>
       <r>    2.3069    1.0000 </r>
       <r>    2.4200    1.0000 </r>
       <r>    2.4819    1.0000 </r>
       <r>    2.6871    1.0000 </r>
       <r>    3.2157    1.0000 </r>
       <r>    3.4882    1.0000 </r>
       <r>    3.5707    1.0000 </r>
       <r>    3.5865    1.0000 </r>
       <r>    3.8379    1.0000 </r>
       <r>    3.8998    1.0000 </r>
       <r>    4.0609    1.0000 </r>
       <r>    4.1029    1.0000 </r>
       <r>    4.3343    1.0000 </r>
       <r>    4.6457    1.0000 </r>
       <r>    4.7553    1.0000 </r>
       <r>    4.9340    1.0000 </r>
       <r>    5.0160    1.0000 </r>
       <r>    5.0464    1.0000 </r>
       <r>    5.0941    1.0000 </r>
       <r>    5.1585    1.0000 </r>
       <r>    5.3222    1.0000 </r>
       <r>    5.4748    1.0000 </r>
       <r>    5.6611    1.0000 </r>
       <r>    6.0067    1.0000 </r>
       <r>    6.0319    1.0000 </r>
       <r>    6.1792    1.0000 </r>
       <r>    6.4049    1.0000 </r>
       <r>    6.7151    1.0000 </r>
       <r>    8.6759   -0.0200 </r>
       <r>    9.6183    0.0000 </r>
       <r>   12.1500    0.0000 </r>
       <r>   12.3488    0.0000 </r>
       <r>   13.0429    0.0000 </r>
       <r>   13.4357    0.0000 </r>
       <r>   14.9028    0.0000 </r>
      </set>
      <set comment="kpoint 13">
       <r>    1.6630    1.0000 </r>
       <r>    1.9372    1.0000 </r>
       <r>    1.9567    1.0000 </r>
       <r>    2.0618    1.0000 </r>
       <r>    2.2615    1.0000 </r>
       <r>    2.2834    1.0000 </r>
       <r>    2.4010    1.0000 </r>
       <r>    2.4085    1.0000 </r>
       <r>    2.5859    1.0000 </r>
       <r>    3.2180    1.0000 </r>
       <r>    3.4091    1.0000 </r>
       <r>    3.5434    1.0000 </r>
       <r>    3.5534    1.0000 </r>
       <r>    3.8988    1.0000 </r>
       <r>    3.9901    1.0000 </r>
       <r>    4.0249    1.0000 </r>
       <r>    4.1939    1.0000 </r>
       <r>    4.4514    1.0000 </r>
       <r>    4.6941    1.0000 </r>
       <r>    4.7850    1.0000 </r>
       <r>    5.0406    1.0000 </r>
       <r>    5.1130    1.0000 </r>
       <r>    5.1438    1.0000 </r>
       <r>    5.1785    1.0000 </r>
       <r>    5.3038    1.0000 </r>
       <r>    5.3177    1.0000 </r>
       <r>    5.6664    1.0000 </r>
       <r>    5.6687    1.0000 </r>
       <r>    6.1675    1.0000 </r>
       <r>    6.1819    1.0000 </r>
       <r>    6.8586    1.0000 </r>
       <r>    7.0790    1.0000 </r>
       <r>    7.4967    1.0031 </r>
       <r>    9.1208    0.0000 </r>
       <r>    9.9994    0.0000 </r>
       <r>   11.3076    0.0000 </r>
       <r>   11.5544    0.0000 </r>
       <r>   12.2989    0.0000 </r>
       <r>   13.7261    0.0000 </r>
       <r>   14.3600    0.0000 </r>
      </set>
      <set comment="kpoint 14">
       <r>    1.6439    1.0000 </r>
       <r>    1.8938    1.0000 </r>
       <r>    1.9452    1.0000 </r>
       <r>    2.0232    1.0000 </r>
       <r>    2.2324    1.0000 </r>
       <r>    2.2773    1.0000 </r>
       <r>    2.3473    1.0000 </r>
       <r>    2.4145    1.0000 </r>
       <r>    2.5088    1.0000 </r>
       <r>    3.2386    1.0000 </r>
       <r>    3.3392    1.0000 </r>
       <r>    3.5274    1.0000 </r>
       <r>    3.5330    1.0000 </r>
       <r>    3.8994    1.0000 </r>
       <r>    4.0004    1.0000 </r>
       <r>    4.0987    1.0000 </r>
       <r>    4.2344    1.0000 </r>
       <r>    4.5241    1.0000 </r>
       <r>    4.7251    1.0000 </r>
       <r>    4.7981    1.0000 </r>
       <r>    5.1114    1.0000 </r>
       <r>    5.1768    1.0000 </r>
       <r>    5.2035    1.0000 </r>
       <r>    5.2375    1.0000 </r>
       <r>    5.2882    1.0000 </r>
       <r>    5.4013    1.0000 </r>
       <r>    5.6721    1.0000 </r>
       <r>    5.7781    1.0000 </r>
       <r>    6.2695    1.0000 </r>
       <r>    6.2818    1.0000 </r>
       <r>    7.4547    1.0018 </r>
       <r>    7.8566    1.0305 </r>
       <r>    8.3661    0.0650 </r>
       <r>    9.4846    0.0000 </r>
       <r>    9.6165    0.0000 </r>
       <r>   10.3259    0.0000 </r>
       <r>   11.4745    0.0000 </r>
       <r>   11.7450    0.0000 </r>
       <r>   13.2898    0.0000 </r>
       <r>   14.4448    0.0000 </r>
      </set>
      <set comment="kpoint 15">
       <r>    1.6367    1.0000 </r>
       <r>    1.8786    1.0000 </r>
       <r>    1.9404    1.0000 </r>
       <r>    2.0105    1.0000 </r>
       <r>    2.2224    1.0000 </r>
       <r>    2.2798    1.0000 </r>
       <r>    2.3241    1.0000 </r>
       <r>    2.4315    1.0000 </r>
       <r>    2.4684    1.0000 </r>
       <r>    3.2667    1.0000 </r>
       <r>    3.2941    1.0000 </r>
       <r>    3.5220    1.0000 </r>
       <r>    3.5261    1.0000 </r>
       <r>    3.9001    1.0000 </r>
       <r>    3.9915    1.0000 </r>
       <r>    4.1423    1.0000 </r>
       <r>    4.2407    1.0000 </r>
       <r>    4.5485    1.0000 </r>
       <r>    4.7358    1.0000 </r>
       <r>    4.8018    1.0000 </r>
       <r>    5.1370    1.0000 </r>
       <r>    5.1989    1.0000 </r>
       <r>    5.2236    1.0000 </r>
       <r>    5.2604    1.0000 </r>
       <r>    5.2794    1.0000 </r>
       <r>    5.4273    1.0000 </r>
       <r>    5.6731    1.0000 </r>
       <r>    5.8154    1.0000 </r>
       <r>    6.3043    1.0000 </r>
       <r>    6.3170    1.0000 </r>
       <r>    7.7052    1.0245 </r>
       <r>    8.6322   -0.0267 </r>
       <r>    8.7981   -0.0062 </r>
       <r>    9.3088    0.0000 </r>
       <r>    9.3874    0.0000 </r>
       <r>    9.6544    0.0000 </r>
       <r>   11.2057    0.0000 </r>
       <r>   12.3450    0.0000 </r>
       <r>   12.4871    0.0000 </r>
       <r>   14.4173    0.0000 </r>
      </set>
      <set comment="kpoint 16">
       <r>   -0.1724    1.0000 </r>
       <r>    0.3619    1.0000 </r>
       <r>    1.3366    1.0000 </r>
       <r>    1.8841    1.0000 </r>
       <r>    2.0045    1.0000 </r>
       <r>    2.1439    1.0000 </r>
       <r>    3.3419    1.0000 </r>
       <r>    3.3494    1.0000 </r>
       <r>    3.4501    1.0000 </r>
       <r>    3.5099    1.0000 </r>
       <r>    3.5338    1.0000 </r>
       <r>    3.5752    1.0000 </r>
       <r>    3.5800    1.0000 </r>
       <r>    3.6070    1.0000 </r>
       <r>    3.6202    1.0000 </r>
       <r>    3.6563    1.0000 </r>
       <r>    3.6739    1.0000 </r>
       <r>    3.7810    1.0000 </r>
       <r>    3.8086    1.0000 </r>
       <r>    3.8882    1.0000 </r>
       <r>    3.9332    1.0000 </r>
       <r>    4.3154    1.0000 </r>
       <r>    4.3420    1.0000 </r>
       <r>    4.3981    1.0000 </r>
       <r>    4.4234    1.0000 </r>
[...]
       <r>    4.5361    1.0000 </r>
       <r>    4.7381    1.0000 </r>
       <r>    4.7733    1.0000 </r>
       <r>    5.0929    1.0000 </r>
       <r>    5.1995    1.0000 </r>
       <r>    5.2499    1.0000 </r>
       <r>    5.3734    1.0000 </r>
       <r>    5.6027    1.0000 </r>
       <r>    5.6779    1.0000 </r>
       <r>   10.2209    0.0000 </r>
       <r>   10.3813    0.0000 </r>
       <r>   10.8962    0.0000 </r>
       <r>   11.0318    0.0000 </r>
       <r>   11.7093    0.0000 </r>
       <r>   12.2360    0.0000 </r>
       <r>   12.3995    0.0000 </r>
       <r>   12.6176    0.0000 </r>
       <r>   12.7289    0.0000 </r>
       <r>   13.1200    0.0000 </r>
      </set>
      <set comment="kpoint 369">
       <r>    2.4136    1.0000 </r>
       <r>    2.5215    1.0000 </r>
       <r>    2.5891    1.0000 </r>
       <r>    2.6375    1.0000 </r>
       <r>    2.7065    1.0000 </r>
       <r>    2.8675    1.0000 </r>
       <r>    2.9476    1.0000 </r>
       <r>    2.9654    1.0000 </r>
       <r>    3.0357    1.0000 </r>
       <r>    3.0681    1.0000 </r>
       <r>    3.0808    1.0000 </r>
       <r>    3.1775    1.0000 </r>
       <r>    3.4607    1.0000 </r>
       <r>    3.6126    1.0000 </r>
       <r>    3.6276    1.0000 </r>
       <r>    3.7275    1.0000 </r>
       <r>    3.8027    1.0000 </r>
       <r>    4.0048    1.0000 </r>
       <r>    4.2866    1.0000 </r>
       <r>    4.4069    1.0000 </r>
       <r>    4.4660    1.0000 </r>
       <r>    4.5360    1.0000 </r>
       <r>    4.7298    1.0000 </r>
       <r>    4.7577    1.0000 </r>
       <r>    5.0554    1.0000 </r>
       <r>    5.2268    1.0000 </r>
       <r>    5.2456    1.0000 </r>
       <r>    5.3615    1.0000 </r>
       <r>    5.6367    1.0000 </r>
       <r>    5.7061    1.0000 </r>
       <r>    9.7259    0.0000 </r>
       <r>    9.9174    0.0000 </r>
       <r>   11.0613    0.0000 </r>
       <r>   11.2815    0.0000 </r>
       <r>   11.5978    0.0000 </r>
       <r>   11.9128    0.0000 </r>
       <r>   12.5417    0.0000 </r>
       <r>   12.6795    0.0000 </r>
       <r>   13.0115    0.0000 </r>
       <r>   13.7860    0.0000 </r>
      </set>
      <set comment="kpoint 370">
       <r>    2.5163    1.0000 </r>
       <r>    2.5725    1.0000 </r>
       <r>    2.6157    1.0000 </r>
       <r>    2.6568    1.0000 </r>
       <r>    2.6886    1.0000 </r>
       <r>    2.7440    1.0000 </r>
       <r>    3.0386    1.0000 </r>
       <r>    3.0447    1.0000 </r>
       <r>    3.0628    1.0000 </r>
       <r>    3.0741    1.0000 </r>
       <r>    3.0800    1.0000 </r>
       <r>    3.1614    1.0000 </r>
       <r>    3.5517    1.0000 </r>
       <r>    3.5777    1.0000 </r>
       <r>    3.6631    1.0000 </r>
       <r>    3.6831    1.0000 </r>
       <r>    3.7256    1.0000 </r>
       <r>    3.8578    1.0000 </r>
       <r>    4.3493    1.0000 </r>
       <r>    4.3955    1.0000 </r>
       <r>    4.5530    1.0000 </r>
       <r>    4.5828    1.0000 </r>
       <r>    4.6505    1.0000 </r>
       <r>    4.6956    1.0000 </r>
       <r>    5.0877    1.0000 </r>
       <r>    5.2089    1.0000 </r>
       <r>    5.2212    1.0000 </r>
       <r>    5.3649    1.0000 </r>
       <r>    5.6138    1.0000 </r>
       <r>    5.6435    1.0000 </r>
       <r>   10.3031    0.0000 </r>
       <r>   10.4845    0.0000 </r>
       <r>   11.1867    0.0000 </r>
       <r>   11.5296    0.0000 </r>
       <r>   11.7271    0.0000 </r>
       <r>   11.8104    0.0000 </r>
       <r>   12.3220    0.0000 </r>
       <r>   12.7596    0.0000 </r>
       <r>   12.9954    0.0000 </r>
       <r>   13.3430    0.0000 </r>
      </set>
     </set>
    </set>
   </array>
  </eigenvalues>
  <separator name="orbital magnetization" >
   <v name="MAGDIPOLOUT">      0.00000000      0.00000000      0.00000000</v>
  </separator>
  <dos>
   <i name="efermi">      8.17572763 </i>
   <total>
    <array>
     <dimension dim="1">gridpoints</dimension>
     <dimension dim="2">spin</dimension>
     <field>energy</field>
     <field>total</field>
     <field>integrated</field>
     <set>
      <set comment="spin 1">
       <r>    -3.2839     0.0000     0.0000 </r>
       <r>    -3.1888     0.0000     0.0000 </r>
       <r>    -3.0937     0.0000     0.0000 </r>
       <r>    -2.9985     0.0000     0.0000 </r>
       <r>    -2.9034     0.0000     0.0000 </r>
       <r>    -2.8082     0.0000     0.0000 </r>
       <r>    -2.7131     0.0000     0.0000 </r>
       <r>    -2.6179     0.0000     0.0000 </r>
       <r>    -2.5228     0.0000     0.0000 </r>
       <r>    -2.4276     0.0000     0.0000 </r>
       <r>    -2.3325     0.0000     0.0000 </r>
       <r>    -2.2374     0.0000     0.0000 </r>
       <r>    -2.1422     0.0000     0.0000 </r>
       <r>    -2.0471     0.0000     0.0000 </r>
       <r>    -1.9519     0.0000     0.0000 </r>
       <r>    -1.8568     0.0000     0.0000 </r>
       <r>    -1.7616     0.0000     0.0000 </r>
       <r>    -1.6665     0.0000     0.0000 </r>
       <r>    -1.5713     0.0000     0.0000 </r>
       <r>    -1.4762     0.0000     0.0000 </r>
       <r>    -1.3811     0.0000     0.0000 </r>
       <r>    -1.2859     0.0000     0.0000 </r>
       <r>    -1.1908     0.0000     0.0000 </r>
       <r>    -1.0956     0.0000     0.0000 </r>
       <r>    -1.0005    -0.0002     0.0000 </r>
       <r>    -0.9053    -0.0007    -0.0001 </r>
       <r>    -0.8102    -0.0022    -0.0003 </r>
       <r>    -0.7150    -0.0051    -0.0008 </r>
       <r>    -0.6199    -0.0083    -0.0016 </r>
       <r>    -0.5248    -0.0067    -0.0022 </r>
       <r>    -0.4296     0.0087    -0.0014 </r>
       <r>    -0.3345     0.0458     0.0030 </r>
       <r>    -0.2393     0.1024     0.0127 </r>
       <r>    -0.1442     0.1655     0.0285 </r>
       <r>    -0.0490     0.2221     0.0496 </r>
       <r>     0.0461     0.2724     0.0755 </r>
       <r>     0.1412     0.3270     0.1066 </r>
       <r>     0.2364     0.3917     0.1439 </r>
       <r>     0.3315     0.4586     0.1875 </r>
       <r>     0.4267     0.5130     0.2363 </r>
       <r>     0.5218     0.5476     0.2884 </r>
       <r>     0.6170     0.5666     0.3423 </r>
       <r>     0.7121     0.5783     0.3974 </r>
       <r>     0.8073     0.5885     0.4534 </r>
       <r>     0.9024     0.6007     0.5105 </r>
       <r>     0.9975     0.6172     0.5692 </r>
       <r>     1.0927     0.6420     0.6303 </r>
       <r>     1.1878     0.6838     0.6954 </r>
       <r>     1.2830     0.7586     0.7676 </r>
       <r>     1.3781     0.8960     0.8528 </r>
       <r>     1.4733     1.1473     0.9620 </r>
       <r>     1.5684     1.5674     1.1111 </r>
       <r>     1.6636     2.1826     1.3188 </r>
       <r>     1.7587     3.0002     1.6042 </r>
       <r>     1.8538     4.0594     1.9904 </r>
       <r>     1.9490     5.4468     2.5087 </r>
       <r>     2.0441     7.2546     3.1989 </r>
       <r>     2.1393     9.5079     4.1035 </r>
       <r>     2.2344    12.0633     5.2513 </r>
       <r>     2.3296    14.5244     6.6332 </r>
       <r>     2.4247    16.3230     8.1862 </r>
       <r>     2.5199    17.0076     9.8044 </r>
       <r>     2.6150    16.5249    11.3766 </r>
       <r>     2.7101    15.2662    12.8291 </r>
       <r>     2.8053    13.8835    14.1501 </r>
       <r>     2.9004    13.0083    15.3877 </r>
       <r>     2.9956    12.9626    16.6210 </r>
       <r>     3.0907    13.5982    17.9148 </r>
       <r>     3.1859    14.4417    19.2889 </r>
       <r>     3.2810    15.1120    20.7267 </r>
       <r>     3.3761    15.6694    22.2175 </r>
       <r>     3.4713    16.5572    23.7929 </r>
       <r>     3.5664    18.1343    25.5182 </r>
       <r>     3.6616    20.1658    27.4369 </r>
       <r>     3.7567    21.7622    29.5074 </r>
       <r>     3.8519    21.9659    31.5974 </r>
       <r>     3.9470    20.5624    33.5538 </r>
       <r>     4.0422    18.3331    35.2980 </r>
       <r>     4.1373    16.4593    36.8641 </r>
       <r>     4.2324    15.6520    38.3532 </r>
       <r>     4.3276    15.7905    39.8556 </r>
       <r>     4.4227    16.2531    41.4020 </r>
       <r>     4.5179    16.5008    42.9720 </r>
       <r>     4.6130    16.3906    44.5314 </r>
       <r>     4.7082    16.0605    46.0595 </r>
       <r>     4.8033    15.6680    47.5502 </r>
       <r>     4.8985    15.3112    49.0070 </r>
       <r>     4.9936    15.1068    50.4443 </r>
       <r>     5.0887    15.1538    51.8861 </r>
       <r>     5.1839    15.3426    53.3459 </r>
       <r>     5.2790    15.3138    54.8029 </r>
       <r>     5.3742    14.7681    56.2080 </r>
       <r>     5.4693    13.7930    57.5203 </r>
       <r>     5.5645    12.7035    58.7290 </r>
       <r>     5.6596    11.5506    59.8279 </r>
       <r>     5.7548    10.0243    60.7817 </r>
       <r>     5.8499     7.9479    61.5379 </r>
       <r>     5.9450     5.6706    62.0774 </r>
       <r>     6.0402     3.8081    62.4397 </r>
       <r>     6.1353     2.6888    62.6956 </r>
       <r>     6.2305     2.1697    62.9020 </r>
       <r>     6.3256     1.9163    63.0843 </r>
       <r>     6.4208     1.7276    63.2487 </r>
       <r>     6.5159     1.5889    63.3999 </r>
       <r>     6.6110     1.5267    63.5451 </r>
       <r>     6.7062     1.5083    63.6886 </r>
       <r>     6.8013     1.4813    63.8296 </r>
       <r>     6.8965     1.4470    63.9672 </r>
       <r>     6.9916     1.4512    64.1053 </r>
       <r>     7.0868     1.5128    64.2492 </r>
       <r>     7.1819     1.5881    64.4003 </r>
       <r>     7.2771     1.6120    64.5537 </r>
       <r>     7.3722     1.5656    64.7027 </r>
       <r>     7.4673     1.4991    64.8453 </r>
       <r>     7.5625     1.4898    64.9871 </r>
       <r>     7.6576     1.5682    65.1363 </r>
       <r>     7.7528     1.6832    65.2964 </r>
       <r>     7.8479     1.7500    65.4629 </r>
       <r>     7.9431     1.7287    65.6274 </r>
       <r>     8.0382     1.6488    65.7842 </r>
       <r>     8.1334     1.5747    65.9341 </r>
       <r>     8.2285     1.5650    66.0830 </r>
       <r>     8.3236     1.6358    66.2386 </r>
       <r>     8.4188     1.7331    66.4035 </r>
       <r>     8.5139     1.7678    66.5717 </r>
       <r>     8.6091     1.7072    66.7341 </r>
       <r>     8.7042     1.6123    66.8875 </r>
       <r>     8.7994     1.5651    67.0364 </r>
       <r>     8.8945     1.5846    67.1872 </r>
       <r>     8.9897     1.6328    67.3425 </r>
       <r>     9.0848     1.6697    67.5014 </r>
       <r>     9.1799     1.6781    67.6611 </r>
       <r>     9.2751     1.6592    67.8189 </r>
       <r>     9.3702     1.6311    67.9741 </r>
       <r>     9.4654     1.6196    68.1282 </r>
       <r>     9.5605     1.6325    68.2835 </r>
       <r>     9.6557     1.6498    68.4405 </r>
       <r>     9.7508     1.6510    68.5976 </r>
       <r>     9.8459     1.6409    68.7537 </r>
       <r>     9.9411     1.6337    68.9092 </r>
       <r>    10.0362     1.6231    69.0636 </r>
       <r>    10.1314     1.5892    69.2148 </r>
       <r>    10.2265     1.5325    69.3606 </r>
       <r>    10.3217     1.4777    69.5012 </r>
       <r>    10.4168     1.4410    69.6383 </r>
       <r>    10.5120     1.4112    69.7725 </r>
       <r>    10.6071     1.3696    69.9029 </r>
       <r>    10.7022     1.3141    70.0279 </r>
       <r>    10.7974     1.2580    70.1476 </r>
       <r>    10.8925     1.2146    70.2631 </r>
       <r>    10.9877     1.2011    70.3774 </r>
       <r>    11.0828     1.2515    70.4965 </r>
       <r>    11.1780     1.4002    70.6297 </r>
       <r>    11.2731     1.6319    70.7850 </r>
       <r>    11.3683     1.8662    70.9625 </r>
       <r>    11.4634     2.0215    71.1549 </r>
       <r>    11.5585     2.0965    71.3543 </r>
       <r>    11.6537     2.1534    71.5592 </r>
       <r>    11.7488     2.2191    71.7704 </r>
       <r>    11.8440     2.2400    71.9835 </r>
       <r>    11.9391     2.1564    72.1886 </r>
       <r>    12.0343     1.9927    72.3782 </r>
       <r>    12.1294     1.8456    72.5538 </r>
       <r>    12.2246     1.7922    72.7244 </r>
       <r>    12.3197     1.8287    72.8984 </r>
       <r>    12.4148     1.8919    73.0784 </r>
       <r>    12.5100     1.9227    73.2613 </r>
       <r>    12.6051     1.9094    73.4430 </r>
       <r>    12.7003     1.8767    73.6215 </r>
       <r>    12.7954     1.8401    73.7966 </r>
       <r>    12.8906     1.7919    73.9671 </r>
       <r>    12.9857     1.7332    74.1320 </r>
       <r>    13.0809     1.6925    74.2930 </r>
       <r>    13.1760     1.6910    74.4539 </r>
       <r>    13.2711     1.7115    74.6167 </r>
       <r>    13.3663     1.7241    74.7808 </r>
       <r>    13.4614     1.7289    74.9453 </r>
       <r>    13.5566     1.7481    75.1116 </r>
       <r>    13.6517     1.7792    75.2809 </r>
       <r>    13.7469     1.7840    75.4506 </r>
       <r>    13.8420     1.7330    75.6155 </r>
       <r>    13.9371     1.6434    75.7719 </r>
       <r>    14.0323     1.5619    75.9205 </r>
       <r>    14.1274     1.5211    76.0652 </r>
       <r>    14.2226     1.5240    76.2102 </r>
       <r>    14.3177     1.5593    76.3586 </r>
       <r>    14.4129     1.6107    76.5118 </r>
       <r>    14.5080     1.6546    76.6692 </r>
       <r>    14.6032     1.6681    76.8279 </r>
       <r>    14.6983     1.6426    76.9842 </r>
       <r>    14.7934     1.5817    77.1347 </r>
       <r>    14.8886     1.4919    77.2767 </r>
       <r>    14.9837     1.3793    77.4079 </r>
       <r>    15.0789     1.2553    77.5273 </r>
       <r>    15.1740     1.1408    77.6359 </r>
       <r>    15.2692     1.0591    77.7366 </r>
       <r>    15.3643     1.0133    77.8330 </r>
       <r>    15.4595     0.9766    77.9260 </r>
       <r>    15.5546     0.9196    78.0134 </r>
       <r>    15.6497     0.8485    78.0942 </r>
       <r>    15.7449     0.8022    78.1705 </r>
       <r>    15.8400     0.8037    78.2470 </r>
       <r>    15.9352     0.8280    78.3257 </r>
       <r>    16.0303     0.8263    78.4044 </r>
       <r>    16.1255     0.7746    78.4781 </r>
       <r>    16.2206     0.6896    78.5437 </r>
       <r>    16.3158     0.6073    78.6014 </r>
       <r>    16.4109     0.5570    78.6544 </r>
       <r>    16.5060     0.5494    78.7067 </r>
       <r>    16.6012     0.5705    78.7610 </r>
       <r>    16.6963     0.5853    78.8167 </r>
       <r>    16.7915     0.5623    78.8702 </r>
       <r>    16.8866     0.5020    78.9179 </r>
       <r>    16.9818     0.4364    78.9595 </r>
       <r>    17.0769     0.4006    78.9976 </r>
       <r>    17.1720     0.4042    79.0360 </r>
       <r>    17.2672     0.4284    79.0768 </r>
       <r>    17.3623     0.4480    79.1194 </r>
       <r>    17.4575     0.4542    79.1626 </r>
       <r>    17.5526     0.4544    79.2059 </r>
       <r>    17.6478     0.4521    79.2489 </r>
       <r>    17.7429     0.4364    79.2904 </r>
       <r>    17.8381     0.3958    79.3281 </r>
       <r>    17.9332     0.3336    79.3598 </r>
       <r>    18.0283     0.2661    79.3851 </r>
       <r>    18.1235     0.2114    79.4052 </r>
       <r>    18.2186     0.1832    79.4227 </r>
       <r>    18.3138     0.1893    79.4407 </r>
       <r>    18.4089     0.2288    79.4624 </r>
       <r>    18.5041     0.2910    79.4901 </r>
       <r>    18.5992     0.3568    79.5241 </r>
       <r>    18.6944     0.4001    79.5621 </r>
       <r>    18.7895     0.3928    79.5995 </r>
       <r>    18.8846     0.3242    79.6303 </r>
       <r>    18.9798     0.2203    79.6513 </r>
       <r>    19.0749     0.1331    79.6640 </r>
       <r>    19.1701     0.0995    79.6734 </r>
       <r>    19.2652     0.1112    79.6840 </r>
       <r>    19.3604     0.1293    79.6963 </r>
       <r>    19.4555     0.1282    79.7085 </r>
       <r>    19.5507     0.1207    79.7200 </r>
       <r>    19.6458     0.1411    79.7334 </r>
       <r>    19.7409     0.2041    79.7528 </r>
       <r>    19.8361     0.2812    79.7796 </r>
       <r>    19.9312     0.3180    79.8099 </r>
       <r>    20.0264     0.2796    79.8365 </r>
       <r>    20.1215     0.1837    79.8539 </r>
       <r>    20.2167     0.0855    79.8621 </r>
       <r>    20.3118     0.0315    79.8651 </r>
       <r>    20.4069     0.0277    79.8677 </r>
       <r>    20.5021     0.0468    79.8722 </r>
       <r>    20.5972     0.0601    79.8779 </r>
       <r>    20.6924     0.0633    79.8839 </r>
       <r>    20.7875     0.0758    79.8911 </r>
       <r>    20.8827     0.1141    79.9020 </r>
       <r>    20.9778     0.1674    79.9179 </r>
       <r>    21.0730     0.2008    79.9370 </r>
       <r>    21.1681     0.1861    79.9547 </r>
       <r>    21.2632     0.1283    79.9669 </r>
       <r>    21.3584     0.0603    79.9727 </r>
       <r>    21.4535     0.0133    79.9739 </r>
       <r>    21.5487    -0.0033    79.9736 </r>
       <r>    21.6438     0.0017    79.9738 </r>
       <r>    21.7390     0.0153    79.9752 </r>
       <r>    21.8341     0.0297    79.9780 </r>
       <r>    21.9293     0.0418    79.9820 </r>
       <r>    22.0244     0.0499    79.9868 </r>
       <r>    22.1195     0.0512    79.9916 </r>
       <r>    22.2147     0.0437    79.9958 </r>
       <r>    22.3098     0.0297    79.9986 </r>
       <r>    22.4050     0.0149    80.0000 </r>
       <r>    22.5001     0.0043    80.0005 </r>
       <r>    22.5953    -0.0007    80.0004 </r>
       <r>    22.6904    -0.0018    80.0002 </r>
       <r>    22.7856    -0.0013    80.0001 </r>
       <r>    22.8807    -0.0006    80.0000 </r>
       <r>    22.9758    -0.0002    80.0000 </r>
       <r>    23.0710    -0.0001    80.0000 </r>
       <r>    23.1661     0.0000    80.0000 </r>
       <r>    23.2613     0.0000    80.0000 </r>
       <r>    23.3564     0.0000    80.0000 </r>
       <r>    23.4516     0.0000    80.0000 </r>
       <r>    23.5467     0.0000    80.0000 </r>
       <r>    23.6418     0.0000    80.0000 </r>
       <r>    23.7370     0.0000    80.0000 </r>
       <r>    23.8321     0.0000    80.0000 </r>
       <r>    23.9273     0.0000    80.0000 </r>
       <r>    24.0224     0.0000    80.0000 </r>
       <r>    24.1176     0.0000    80.0000 </r>
       <r>    24.2127     0.0000    80.0000 </r>
       <r>    24.3079     0.0000    80.0000 </r>
       <r>    24.4030     0.0000    80.0000 </r>
       <r>    24.4981     0.0000    80.0000 </r>
       <r>    24.5933     0.0000    80.0000 </r>
       <r>    24.6884     0.0000    80.0000 </r>
       <r>    24.7836     0.0000    80.0000 </r>
       <r>    24.8787     0.0000    80.0000 </r>
       <r>    24.9739     0.0000    80.0000 </r>
       <r>    25.0690     0.0000    80.0000 </r>
       <r>    25.1642     0.0000    80.0000 </r>
       <r>    25.2593     0.0000    80.0000 </r>
      </set>
     </set>
    </array>
   </total>
  </dos>
 </calculation>
 <structure name="finalpos" >
  <crystal>
   <varray name="basis" >
    <v>       2.07104037       0.00000000       2.07104037 </v>
    <v>       0.00000000      -2.07104037      -2.07104037 </v>
    <v>       8.30141253       8.30141253      -8.30141253 </v>
   </varray>
   <i name="volume">    106.81946050 </i>
   <varray name="rec_basis" >
    <v>       0.32189941      -0.16094970       0.16094970 </v>
    <v>       0.16094970      -0.32189941      -0.16094970 </v>
    <v>       0.04015381       0.04015381      -0.04015381 </v>
   </varray>
  </crystal>
  <varray name="positions" >
   <v>       0.33333333       0.66666667       0.16666667 </v>
   <v>       0.00000000       0.00000000       0.50055486 </v>
   <v>       0.33333333       0.66666667       0.66666667 </v>
   <v>       0.66666667       0.33333333       0.83277848 </v>
   <v>       0.00000000       0.00000000       0.00017057 </v>
   <v>       0.66666667       0.33333333       0.33316277 </v>
  </varray>
 </structure>
</modeling>
