<?xml version="1.0" encoding="ISO-8859-1"?>
<modeling>
 <generator>
  <i name="program" type="string">vasp </i>
  <i name="version" type="string">5.3.5  </i>
  <i name="subversion" type="string">31Mar14 (build Jun 20 2014 13:15:13) complex                          parallel </i>
  <i name="platform" type="string">LinuxIFC </i>
  <i name="date" type="string">2025 11 21 </i>
  <i name="time" type="string">10:22:58 </i>
 </generator>
 <incar>
  <i type="string" name="PREC">accurate</i>
  <i type="int" name="IALGO">    68</i>
  <i type="logical" name="ADDGRID"> T  </i>
  <i type="int" name="NELM">   100</i>
  <i type="int" name="NELMIN">     4</i>
  <i type="int" name="IBRION">     2</i>
  <i name="EDIFF">      0.00000100</i>
  <i name="EDIFFG">     -0.02000000</i>
  <i type="int" name="NSW">    30</i>
  <i type="int" name="ISIF">     3</i>
  <i name="ENCUT">    500.00000000</i>
  <i type="logical" name="LREAL"> F  </i>
  <i type="int" name="ISMEAR">     1</i>
  <i name="SIGMA">      0.30000000</i>
  <i type="logical" name="LWAVE"> F  </i>
  <i type="logical" name="LCHARG"> F  </i>
  <i type="int" name="NELM">   100</i>
 </incar>
 <kpoints>
  <generation param="Auto">
   <i name="subdivisionlength">     70.00000000 </i>
   <v type="int" name="divisions">      17       17       17 </v>
   <v name="usershift">      0.00000000       0.00000000       0.00000000 </v>
   <v name="genvec1">      0.05882353       0.00000000       0.00000000 </v>
   <v name="genvec2">      0.00000000       0.05882353       0.00000000 </v>
   <v name="genvec3">      0.00000000       0.00000000       0.05882353 </v>
   <v name="shift">      0.00000000       0.00000000       0.00000000 </v>
  </generation>
  <varray name="kpointlist" >
   <v>       0.00000000       0.00000000       0.00000000 </v>
   <v>       0.05882353       0.00000000       0.00000000 </v>
   <v>       0.11764706       0.00000000       0.00000000 </v>
   <v>       0.17647059       0.00000000       0.00000000 </v>
   <v>       0.23529412       0.00000000       0.00000000 </v>
   <v>       0.29411765       0.00000000       0.00000000 </v>
   <v>       0.35294118       0.00000000       0.00000000 </v>
   <v>       0.41176471       0.00000000       0.00000000 </v>
   <v>       0.47058824       0.00000000       0.00000000 </v>
   <v>       0.05882353       0.05882353       0.00000000 </v>
   <v>       0.11764706       0.05882353       0.00000000 </v>
   <v>       0.17647059       0.05882353       0.00000000 </v>
   <v>       0.23529412       0.05882353       0.00000000 </v>
   <v>       0.29411765       0.05882353       0.00000000 </v>
   <v>       0.35294118       0.05882353       0.00000000 </v>
   <v>       0.41176471       0.05882353       0.00000000 </v>
   <v>       0.47058824       0.05882353       0.00000000 </v>
   <v>       0.11764706       0.11764706       0.00000000 </v>
   <v>       0.17647059       0.11764706       0.00000000 </v>
   <v>       0.23529412       0.11764706       0.00000000 </v>
   <v>       0.29411765       0.11764706       0.00000000 </v>
   <v>       0.35294118       0.11764706       0.00000000 </v>
   <v>       0.41176471       0.11764706       0.00000000 </v>
   <v>       0.47058824       0.11764706       0.00000000 </v>
   <v>       0.17647059       0.17647059       0.00000000 </v>
   <v>       0.23529412       0.17647059       0.00000000 </v>
   <v>       0.29411765       0.17647059       0.00000000 </v>
   <v>       0.35294118       0.17647059       0.00000000 </v>
   <v>       0.41176471       0.17647059       0.00000000 </v>
   <v>       0.47058824       0.17647059       0.00000000 </v>
   <v>       0.23529412       0.23529412       0.00000000 </v>
   <v>       0.29411765       0.23529412       0.00000000 </v>
   <v>       0.35294118       0.23529412       0.00000000 </v>
   <v>       0.41176471       0.23529412       0.00000000 </v>
   <v>       0.47058824       0.23529412       0.00000000 </v>
   <v>       0.29411765       0.29411765       0.00000000 </v>
   <v>       0.35294118       0.29411765       0.00000000 </v>
   <v>       0.41176471       0.29411765       0.00000000 </v>
   <v>       0.47058824       0.29411765       0.00000000 </v>
   <v>       0.35294118       0.35294118       0.00000000 </v>
   <v>       0.41176471       0.35294118       0.00000000 </v>
   <v>       0.47058824       0.35294118       0.00000000 </v>
   <v>       0.41176471       0.41176471       0.00000000 </v>
   <v>       0.47058824       0.41176471       0.00000000 </v>
   <v>       0.47058824       0.47058824       0.00000000 </v>
   <v>       0.05882353       0.05882353       0.05882353 </v>
   <v>       0.11764706       0.05882353       0.05882353 </v>
   <v>       0.17647059       0.05882353       0.05882353 </v>
   <v>       0.23529412       0.05882353       0.05882353 </v>
   <v>       0.29411765       0.05882353       0.05882353 </v>
   <v>       0.35294118       0.05882353       0.05882353 </v>
   <v>       0.41176471       0.05882353       0.05882353 </v>
   <v>       0.47058824       0.05882353       0.05882353 </v>
   <v>       0.11764706       0.11764706       0.05882353 </v>
   <v>       0.17647059       0.11764706       0.05882353 </v>
   <v>       0.23529412       0.11764706       0.05882353 </v>
   <v>       0.29411765       0.11764706       0.05882353 </v>
   <v>       0.35294118       0.11764706       0.05882353 </v>
   <v>       0.41176471       0.11764706       0.05882353 </v>
   <v>       0.47058824       0.11764706       0.05882353 </v>
   <v>       0.17647059       0.17647059       0.05882353 </v>
   <v>       0.23529412       0.17647059       0.05882353 </v>
   <v>       0.29411765       0.17647059       0.05882353 </v>
   <v>       0.35294118       0.17647059       0.05882353 </v>
   <v>       0.41176471       0.17647059       0.05882353 </v>
   <v>       0.47058824       0.17647059       0.05882353 </v>
   <v>       0.23529412       0.23529412       0.05882353 </v>
   <v>       0.29411765       0.23529412       0.05882353 </v>
   <v>       0.35294118       0.23529412       0.05882353 </v>
   <v>       0.41176471       0.23529412       0.05882353 </v>
   <v>       0.47058824       0.23529412       0.05882353 </v>
   <v>       0.29411765       0.29411765       0.05882353 </v>
   <v>       0.35294118       0.29411765       0.05882353 </v>
   <v>       0.41176471       0.29411765       0.05882353 </v>
   <v>       0.47058824       0.29411765       0.05882353 </v>
   <v>       0.35294118       0.35294118       0.05882353 </v>
   <v>       0.41176471       0.35294118       0.05882353 </v>
   <v>       0.47058824       0.35294118       0.05882353 </v>
   <v>       0.41176471       0.41176471       0.05882353 </v>
   <v>       0.47058824       0.41176471       0.05882353 </v>
   <v>       0.47058824       0.47058824       0.05882353 </v>
   <v>       0.11764706       0.11764706       0.11764706 </v>
   <v>       0.17647059       0.11764706       0.11764706 </v>
   <v>       0.23529412       0.11764706       0.11764706 </v>
   <v>       0.29411765       0.11764706       0.11764706 </v>
   <v>       0.35294118       0.11764706       0.11764706 </v>
   <v>       0.41176471       0.11764706       0.11764706 </v>
   <v>       0.47058824       0.11764706       0.11764706 </v>
   <v>       0.17647059       0.17647059       0.11764706 </v>
   <v>       0.23529412       0.17647059       0.11764706 </v>
   <v>       0.29411765       0.17647059       0.11764706 </v>
   <v>       0.35294118       0.17647059       0.11764706 </v>
   <v>       0.41176471       0.17647059       0.11764706 </v>
   <v>       0.47058824       0.17647059       0.11764706 </v>
   <v>       0.23529412       0.23529412       0.11764706 </v>
   <v>       0.29411765       0.23529412       0.11764706 </v>
   <v>       0.35294118       0.23529412       0.11764706 </v>
   <v>       0.41176471       0.23529412       0.11764706 </v>
   <v>       0.47058824       0.23529412       0.11764706 </v>
   <v>       0.29411765       0.29411765       0.11764706 </v>
   <v>       0.35294118       0.29411765       0.11764706 </v>
   <v>       0.41176471       0.29411765       0.11764706 </v>
   <v>       0.47058824       0.29411765       0.11764706 </v>
   <v>       0.35294118       0.35294118       0.11764706 </v>
   <v>       0.41176471       0.35294118       0.11764706 </v>
   <v>       0.47058824       0.35294118       0.11764706 </v>
   <v>       0.41176471       0.41176471       0.11764706 </v>
   <v>       0.47058824       0.41176471       0.11764706 </v>
   <v>       0.47058824       0.47058824       0.11764706 </v>
   <v>       0.17647059       0.17647059       0.17647059 </v>
   <v>       0.23529412       0.17647059       0.17647059 </v>
   <v>       0.29411765       0.17647059       0.17647059 </v>
   <v>       0.35294118       0.17647059       0.17647059 </v>
   <v>       0.41176471       0.17647059       0.17647059 </v>
   <v>       0.47058824       0.17647059       0.17647059 </v>
   <v>       0.23529412       0.23529412       0.17647059 </v>
   <v>       0.29411765       0.23529412       0.17647059 </v>
   <v>       0.35294118       0.23529412       0.17647059 </v>
   <v>       0.41176471       0.23529412       0.17647059 </v>
   <v>       0.47058824       0.23529412       0.17647059 </v>
   <v>       0.29411765       0.29411765       0.17647059 </v>
   <v>       0.35294118       0.29411765       0.17647059 </v>
   <v>       0.41176471       0.29411765       0.17647059 </v>
   <v>       0.47058824       0.29411765       0.17647059 </v>
   <v>       0.35294118       0.35294118       0.17647059 </v>
   <v>       0.41176471       0.35294118       0.17647059 </v>
   <v>       0.47058824       0.35294118       0.17647059 </v>
   <v>       0.41176471       0.41176471       0.17647059 </v>
   <v>       0.47058824       0.41176471       0.17647059 </v>
   <v>       0.47058824       0.47058824       0.17647059 </v>
   <v>       0.23529412       0.23529412       0.23529412 </v>
   <v>       0.29411765       0.23529412       0.23529412 </v>
   <v>       0.35294118       0.23529412       0.23529412 </v>
   <v>       0.41176471       0.23529412       0.23529412 </v>
   <v>       0.47058824       0.23529412       0.23529412 </v>
   <v>       0.29411765       0.29411765       0.23529412 </v>
   <v>       0.35294118       0.29411765       0.23529412 </v>
   <v>       0.41176471       0.29411765       0.23529412 </v>
   <v>       0.47058824       0.29411765       0.23529412 </v>
   <v>       0.35294118       0.35294118       0.23529412 </v>
   <v>       0.41176471       0.35294118       0.23529412 </v>
   <v>       0.47058824       0.35294118       0.23529412 </v>
   <v>       0.41176471       0.41176471       0.23529412 </v>
   <v>       0.47058824       0.41176471       0.23529412 </v>
   <v>       0.47058824       0.47058824       0.23529412 </v>
   <v>       0.29411765       0.29411765       0.29411765 </v>
   <v>       0.35294118       0.29411765       0.29411765 </v>
   <v>       0.41176471       0.29411765       0.29411765 </v>
   <v>       0.47058824       0.29411765       0.29411765 </v>
   <v>       0.35294118       0.35294118       0.29411765 </v>
   <v>       0.41176471       0.35294118       0.29411765 </v>
   <v>       0.47058824       0.35294118       0.29411765 </v>
   <v>       0.41176471       0.41176471       0.29411765 </v>
   <v>       0.47058824       0.41176471       0.29411765 </v>
   <v>       0.47058824       0.47058824       0.29411765 </v>
   <v>       0.35294118       0.35294118       0.35294118 </v>
   <v>       0.41176471       0.35294118       0.35294118 </v>
   <v>       0.47058824       0.35294118       0.35294118 </v>
   <v>       0.41176471       0.41176471       0.35294118 </v>
   <v>       0.47058824       0.41176471       0.35294118 </v>
   <v>       0.47058824       0.47058824       0.35294118 </v>
   <v>       0.41176471       0.41176471       0.41176471 </v>
   <v>       0.47058824       0.41176471       0.41176471 </v>
   <v>       0.47058824       0.47058824       0.41176471 </v>
   <v>       0.47058824       0.47058824       0.47058824 </v>
  </varray>
  <varray name="weights" >
   <v>       0.00020354 </v>
   <v>       0.00122125 </v>
   <v>       0.00122125 </v>
   <v>       0.00122125 </v>
   <v>       0.00122125 </v>
   <v>       0.00122125 </v>
   <v>       0.00122125 </v>
   <v>       0.00122125 </v>
   <v>       0.00122125 </v>
   <v>       0.00244250 </v>
   <v>       0.00488500 </v>
   <v>       0.00488500 </v>
   <v>       0.00488500 </v>
   <v>       0.00488500 </v>
   <v>       0.00488500 </v>
   <v>       0.00488500 </v>
   <v>       0.00488500 </v>
   <v>       0.00244250 </v>
   <v>       0.00488500 </v>
   <v>       0.00488500 </v>
   <v>       0.00488500 </v>
   <v>       0.00488500 </v>
   <v>       0.00488500 </v>
   <v>       0.00488500 </v>
   <v>       0.00244250 </v>
   <v>       0.00488500 </v>
   <v>       0.00488500 </v>
   <v>       0.00488500 </v>
   <v>       0.00488500 </v>
   <v>       0.00488500 </v>
   <v>       0.00244250 </v>
   <v>       0.00488500 </v>
   <v>       0.00488500 </v>
   <v>       0.00488500 </v>
   <v>       0.00488500 </v>
   <v>       0.00244250 </v>
   <v>       0.00488500 </v>
   <v>       0.00488500 </v>
   <v>       0.00488500 </v>
   <v>       0.00244250 </v>
   <v>       0.00488500 </v>
   <v>       0.00488500 </v>
   <v>       0.00244250 </v>
   <v>       0.00488500 </v>
   <v>       0.00244250 </v>
   <v>       0.00162833 </v>
   <v>       0.00488500 </v>
   <v>       0.00488500 </v>
   <v>       0.00488500 </v>
   <v>       0.00488500 </v>
   <v>       0.00488500 </v>
   <v>       0.00488500 </v>
   <v>       0.00488500 </v>
   <v>       0.00488500 </v>
   <v>       0.00977000 </v>
   <v>       0.00977000 </v>
   <v>       0.00977000 </v>
   <v>       0.00977000 </v>
   <v>       0.00977000 </v>
   <v>       0.00977000 </v>
   <v>       0.00488500 </v>
   <v>       0.00977000 </v>
   <v>       0.00977000 </v>
   <v>       0.00977000 </v>
   <v>       0.00977000 </v>
   <v>       0.00977000 </v>
   <v>       0.00488500 </v>
   <v>       0.00977000 </v>
   <v>       0.00977000 </v>
   <v>       0.00977000 </v>
   <v>       0.00977000 </v>
   <v>       0.00488500 </v>
   <v>       0.00977000 </v>
   <v>       0.00977000 </v>
   <v>       0.00977000 </v>
   <v>       0.00488500 </v>
   <v>       0.00977000 </v>
   <v>       0.00977000 </v>
   <v>       0.00488500 </v>
   <v>       0.00977000 </v>
   <v>       0.00488500 </v>
   <v>       0.00162833 </v>
   <v>       0.00488500 </v>
   <v>       0.00488500 </v>
   <v>       0.00488500 </v>
   <v>       0.00488500 </v>
   <v>       0.00488500 </v>
   <v>       0.00488500 </v>
   <v>       0.00488500 </v>
   <v>       0.00977000 </v>
   <v>       0.00977000 </v>
   <v>       0.00977000 </v>
   <v>       0.00977000 </v>
   <v>       0.00977000 </v>
   <v>       0.00488500 </v>
   <v>       0.00977000 </v>
   <v>       0.00977000 </v>
   <v>       0.00977000 </v>
   <v>       0.00977000 </v>
   <v>       0.00488500 </v>
   <v>       0.00977000 </v>
   <v>       0.00977000 </v>
   <v>       0.00977000 </v>
   <v>       0.00488500 </v>
   <v>       0.00977000 </v>
   <v>       0.00977000 </v>
   <v>       0.00488500 </v>
   <v>       0.00977000 </v>
   <v>       0.00488500 </v>
   <v>       0.00162833 </v>
   <v>       0.00488500 </v>
   <v>       0.00488500 </v>
   <v>       0.00488500 </v>
   <v>       0.00488500 </v>
   <v>       0.00488500 </v>
   <v>       0.00488500 </v>
   <v>       0.00977000 </v>
   <v>       0.00977000 </v>
   <v>       0.00977000 </v>
   <v>       0.00977000 </v>
   <v>       0.00488500 </v>
   <v>       0.00977000 </v>
   <v>       0.00977000 </v>
   <v>       0.00977000 </v>
   <v>       0.00488500 </v>
   <v>       0.00977000 </v>
   <v>       0.00977000 </v>
   <v>       0.00488500 </v>
   <v>       0.00977000 </v>
   <v>       0.00488500 </v>
   <v>       0.00162833 </v>
   <v>       0.00488500 </v>
   <v>       0.00488500 </v>
   <v>       0.00488500 </v>
   <v>       0.00488500 </v>
   <v>       0.00488500 </v>
   <v>       0.00977000 </v>
   <v>       0.00977000 </v>
   <v>       0.00977000 </v>
   <v>       0.00488500 </v>
   <v>       0.00977000 </v>
   <v>       0.00977000 </v>
   <v>       0.00488500 </v>
   <v>       0.00977000 </v>
   <v>       0.00488500 </v>
   <v>       0.00162833 </v>
   <v>       0.00488500 </v>
   <v>       0.00488500 </v>
   <v>       0.00488500 </v>
   <v>       0.00488500 </v>
   <v>       0.00977000 </v>
   <v>       0.00977000 </v>
   <v>       0.00488500 </v>
   <v>       0.00977000 </v>
   <v>       0.00488500 </v>
   <v>       0.00162833 </v>
   <v>       0.00488500 </v>
   <v>       0.00488500 </v>
   <v>       0.00488500 </v>
   <v>       0.00977000 </v>
   <v>       0.00488500 </v>
   <v>       0.00162833 </v>
   <v>       0.00488500 </v>
   <v>       0.00488500 </v>
   <v>       0.00162833 </v>
  </varray>
 </kpoints>
 <parameters>
  <separator name="general" >
   <i type="string" name="SYSTEM">unknown system</i>
   <i type="logical" name="LCOMPAT"> F  </i>
  </separator>
  <separator name="electronic" >
   <i type="string" name="PREC">accura</i>
   <i name="ENMAX">    500.00000000</i>
   <i name="ENAUG">    412.49600000</i>
   <i name="EDIFF">      0.00000100</i>
   <i type="int" name="IALGO">    68</i>
   <i type="int" name="IWAVPR">    11</i>
   <i type="int" name="NBANDS">    28</i>
   <i name="NELECT">     44.00000000</i>
   <i type="int" name="TURBO">     0</i>
   <i type="int" name="IRESTART">     0</i>
   <i type="int" name="NREBOOT">     0</i>
   <i type="int" name="NMIN">     0</i>
   <i name="EREF">      0.00000000</i>
   <separator name="electronic smearing" >
    <i type="int" name="ISMEAR">     1</i>
    <i name="SIGMA">      0.30000000</i>
    <i name="KSPACING">      0.50000000</i>
    <i type="logical" name="KGAMMA"> T  </i>
   </separator>
   <separator name="electronic projectors" >
    <i type="logical" name="LREAL"> F  </i>
    <v name="ROPT">      0.00000000      0.00000000</v>
    <i type="int" name="LMAXPAW">  -100</i>
    <i type="int" name="LMAXMIX">     2</i>
    <i type="logical" name="NLSPLINE"> F  </i>
   </separator>
   <separator name="electronic startup" >
    <i type="int" name="ISTART">     0</i>
    <i type="int" name="ICHARG">     2</i>
    <i type="int" name="INIWAV">     1</i>
   </separator>
   <separator name="electronic spin" >
    <i type="int" name="ISPIN">     1</i>
    <i type="logical" name="LNONCOLLINEAR"> F  </i>
    <v name="MAGMOM">      1.00000000      1.00000000      1.00000000      1.00000000</v>
    <i name="NUPDOWN">     -1.00000000</i>
    <i type="logical" name="LSORBIT"> F  </i>
    <v name="SAXIS">      0.00000000      0.00000000      1.00000000</v>
    <i type="logical" name="LSPIRAL"> F  </i>
    <v name="QSPIRAL">      0.00000000      0.00000000      0.00000000</v>
    <i type="logical" name="LZEROZ"> F  </i>
   </separator>
   <separator name="electronic exchange-correlation" >
    <i type="logical" name="LASPH"> F  </i>
    <i type="logical" name="LMETAGGA"> F  </i>
   </separator>
   <separator name="electronic convergence" >
    <i type="int" name="NELM">   100</i>
    <i type="int" name="NELMDL">     0</i>
    <i type="int" name="NELMIN">     4</i>
    <i name="ENINI">    500.00000000</i>
    <separator name="electronic convergence detail" >
     <i type="logical" name="LDIAG"> T  </i>
     <i type="logical" name="LSUBROT"> F  </i>
     <i name="WEIMIN">      0.00100000</i>
     <i name="EBREAK">      0.00000001</i>
     <i name="DEPER">      0.30000000</i>
     <i type="int" name="NRMM">     4</i>
     <i name="TIME">      0.40000000</i>
    </separator>
   </separator>
   <separator name="electronic mixer" >
    <i name="AMIX">      0.40000000</i>
    <i name="BMIX">      1.00000000</i>
    <i name="AMIN">      0.10000000</i>
    <i name="AMIX_MAG">      1.60000000</i>
    <i name="BMIX_MAG">      1.00000000</i>
    <separator name="electronic mixer details" >
     <i type="int" name="IMIX">     4</i>
     <i type="int" name="MAXMIX">   -45</i>
     <i name="WC">    100.00000000</i>
     <i type="int" name="INIMIX">     1</i>
     <i type="int" name="MIXPRE">     1</i>
     <i type="int" name="MREMOVE">     5</i>
    </separator>
   </separator>
   <separator name="electronic dipolcorrection" >
    <i type="logical" name="LDIPOL"> F  </i>
    <i type="logical" name="LMONO"> F  </i>
    <i type="int" name="IDIPOL">     0</i>
    <i name="EPSILON">      1.00000000</i>
    <v name="DIPOL">   -100.00000000   -100.00000000   -100.00000000</v>
    <i name="EFIELD">      0.00000000</i>
   </separator>
  </separator>
  <separator name="grids" >
   <i type="int" name="NGX">    30</i>
   <i type="int" name="NGY">    30</i>
   <i type="int" name="NGZ">    30</i>
   <i type="int" name="NGXF">    60</i>
   <i type="int" name="NGYF">    60</i>
   <i type="int" name="NGZF">    60</i>
   <i type="logical" name="ADDGRID"> T  </i>
  </separator>
  <separator name="ionic" >
   <i type="int" name="NSW">    30</i>
   <i type="int" name="IBRION">     2</i>
   <i type="int" name="ISIF">     3</i>
   <i name="PSTRESS">      0.00000000</i>
   <i name="EDIFFG">     -0.02000000</i>
   <i type="int" name="NFREE">     1</i>
   <i name="POTIM">      0.50000000</i>
   <i name="SMASS">     -3.00000000</i>
   <i name="SCALEE">      1.00000000</i>
  </separator>
  <separator name="ionic md" >
   <i name="TEBEG">      0.00010000</i>
   <i name="TEEND">      0.00010000</i>
   <i type="int" name="NBLOCK">     1</i>
   <i type="int" name="KBLOCK">    30</i>
   <i type="int" name="NPACO">   256</i>
   <i name="APACO">     16.00000000</i>
  </separator>
  <separator name="symmetry" >
   <i type="int" name="ISYM">     2</i>
   <i name="SYMPREC">      0.00001000</i>
  </separator>
  <separator name="dos" >
   <i type="logical" name="LORBIT"> F  </i>
   <v name="RWIGS">     -1.00000000     -1.00000000</v>
   <i type="int" name="NEDOS">   301</i>
   <i name="EMIN">     10.00000000</i>
   <i name="EMAX">    -10.00000000</i>
   <i name="EFERMI">      0.00000000</i>
  </separator>
  <separator name="writing" >
   <i type="int" name="NWRITE">     2</i>
   <i type="logical" name="LWAVE"> F  </i>
   <i type="logical" name="LCHARG"> F  </i>
   <i type="logical" name="LPARD"> F  </i>
   <i type="logical" name="LVTOT"> F  </i>
   <i type="logical" name="LVHAR"> F  </i>
   <i type="logical" name="LELF"> F  </i>
   <i type="logical" name="LOPTICS"> F  </i>
   <v name="STM">      0.00000000      0.00000000      0.00000000      0.00000000      0.00000000      0.00000000      0.00000000</v>
  </separator>
  <separator name="performance" >
   <i type="int" name="NPAR">     4</i>
   <i type="int" name="NSIM">     4</i>
   <i type="int" name="NBLK">    -1</i>
   <i type="logical" name="LPLANE"> T  </i>
   <i type="logical" name="LSCALAPACK"> T  </i>
   <i type="logical" name="LSCAAWARE"> F  </i>
   <i type="logical" name="LSCALU"> F  </i>
   <i type="logical" name="LASYNC"> F  </i>
   <i type="logical" name="LORBITALREAL"> F  </i>
  </separator>
  <separator name="miscellaneous" >
   <i type="int" name="IDIOT">     3</i>
   <i type="logical" name="LMUSIC"> F  </i>
   <v name="POMASS">    107.86800000    196.96600000</v>
   <v name="DARWINR">      0.00000000      0.00000000</v>
   <v name="DARWINV">      1.00000000      1.00000000</v>
   <i type="logical" name="LCORR"> T  </i>
  </separator>
  <i type="logical" name="GGA_COMPAT"> T  </i>
  <i type="logical" name="LBERRY"> F  </i>
  <i type="int" name="ICORELEVEL">     0</i>
  <i type="logical" name="LDAU"> F  </i>
  <i type="int" name="I_CONSTRAINED_M">     0</i>
  <separator name="electronic exchange-correlation" >
   <i type="string" name="GGA">--</i>
   <i type="int" name="VOSKOWN">     0</i>
   <i type="logical" name="LHFCALC"> F  </i>
   <i type="string" name="PRECFOCK"></i>
   <i type="logical" name="LSYMGRAD"> F  </i>
   <i type="logical" name="LHFONE"> F  </i>
   <i type="logical" name="LRHFCALC"> F  </i>
   <i type="logical" name="LTHOMAS"> F  </i>
   <i type="logical" name="LMODELHF"> F  </i>
   <i name="ENCUT4O">     -1.00000000</i>
   <i type="int" name="EXXOEP">     0</i>
   <i type="int" name="FOURORBIT">     0</i>
   <i name="AEXX">      0.00000000</i>
   <i name="HFALPHA">      0.00000000</i>
   <i name="MCALPHA">      0.00000000</i>
   <i name="ALDAX">      1.00000000</i>
   <i name="AGGAX">      1.00000000</i>
   <i name="ALDAC">      1.00000000</i>
   <i name="AGGAC">      1.00000000</i>
   <i type="int" name="NKREDX">     1</i>
   <i type="int" name="NKREDY">     1</i>
   <i type="int" name="NKREDZ">     1</i>
   <i type="logical" name="SHIFTRED"> F  </i>
   <i type="logical" name="ODDONLY"> F  </i>
   <i type="logical" name="EVENONLY"> F  </i>
   <i type="int" name="LMAXFOCK">     0</i>
   <i type="int" name="NMAXFOCKAE">     0</i>
   <i type="logical" name="LFOCKAEDFT"> F  </i>
   <i name="HFSCREEN">      0.00000000</i>
   <i name="HFSCREENC">      0.00000000</i>
   <i type="int" name="NBANDSGWLOW">     0</i>
  </separator>
  <separator name="vdW DFT" >
   <i type="logical" name="LUSE_VDW"> F  </i>
   <i name="Zab_VDW">     -0.84910000</i>
   <i name="PARAM1">      0.12340000</i>
   <i name="PARAM2">      1.00000000</i>
   <i name="PARAM3">      0.00000000</i>
  </separator>
  <separator name="model GW" >
   <i type="int" name="MODEL_GW">     0</i>
   <i name="MODEL_EPS0">     10.72218485</i>
   <i name="MODEL_ALPHA">      1.00000000</i>
  </separator>
  <separator name="linear response parameters" >
   <i type="logical" name="LEPSILON"> F  </i>
   <i type="logical" name="LRPA"> F  </i>
   <i type="logical" name="LNABLA"> F  </i>
   <i type="logical" name="LVEL"> F  </i>
   <i type="int" name="KINTER">     0</i>
   <i name="CSHIFT">      0.10000000</i>
   <i name="OMEGAMAX">     -1.00000000</i>
   <i name="DEG_THRESHOLD">      0.00200000</i>
  </separator>
  <separator name="orbital magnetization" >
   <i type="logical" name="NUCIND"> F  </i>
   <v name="MAGPOS">      0.00000000      0.00000000      0.00000000</v>
   <i type="logical" name="LNICSALL"> T  </i>
   <i type="logical" name="ORBITALMAG"> F  </i>
   <i type="logical" name="LMAGBLOCH"> F  </i>
   <i type="logical" name="LCHIMAG"> F  </i>
   <i type="logical" name="LGAUGE"> T  </i>
   <i type="int" name="MAGATOM">     0</i>
   <v name="MAGDIPOL">      0.00000000      0.00000000      0.00000000</v>
   <v name="AVECCONST">      0.00000000      0.00000000      0.00000000</v>
  </separator>
  <separator name="response functions" >
   <i type="logical" name="LADDER"> F  </i>
   <i type="logical" name="LFXC"> F  </i>
   <i type="logical" name="LHARTREE"> T  </i>
   <i type="int" name="IBSE">     0</i>
   <i type="logical" name="LTCTE"> F  </i>
   <i type="logical" name="LTETE"> F  </i>
   <i type="logical" name="LTRIPLET"> F  </i>
   <i type="logical" name="LFXCEPS"> F  </i>
   <i type="logical" name="LFXHEG"> F  </i>
   <i type="logical" name="L2ORDER"> F  </i>
   <i type="logical" name="LUSEW"> F  </i>
   <i name="ENCUTGW">     -2.00000000</i>
   <i name="ENCUTGWSOFT">     -2.00000000</i>
   <i name="ENCUTLF">     -1.00000000</i>
   <i type="int" name="LMAXMP2">    -1</i>
   <i name="SCISSOR">      0.00000000</i>
   <i type="int" name="NOMEGA">     0</i>
   <i type="int" name="NOMEGAR">     0</i>
   <i type="int" name="NBANDSGW">    -1</i>
   <i type="int" name="NBANDSO">    -1</i>
   <i type="int" name="NBANDSV">    -1</i>
   <i type="int" name="NELM">   100</i>
   <i type="int" name="DIM">     3</i>
   <i type="int" name="ANTIRES">     0</i>
   <i name="OMEGAMAX">    -30.00000000</i>
   <i name="OMEGAMIN">    -30.00000000</i>
   <i name="OMEGATL">   -200.00000000</i>
   <i type="int" name="OMEGAGRID">     0</i>
   <i name="CSHIFT">     -0.10000000</i>
   <i type="logical" name="SELFENERGY"> F  </i>
   <i type="logical" name="LSPECTRAL"> F  </i>
   <i type="logical" name="ODDONLYGW"> F  </i>
   <i type="logical" name="EVENONLYGW"> F  </i>
   <i type="int" name="NKREDLFX">     1</i>
   <i type="int" name="NKREDLFY">     1</i>
   <i type="int" name="NKREDLFZ">     1</i>
   <i type="int" name="MAXMEM">  1800</i>
   <i type="int" name="TELESCOPE">     0</i>
   <i type="int" name="TAUPAR">     1</i>
  </separator>
  <separator name="External order field" >
   <i name="OFIELD_KAPPA">      0.00000000</i>
   <v name="OFIELD_K">      0.00000000      0.00000000      0.00000000</v>
   <i name="OFIELD_Q6_NEAR">      0.00000000</i>
   <i name="OFIELD_Q6_FAR">      0.00000000</i>
   <i name="OFIELD_A">      0.00000000</i>
  </separator>
 </parameters>
 <atominfo>
  <atoms>       4 </atoms>
  <types>       2 </types>
  <array name="atoms" >
   <dimension dim="1">ion</dimension>
   <field type="string">element</field>
   <field type="int">atomtype</field>
   <set>
    <rc><c>Ag</c><c>   1</c></rc>
    <rc><c>Au</c><c>   2</c></rc>
    <rc><c>Au</c><c>   2</c></rc>
    <rc><c>Au</c><c>   2</c></rc>
   </set>
  </array>
  <array name="atomtypes" >
   <dimension dim="1">type</dimension>
   <field type="int">atomspertype</field>
   <field type="string">element</field>
   <field>mass</field>
   <field>valence</field>
   <field type="string">pseudopotential</field>
   <set>
    <rc><c>   1</c><c>Ag</c><c>    107.86800000</c><c>     11.00000000</c><c>  PAW_PBE Ag 02Apr2005                  </c></rc>
    <rc><c>   3</c><c>Au</c><c>    196.96600000</c><c>     11.00000000</c><c>  PAW_PBE Au 04Oct2007                  </c></rc>
   </set>
  </array>
 </atominfo>
 <structure name="initialpos" >
  <crystal>
   <varray name="basis" >
    <v>       0.00000000       4.15015207       0.00000000 </v>
    <v>       0.00000000       0.00000000       4.15015207 </v>
    <v>       4.15015207       0.00000000       0.00000000 </v>
   </varray>
   <i name="volume">     71.48123233 </i>
   <varray name="rec_basis" >
    <v>       0.00000000       0.24095503       0.00000000 </v>
    <v>       0.00000000       0.00000000       0.24095503 </v>
    <v>       0.24095503       0.00000000       0.00000000 </v>
   </varray>
  </crystal>
  <varray name="positions" >
   <v>       0.50000000       0.50000000       0.00000000 </v>
   <v>       0.00000000       0.00000000       0.00000000 </v>
   <v>       0.00000000       0.50000000       0.50000000 </v>
   <v>       0.50000000       0.00000000       0.50000000 </v>
  </varray>
 </structure>
 <calculation>
  <scstep>
   <time name="dav">    1.03    1.03</time>
   <time name="total">    1.05    1.06</time>
   <energy>
    <i name="alphaZ">    243.13885352 </i>
    <i name="ewald">  -3849.76046966 </i>
    <i name="hartreedc">   -600.12023808 </i>
    <i name="XCdc">     35.93588515 </i>
    <i name="pawpsdc">   3625.75465938 </i>
    <i name="pawaedc">  -3510.37967870 </i>
    <i name="eentropy">     -0.00281449 </i>
    <i name="bandstr">    525.21955813 </i>
    <i name="atom">   3815.50969821 </i>
    <i name="e_fr_energy">    285.29545347 </i>
    <i name="e_wo_entrp">    285.29826796 </i>
    <i name="e_0_energy">    285.29639163 </i>
   </energy>
  </scstep>
  <scstep>
   <time name="dav">    1.09    1.09</time>
   <time name="total">    1.10    1.11</time>
   <energy>
    <i name="e_fr_energy">     -6.12704620 </i>
    <i name="e_wo_entrp">     -6.12385735 </i>
    <i name="e_0_energy">     -6.12598325 </i>
   </energy>
  </scstep>
  <scstep>
   <time name="dav">    1.09    1.09</time>
   <time name="total">    1.10    1.11</time>
   <energy>
    <i name="e_fr_energy">    -13.56535285 </i>
    <i name="e_wo_entrp">    -13.56510797 </i>
    <i name="e_0_energy">    -13.56527122 </i>
   </energy>
  </scstep>
  <scstep>
   <time name="dav">    1.07    1.07</time>
   <time name="total">    1.08    1.09</time>
   <energy>
    <i name="e_fr_energy">    -13.61520407 </i>
    <i name="e_wo_entrp">    -13.61497517 </i>
    <i name="e_0_energy">    -13.61512777 </i>
   </energy>
  </scstep>
  <scstep>
   <time name="dav">    1.08    1.08</time>
   <time name="total">    1.16    1.18</time>
   <energy>
    <i name="e_fr_energy">    -13.61562286 </i>
    <i name="e_wo_entrp">    -13.61539397 </i>
    <i name="e_0_energy">    -13.61554656 </i>
   </energy>
  </scstep>
  <scstep>
   <time name="diag">    0.30    0.30</time>
   <time name="diis">    0.37    0.37</time>
   <time name="orth">    0.05    0.05</time>
   <time name="total">    0.81    0.82</time>
   <energy>
    <i name="e_fr_energy">    -12.62244730 </i>
    <i name="e_wo_entrp">    -12.62196344 </i>
    <i name="e_0_energy">    -12.62228601 </i>
   </energy>
  </scstep>
  <scstep>
   <time name="diag">    0.30    0.30</time>
   <time name="diis">    0.37    0.37</time>
   <time name="orth">    0.05    0.05</time>
   <time name="total">    0.81    0.82</time>
   <energy>
    <i name="e_fr_energy">    -12.57072048 </i>
    <i name="e_wo_entrp">    -12.57007907 </i>
    <i name="e_0_energy">    -12.57050668 </i>
   </energy>
  </scstep>
  <scstep>
   <time name="diag">    0.29    0.29</time>
   <time name="diis">    0.37    0.37</time>
   <time name="orth">    0.05    0.05</time>
   <time name="total">    0.81    0.82</time>
   <energy>
    <i name="e_fr_energy">    -12.56263192 </i>
    <i name="e_wo_entrp">    -12.56218261 </i>
    <i name="e_0_energy">    -12.56248215 </i>
   </energy>
  </scstep>
  <scstep>
   <time name="diag">    0.29    0.29</time>
   <time name="diis">    0.37    0.37</time>
   <time name="orth">    0.05    0.05</time>
   <time name="total">    0.81    0.82</time>
   <energy>
    <i name="e_fr_energy">    -12.56185967 </i>
    <i name="e_wo_entrp">    -12.56125556 </i>
    <i name="e_0_energy">    -12.56165830 </i>
   </energy>
  </scstep>
  <scstep>
   <time name="diag">    0.29    0.29</time>
   <time name="diis">    0.37    0.37</time>
   <time name="orth">    0.05    0.05</time>
   <time name="total">    0.81    0.83</time>
   <energy>
    <i name="e_fr_energy">    -12.56186352 </i>
    <i name="e_wo_entrp">    -12.56126402 </i>
    <i name="e_0_energy">    -12.56166369 </i>
   </energy>
  </scstep>
  <scstep>
   <time name="diag">    0.29    0.29</time>
   <time name="diis">    0.36    0.36</time>
   <time name="orth">    0.05    0.05</time>
   <time name="total">    0.81    0.82</time>
   <energy>
    <i name="e_fr_energy">    -12.56186963 </i>
    <i name="e_wo_entrp">    -12.56127324 </i>
    <i name="e_0_energy">    -12.56167083 </i>
   </energy>
  </scstep>
  <scstep>
   <time name="diag">    0.29    0.29</time>
   <time name="diis">    0.23    0.23</time>
   <time name="orth">    0.05    0.05</time>
   <time name="total">    0.61    0.62</time>
   <energy>
    <i name="alphaZ">    243.13885352 </i>
    <i name="ewald">  -3849.76046966 </i>
    <i name="hartreedc">   -554.93269878 </i>
    <i name="XCdc">     34.00193603 </i>
    <i name="pawpsdc">   4166.65587392 </i>
    <i name="pawaedc">  -4061.04486804 </i>
    <i name="eentropy">     -0.00059782 </i>
    <i name="bandstr">    193.87040398 </i>
    <i name="atom">   3815.50969821 </i>
    <i name="e_fr_energy">    -12.56186863 </i>
    <i name="e_wo_entrp">    -12.56127081 </i>
    <i name="e_0_energy">    -12.56166936 </i>
   </energy>
  </scstep>
  <structure>
   <crystal>
    <varray name="basis" >
     <v>       0.00000000       4.15015207       0.00000000 </v>
     <v>       0.00000000       0.00000000       4.15015207 </v>
     <v>       4.15015207       0.00000000       0.00000000 </v>
    </varray>
    <i name="volume">     71.48123233 </i>
    <varray name="rec_basis" >
     <v>       0.00000000       0.24095503       0.00000000 </v>
     <v>       0.00000000       0.00000000       0.24095503 </v>
     <v>       0.24095503       0.00000000       0.00000000 </v>
    </varray>
   </crystal>
   <varray name="positions" >
    <v>       0.50000000       0.50000000       0.00000000 </v>
    <v>       0.00000000       0.00000000       0.00000000 </v>
    <v>       0.00000000       0.50000000       0.50000000 </v>
    <v>       0.50000000       0.00000000       0.50000000 </v>
   </varray>
  </structure>
  <varray name="forces" >
   <v>       0.00000000       0.00000000       0.00000000 </v>
   <v>       0.00000000       0.00000000       0.00000000 </v>
   <v>       0.00000000       0.00000000       0.00000000 </v>
   <v>       0.00000000       0.00000000       0.00000000 </v>
  </varray>
  <varray name="stress" >
   <v>      -1.07599443       0.00000000       0.00000000 </v>
   <v>       0.00000000      -1.07599443       0.00000000 </v>
   <v>       0.00000000       0.00000000      -1.07599443 </v>
  </varray>
  <energy>
   <i name="e_fr_energy">    -12.56186863 </i>
   <i name="e_wo_entrp">    -12.56166936 </i>
   <i name="e_0_energy">     -0.00059782 </i>
  </energy>
  <time name="totalsc">   11.85   12.04</time>
  <eigenvalues>
   <array>
    <dimension dim="1">band</dimension>
    <dimension dim="2">kpoint</dimension>
    <dimension dim="3">spin</dimension>
    <field>eigene</field>
    <field>occ</field>
    <set>
     <set comment="spin 1">
      <set comment="kpoint 1">
       <r>   -0.4728    1.0000 </r>
       <r>    1.9832    1.0000 </r>
       <r>    1.9924    1.0000 </r>
       <r>    1.9924    1.0000 </r>
       <r>    2.2235    1.0000 </r>
       <r>    2.2235    1.0000 </r>
       <r>    2.2235    1.0000 </r>
       <r>    3.9753    1.0000 </r>
       <r>    3.9753    1.0000 </r>
       <r>    3.9753    1.0000 </r>
       <r>    5.1927    1.0000 </r>
       <r>    5.1927    1.0000 </r>
       <r>    6.1577    1.0000 </r>
       <r>    6.1577    1.0000 </r>
       <r>    6.2733    1.0000 </r>
       <r>    6.2733    1.0000 </r>
       <r>    6.2733    1.0000 </r>
       <r>    6.4603    1.0000 </r>
       <r>    6.7976    1.0000 </r>
       <r>    6.7976    1.0000 </r>
       <r>    6.7976    1.0000 </r>
       <r>    9.7522    0.0000 </r>
       <r>    9.7522    0.0000 </r>
       <r>    9.7522    0.0000 </r>
       <r>   13.5951    0.0000 </r>
       <r>   13.5951    0.0000 </r>
       <r>   15.4522    0.0000 </r>
       <r>   18.4507    0.0000 </r>
      </set>
      <set comment="kpoint 2">
       <r>   -0.4352    1.0000 </r>
       <r>    2.0020    1.0000 </r>
       <r>    2.0100    1.0000 </r>
       <r>    2.0168    1.0000 </r>
       <r>    2.2364    1.0000 </r>
       <r>    2.2432    1.0000 </r>
       <r>    2.2432    1.0000 </r>
       <r>    3.9579    1.0000 </r>
       <r>    3.9906    1.0000 </r>
       <r>    3.9906    1.0000 </r>
       <r>    5.1748    1.0000 </r>
       <r>    5.1992    1.0000 </r>
       <r>    6.1311    1.0000 </r>
       <r>    6.1465    1.0000 </r>
       <r>    6.2102    1.0000 </r>
       <r>    6.2102    1.0000 </r>
       <r>    6.2729    1.0000 </r>
       <r>    6.4378    1.0000 </r>
       <r>    6.7170    1.0000 </r>
       <r>    6.7170    1.0000 </r>
       <r>    6.7977    1.0000 </r>
       <r>    9.4481    0.0000 </r>
       <r>    9.8925    0.0000 </r>
       <r>    9.8925    0.0000 </r>
       <r>   13.5750    0.0000 </r>
       <r>   13.8415    0.0000 </r>
       <r>   15.5416    0.0000 </r>
       <r>   18.4085    0.0000 </r>
      </set>
      <set comment="kpoint 3">
       <r>   -0.3228    1.0000 </r>
       <r>    2.0425    1.0000 </r>
       <r>    2.0755    1.0000 </r>
       <r>    2.0888    1.0000 </r>
       <r>    2.2748    1.0000 </r>
       <r>    2.3021    1.0000 </r>
       <r>    2.3021    1.0000 </r>
       <r>    3.9068    1.0000 </r>
       <r>    4.0363    1.0000 </r>
       <r>    4.0363    1.0000 </r>
       <r>    5.1226    1.0000 </r>
       <r>    5.2187    1.0000 </r>
       <r>    6.0141    1.0000 </r>
       <r>    6.0141    1.0000 </r>
       <r>    6.0524    1.0000 </r>
       <r>    6.1114    1.0000 </r>
       <r>    6.2720    1.0000 </r>
       <r>    6.3736    1.0000 </r>
       <r>    6.5333    1.0000 </r>
       <r>    6.5333    1.0000 </r>
       <r>    6.7978    1.0000 </r>
       <r>    8.7423   -0.0169 </r>
       <r>   10.2647    0.0000 </r>
       <r>   10.2647    0.0000 </r>
       <r>   13.5171    0.0000 </r>
       <r>   14.2360    0.0000 </r>
       <r>   15.9545    0.0000 </r>
       <r>   18.1977    0.0000 </r>
      </set>
      <set comment="kpoint 4">
       <r>   -0.1383    1.0000 </r>
       <r>    2.1013    1.0000 </r>
       <r>    2.1830    1.0000 </r>
       <r>    2.2041    1.0000 </r>
       <r>    2.3378    1.0000 </r>
       <r>    2.4001    1.0000 </r>
       <r>    2.4001    1.0000 </r>
       <r>    3.8246    1.0000 </r>
       <r>    4.1116    1.0000 </r>
       <r>    4.1116    1.0000 </r>
       <r>    5.0399    1.0000 </r>
       <r>    5.2498    1.0000 </r>
       <r>    5.6985    1.0000 </r>
       <r>    5.6985    1.0000 </r>
       <r>    5.9262    1.0000 </r>
       <r>    6.0455    1.0000 </r>
       <r>    6.2706    1.0000 </r>
       <r>    6.2797    1.0000 </r>
       <r>    6.3248    1.0000 </r>
       <r>    6.3248    1.0000 </r>
       <r>    6.7981    1.0000 </r>
       <r>    7.9006    1.0118 </r>
       <r>   10.7838    0.0000 </r>
       <r>   10.7838    0.0000 </r>
       <r>   13.4289    0.0000 </r>
       <r>   14.3757    0.0000 </r>
       <r>   16.8450    0.0000 </r>
       <r>   17.8560    0.0000 </r>
      </set>
      <set comment="kpoint 5">
       <r>    0.1137    1.0000 </r>
       <r>    2.1698    1.0000 </r>
       <r>    2.3238    1.0000 </r>
       <r>    2.3550    1.0000 </r>
       <r>    2.4240    1.0000 </r>
       <r>    2.5369    1.0000 </r>
       <r>    2.5369    1.0000 </r>
       <r>    3.7152    1.0000 </r>
       <r>    4.2149    1.0000 </r>
       <r>    4.2149    1.0000 </r>
       <r>    4.9340    1.0000 </r>
       <r>    5.2904    1.0000 </r>
       <r>    5.3181    1.0000 </r>
       <r>    5.3181    1.0000 </r>
       <r>    5.7607    1.0000 </r>
       <r>    5.9362    1.0000 </r>
       <r>    6.1072    1.0000 </r>
       <r>    6.1072    1.0000 </r>
       <r>    6.1794    1.0000 </r>
       <r>    6.2690    1.0000 </r>
       <r>    6.7984    1.0000 </r>
       <r>    7.0533    1.0000 </r>
       <r>   11.3896    0.0000 </r>
       <r>   11.3896    0.0000 </r>
       <r>   13.3224    0.0000 </r>
       <r>   14.3315    0.0000 </r>
       <r>   17.3966    0.0000 </r>
       <r>   17.4248    0.0000 </r>
      </set>
      <set comment="kpoint 6">
       <r>    0.4248    1.0000 </r>
       <r>    2.2308    1.0000 </r>
       <r>    2.4859    1.0000 </r>
       <r>    2.5291    1.0000 </r>
       <r>    2.5313    1.0000 </r>
       <r>    2.7121    1.0000 </r>
       <r>    2.7121    1.0000 </r>
       <r>    3.5841    1.0000 </r>
       <r>    4.3415    1.0000 </r>
       <r>    4.3415    1.0000 </r>
       <r>    4.8160    1.0000 </r>
       <r>    4.9226    1.0000 </r>
       <r>    4.9226    1.0000 </r>
       <r>    5.3359    1.0000 </r>
       <r>    5.5693    1.0000 </r>
       <r>    5.7834    1.0000 </r>
       <r>    5.8782    1.0000 </r>
       <r>    5.8782    1.0000 </r>
       <r>    6.0914    1.0000 </r>
       <r>    6.2667    1.0000 </r>
       <r>    6.2674    1.0000 </r>
       <r>    6.7987    1.0000 </r>
       <r>   12.0472    0.0000 </r>
       <r>   12.0472    0.0000 </r>
       <r>   13.2127    0.0000 </r>
       <r>   14.2271    0.0000 </r>
       <r>   16.8563    0.0000 </r>
       <r>   16.8563    0.0000 </r>
      </set>
      <set comment="kpoint 7">
       <r>    0.7795    1.0000 </r>
       <r>    2.2562    1.0000 </r>
       <r>    2.6508    1.0000 </r>
       <r>    2.6569    1.0000 </r>
       <r>    2.7070    1.0000 </r>
       <r>    2.9251    1.0000 </r>
       <r>    2.9251    1.0000 </r>
       <r>    3.4370    1.0000 </r>
       <r>    4.4246    1.0000 </r>
       <r>    4.4246    1.0000 </r>
       <r>    4.6013    1.0000 </r>
       <r>    4.6013    1.0000 </r>
       <r>    4.7029    1.0000 </r>
       <r>    5.3684    1.0000 </r>
       <r>    5.3744    1.0000 </r>
       <r>    5.5961    1.0000 </r>
       <r>    5.6205    1.0000 </r>
       <r>    5.6423    1.0000 </r>
       <r>    5.6423    1.0000 </r>
       <r>    6.0170    1.0000 </r>
       <r>    6.2660    1.0000 </r>
       <r>    6.7990    1.0000 </r>
       <r>   12.7347    0.0000 </r>
       <r>   12.7347    0.0000 </r>
       <r>   13.1149    0.0000 </r>
       <r>   14.1193    0.0000 </r>
       <r>   16.2516    0.0000 </r>
       <r>   16.2516    0.0000 </r>
      </set>
      <set comment="kpoint 8">
       <r>    1.1461    1.0000 </r>
       <r>    2.2115    1.0000 </r>
       <r>    2.7913    1.0000 </r>
       <r>    2.7970    1.0000 </r>
       <r>    2.8596    1.0000 </r>
       <r>    3.1746    1.0000 </r>
       <r>    3.1746    1.0000 </r>
       <r>    3.2809    1.0000 </r>
       <r>    4.1218    1.0000 </r>
       <r>    4.1218    1.0000 </r>
       <r>    4.6210    1.0000 </r>
       <r>    4.7047    1.0000 </r>
       <r>    4.7047    1.0000 </r>
       <r>    5.0540    1.0000 </r>
       <r>    5.2288    1.0000 </r>
       <r>    5.3617    1.0000 </r>
       <r>    5.4097    1.0000 </r>
       <r>    5.4097    1.0000 </r>
       <r>    5.5234    1.0000 </r>
       <r>    5.9570    1.0000 </r>
       <r>    6.2651    1.0000 </r>
       <r>    6.7992    1.0000 </r>
       <r>   13.0422    0.0000 </r>
       <r>   13.4335    0.0000 </r>
       <r>   13.4335    0.0000 </r>
       <r>   14.0359    0.0000 </r>
       <r>   15.6049    0.0000 </r>
       <r>   15.6049    0.0000 </r>
      </set>
      <set comment="kpoint 9">
       <r>    1.4418    1.0000 </r>
       <r>    2.1020    1.0000 </r>
       <r>    2.8744    1.0000 </r>
       <r>    2.9423    1.0000 </r>
       <r>    2.9507    1.0000 </r>
       <r>    3.1270    1.0000 </r>
       <r>    3.4590    1.0000 </r>
       <r>    3.4590    1.0000 </r>
       <r>    3.7782    1.0000 </r>
       <r>    3.7782    1.0000 </r>
       <r>    4.6078    1.0000 </r>
       <r>    4.7517    1.0000 </r>
       <r>    4.8720    1.0000 </r>
       <r>    4.8720    1.0000 </r>
       <r>    5.1219    1.0000 </r>
       <r>    5.2079    1.0000 </r>
       <r>    5.2079    1.0000 </r>
       <r>    5.3015    1.0000 </r>
       <r>    5.5190    1.0000 </r>
       <r>    5.9209    1.0000 </r>
       <r>    6.2646    1.0000 </r>
       <r>    6.7992    1.0000 </r>
       <r>   13.0036    0.0000 </r>
       <r>   13.9911    0.0000 </r>
       <r>   14.0995    0.0000 </r>
       <r>   14.0995    0.0000 </r>
       <r>   14.9638    0.0000 </r>
       <r>   14.9638    0.0000 </r>
      </set>
      <set comment="kpoint 10">
       <r>   -0.3977    1.0000 </r>
       <r>    2.0243    1.0000 </r>
       <r>    2.0275    1.0000 </r>
       <r>    2.0362    1.0000 </r>
       <r>    2.2550    1.0000 </r>
       <r>    2.2569    1.0000 </r>
       <r>    2.2640    1.0000 </r>
       <r>    3.9504    1.0000 </r>
       <r>    3.9963    1.0000 </r>
       <r>    4.0052    1.0000 </r>
       <r>    5.1694    1.0000 </r>
       <r>    5.1940    1.0000 </r>
       <r>    6.1052    1.0000 </r>
       <r>    6.1121    1.0000 </r>
       <r>    6.1626    1.0000 </r>
       <r>    6.1749    1.0000 </r>
       <r>    6.2540    1.0000 </r>
       <r>    6.4106    1.0000 </r>
       <r>    6.6314    1.0000 </r>
       <r>    6.6768    1.0000 </r>
       <r>    6.7679    1.0000 </r>
       <r>    9.5658    0.0000 </r>
       <r>    9.6083    0.0000 </r>
       <r>   10.0253    0.0000 </r>
       <r>   13.6828    0.0000 </r>
       <r>   13.9809    0.0000 </r>
       <r>   15.6108    0.0000 </r>
       <r>   18.0886    0.0000 </r>
      </set>
      <set comment="kpoint 11">
       <r>   -0.2860    1.0000 </r>
       <r>    2.0662    1.0000 </r>
       <r>    2.0924    1.0000 </r>
       <r>    2.1031    1.0000 </r>
       <r>    2.2938    1.0000 </r>
       <r>    2.3146    1.0000 </r>
       <r>    2.3264    1.0000 </r>
       <r>    3.9048    1.0000 </r>
       <r>    4.0372    1.0000 </r>
       <r>    4.0489    1.0000 </r>
       <r>    5.1228    1.0000 </r>
       <r>    5.2095    1.0000 </r>
       <r>    5.9390    1.0000 </r>
       <r>    5.9725    1.0000 </r>
       <r>    6.0429    1.0000 </r>
       <r>    6.1128    1.0000 </r>
       <r>    6.2429    1.0000 </r>
       <r>    6.3151    1.0000 </r>
       <r>    6.4571    1.0000 </r>
       <r>    6.5251    1.0000 </r>
       <r>    6.7554    1.0000 </r>
       <r>    8.8852   -0.0314 </r>
       <r>    9.9501    0.0000 </r>
       <r>   10.3822    0.0000 </r>
       <r>   13.6686    0.0000 </r>
       <r>   14.3846    0.0000 </r>
       <r>   15.9647    0.0000 </r>
       <r>   17.6923    0.0000 </r>
      </set>
      <set comment="kpoint 12">
       <r>   -0.1025    1.0000 </r>
       <r>    2.1254    1.0000 </r>
       <r>    2.1968    1.0000 </r>
       <r>    2.2144    1.0000 </r>
       <r>    2.3562    1.0000 </r>
       <r>    2.4120    1.0000 </r>
       <r>    2.4298    1.0000 </r>
       <r>    3.8248    1.0000 </r>
       <r>    4.1115    1.0000 </r>
       <r>    4.1206    1.0000 </r>
       <r>    5.0425    1.0000 </r>
       <r>    5.2399    1.0000 </r>
       <r>    5.6399    1.0000 </r>
       <r>    5.6640    1.0000 </r>
       <r>    5.9219    1.0000 </r>
       <r>    6.0338    1.0000 </r>
       <r>    6.1303    1.0000 </r>
       <r>    6.2317    1.0000 </r>
       <r>    6.3180    1.0000 </r>
       <r>    6.3352    1.0000 </r>
       <r>    6.7545    1.0000 </r>
       <r>    8.0625    1.0339 </r>
       <r>   10.4418    0.0000 </r>
       <r>   10.8868    0.0000 </r>
       <r>   13.5917    0.0000 </r>
       <r>   14.5459    0.0000 </r>
       <r>   16.7988    0.0000 </r>
       <r>   17.2748    0.0000 </r>
      </set>
      <set comment="kpoint 13">
       <r>    0.1481    1.0000 </r>
       <r>    2.1945    1.0000 </r>
       <r>    2.3331    1.0000 </r>
       <r>    2.3621    1.0000 </r>
       <r>    2.4416    1.0000 </r>
       <r>    2.5478    1.0000 </r>
       <r>    2.5720    1.0000 </r>
       <r>    3.7174    1.0000 </r>
       <r>    4.2145    1.0000 </r>
       <r>    4.2174    1.0000 </r>
       <r>    4.9397    1.0000 </r>
       <r>    5.2317    1.0000 </r>
       <r>    5.2929    1.0000 </r>
       <r>    5.3178    1.0000 </r>
       <r>    5.7602    1.0000 </r>
       <r>    5.8744    1.0000 </r>
       <r>    5.9393    1.0000 </r>
       <r>    6.1002    1.0000 </r>
       <r>    6.2010    1.0000 </r>
       <r>    6.2490    1.0000 </r>
       <r>    6.7552    1.0000 </r>
       <r>    7.2559    1.0000 </r>
       <r>   10.9955    0.0000 </r>
       <r>   11.4812    0.0000 </r>
       <r>   13.4975    0.0000 </r>
       <r>   14.5060    0.0000 </r>
       <r>   16.8313    0.0000 </r>
       <r>   17.4638    0.0000 </r>
      </set>
      <set comment="kpoint 14">
       <r>    0.4575    1.0000 </r>
       <r>    2.2562    1.0000 </r>
       <r>    2.4924    1.0000 </r>
       <r>    2.5340    1.0000 </r>
       <r>    2.5478    1.0000 </r>
       <r>    2.7218    1.0000 </r>
       <r>    2.7490    1.0000 </r>
       <r>    3.5881    1.0000 </r>
       <r>    4.3309    1.0000 </r>
       <r>    4.3410    1.0000 </r>
       <r>    4.8159    1.0000 </r>
       <r>    4.8838    1.0000 </r>
       <r>    4.9058    1.0000 </r>
       <r>    5.3351    1.0000 </r>
       <r>    5.5675    1.0000 </r>
       <r>    5.6007    1.0000 </r>
       <r>    5.7843    1.0000 </r>
       <r>    5.8758    1.0000 </r>
       <r>    6.0875    1.0000 </r>
       <r>    6.2425    1.0000 </r>
       <r>    6.5561    1.0000 </r>
       <r>    6.7559    1.0000 </r>
       <r>   11.5603    0.0000 </r>
       <r>   12.1305    0.0000 </r>
       <r>   13.4134    0.0000 </r>
       <r>   14.4100    0.0000 </r>
       <r>   16.3984    0.0000 </r>
       <r>   16.9219    0.0000 </r>
      </set>
      <set comment="kpoint 15">
       <r>    0.8102    1.0000 </r>
       <r>    2.2822    1.0000 </r>
       <r>    2.6591    1.0000 </r>
       <r>    2.6722    1.0000 </r>
       <r>    2.7123    1.0000 </r>
       <r>    2.9331    1.0000 </r>
       <r>    2.9549    1.0000 </r>
       <r>    3.4430    1.0000 </r>
       <r>    4.3889    1.0000 </r>
       <r>    4.4218    1.0000 </r>
       <r>    4.5293    1.0000 </r>
       <r>    4.5937    1.0000 </r>
       <r>    4.7627    1.0000 </r>
       <r>    5.2277    1.0000 </r>
       <r>    5.3739    1.0000 </r>
       <r>    5.4010    1.0000 </r>
       <r>    5.6221    1.0000 </r>
       <r>    5.6405    1.0000 </r>
       <r>    5.9026    1.0000 </r>
       <r>    6.1112    1.0000 </r>
       <r>    6.2400    1.0000 </r>
       <r>    6.7566    1.0000 </r>
       <r>   12.0755    0.0000 </r>
       <r>   12.8120    0.0000 </r>
       <r>   13.3764    0.0000 </r>
       <r>   14.3321    0.0000 </r>
       <r>   15.9477    0.0000 </r>
       <r>   16.3162    0.0000 </r>
      </set>
      <set comment="kpoint 16">
       <r>    1.1753    1.0000 </r>
       <r>    2.2370    1.0000 </r>
       <r>    2.8050    1.0000 </r>
       <r>    2.8108    1.0000 </r>
       <r>    2.8696    1.0000 </r>
       <r>    3.1806    1.0000 </r>
       <r>    3.1877    1.0000 </r>
       <r>    3.2889    1.0000 </r>
       <r>    4.0863    1.0000 </r>
       <r>    4.1183    1.0000 </r>
       <r>    4.5106    1.0000 </r>
       <r>    4.7031    1.0000 </r>
       <r>    4.7752    1.0000 </r>
       <r>    4.9144    1.0000 </r>
       <r>    5.2172    1.0000 </r>
       <r>    5.3691    1.0000 </r>
       <r>    5.4078    1.0000 </r>
       <r>    5.4784    1.0000 </r>
       <r>    5.6337    1.0000 </r>
       <r>    5.9848    1.0000 </r>
       <r>    6.2385    1.0000 </r>
       <r>    6.7570    1.0000 </r>
       <r>   12.4452    0.0000 </r>
       <r>   13.4295    0.0000 </r>
       <r>   13.5068    0.0000 </r>
       <r>   14.3341    0.0000 </r>
       <r>   15.4823    0.0000 </r>
       <r>   15.6689    0.0000 </r>
      </set>
      <set comment="kpoint 17">
       <r>    1.4707    1.0000 </r>
       <r>    2.1260    1.0000 </r>
       <r>    2.8924    1.0000 </r>
       <r>    2.9547    1.0000 </r>
       <r>    2.9656    1.0000 </r>
       <r>    3.1367    1.0000 </r>
       <r>    3.4518    1.0000 </r>
       <r>    3.4624    1.0000 </r>
       <r>    3.7547    1.0000 </r>
       <r>    3.7785    1.0000 </r>
       <r>    4.5179    1.0000 </r>
       <r>    4.6160    1.0000 </r>
       <r>    4.8715    1.0000 </r>
       <r>    4.9843    1.0000 </r>
       <r>    5.1129    1.0000 </r>
       <r>    5.2053    1.0000 </r>
       <r>    5.2727    1.0000 </r>
       <r>    5.3104    1.0000 </r>
       <r>    5.5834    1.0000 </r>
       <r>    5.9328    1.0000 </r>
       <r>    6.2378    1.0000 </r>
       <r>    6.7572    1.0000 </r>
       <r>   12.6049    0.0000 </r>
       <r>   13.5261    0.0000 </r>
       <r>   14.1720    0.0000 </r>
       <r>   14.4700    0.0000 </r>
       <r>   15.0265    0.0000 </r>
       <r>   15.0665    0.0000 </r>
      </set>
      <set comment="kpoint 18">
       <r>   -0.1761    1.0000 </r>
       <r>    2.1311    1.0000 </r>
       <r>    2.1422    1.0000 </r>
       <r>    2.1504    1.0000 </r>
       <r>    2.3478    1.0000 </r>
       <r>    2.3549    1.0000 </r>
       <r>    2.3980    1.0000 </r>
       <r>    3.8808    1.0000 </r>
       <r>    4.0587    1.0000 </r>
       <r>    4.0866    1.0000 </r>
       <r>    5.1040    1.0000 </r>
       <r>    5.2010    1.0000 </r>
       <r>    5.7687    1.0000 </r>
       <r>    5.8192    1.0000 </r>
       <r>    5.9681    1.0000 </r>
       <r>    6.0945    1.0000 </r>
       <r>    6.0961    1.0000 </r>
       <r>    6.1970    1.0000 </r>
       <r>    6.3600    1.0000 </r>
       <r>    6.4673    1.0000 </r>
       <r>    6.6806    1.0000 </r>
       <r>    9.2087   -0.0012 </r>
       <r>    9.2823   -0.0004 </r>
       <r>   10.7055    0.0000 </r>
       <r>   13.7421    0.0000 </r>
       <r>   14.8712    0.0000 </r>
       <r>   16.0962    0.0000 </r>
       <r>   17.1804    0.0000 </r>
      </set>
      <set comment="kpoint 19">
       <r>    0.0043    1.0000 </r>
       <r>    2.1956    1.0000 </r>
       <r>    2.2354    1.0000 </r>
       <r>    2.2525    1.0000 </r>
       <r>    2.4111    1.0000 </r>
       <r>    2.4475    1.0000 </r>
       <r>    2.5129    1.0000 </r>
       <r>    3.8165    1.0000 </r>
       <r>    4.1207    1.0000 </r>
       <r>    4.1472    1.0000 </r>
       <r>    5.0402    1.0000 </r>
       <r>    5.2130    1.0000 </r>
       <r>    5.5035    1.0000 </r>
       <r>    5.5502    1.0000 </r>
       <r>    5.7705    1.0000 </r>
       <r>    5.8954    1.0000 </r>
       <r>    6.0356    1.0000 </r>
       <r>    6.1645    1.0000 </r>
       <r>    6.2649    1.0000 </r>
       <r>    6.3256    1.0000 </r>
       <r>    6.6476    1.0000 </r>
       <r>    8.4397    0.5626 </r>
       <r>    9.7133    0.0000 </r>
       <r>   11.1758    0.0000 </r>
       <r>   13.6573    0.0000 </r>
       <r>   15.1561    0.0000 </r>
       <r>   16.5847    0.0000 </r>
       <r>   16.8247    0.0000 </r>
      </set>
      <set comment="kpoint 20">
       <r>    0.2506    1.0000 </r>
       <r>    2.2667    1.0000 </r>
       <r>    2.3541    1.0000 </r>
       <r>    2.4012    1.0000 </r>
       <r>    2.4941    1.0000 </r>
       <r>    2.5804    1.0000 </r>
       <r>    2.6642    1.0000 </r>
       <r>    3.7190    1.0000 </r>
       <r>    4.2185    1.0000 </r>
       <r>    4.2259    1.0000 </r>
       <r>    4.9455    1.0000 </r>
       <r>    5.0881    1.0000 </r>
       <r>    5.2135    1.0000 </r>
       <r>    5.3079    1.0000 </r>
       <r>    5.5098    1.0000 </r>
       <r>    5.7373    1.0000 </r>
       <r>    5.9312    1.0000 </r>
       <r>    6.0767    1.0000 </r>
       <r>    6.1564    1.0000 </r>
       <r>    6.1987    1.0000 </r>
       <r>    6.6395    1.0000 </r>
       <r>    7.6667    1.0006 </r>
       <r>   10.2204    0.0000 </r>
       <r>   11.7421    0.0000 </r>
       <r>   13.5043    0.0000 </r>
       <r>   15.1214    0.0000 </r>
       <r>   16.2649    0.0000 </r>
       <r>   17.6625    0.0000 </r>
      </set>
      <set comment="kpoint 21">
       <r>    0.5546    1.0000 </r>
       <r>    2.3308    1.0000 </r>
       <r>    2.5016    1.0000 </r>
       <r>    2.5738    1.0000 </r>
       <r>    2.5972    1.0000 </r>
       <r>    2.7505    1.0000 </r>
       <r>    2.8422    1.0000 </r>
       <r>    3.5976    1.0000 </r>
       <r>    4.3076    1.0000 </r>
       <r>    4.3428    1.0000 </r>
       <r>    4.7108    1.0000 </r>
       <r>    4.8535    1.0000 </r>
       <r>    4.8756    1.0000 </r>
       <r>    5.1643    1.0000 </r>
       <r>    5.3931    1.0000 </r>
       <r>    5.5617    1.0000 </r>
       <r>    5.7870    1.0000 </r>
       <r>    5.8684    1.0000 </r>
       <r>    6.0367    1.0000 </r>
       <r>    6.1737    1.0000 </r>
       <r>    6.6377    1.0000 </r>
       <r>    6.9967    1.0000 </r>
       <r>   10.7276    0.0000 </r>
       <r>   12.3699    0.0000 </r>
       <r>   13.3177    0.0000 </r>
       <r>   15.0080    0.0000 </r>
       <r>   15.9125    0.0000 </r>
       <r>   17.1144    0.0000 </r>
      </set>
      <set comment="kpoint 22">
       <r>    0.9015    1.0000 </r>
       <r>    2.3584    1.0000 </r>
       <r>    2.6692    1.0000 </r>
       <r>    2.7177    1.0000 </r>
       <r>    2.7520    1.0000 </r>
       <r>    2.9568    1.0000 </r>
       <r>    3.0340    1.0000 </r>
       <r>    3.4595    1.0000 </r>
       <r>    4.3014    1.0000 </r>
       <r>    4.4099    1.0000 </r>
       <r>    4.4123    1.0000 </r>
       <r>    4.5726    1.0000 </r>
       <r>    4.7951    1.0000 </r>
       <r>    4.9082    1.0000 </r>
       <r>    5.3760    1.0000 </r>
       <r>    5.4294    1.0000 </r>
       <r>    5.6288    1.0000 </r>
       <r>    5.6353    1.0000 </r>
       <r>    5.9013    1.0000 </r>
       <r>    6.1663    1.0000 </r>
       <r>    6.4846    1.0000 </r>
       <r>    6.6374    1.0000 </r>
       <r>   11.2006    0.0000 </r>
       <r>   13.0357    0.0000 </r>
       <r>   13.1189    0.0000 </r>
       <r>   14.9095    0.0000 </r>
       <r>   15.6124    0.0000 </r>
       <r>   16.5056    0.0000 </r>
      </set>
      <set comment="kpoint 23">
       <r>    1.2616    1.0000 </r>
       <r>    2.3120    1.0000 </r>
       <r>    2.8338    1.0000 </r>
       <r>    2.8518    1.0000 </r>
       <r>    2.9092    1.0000 </r>
       <r>    3.1981    1.0000 </r>
       <r>    3.2288    1.0000 </r>
       <r>    3.3119    1.0000 </r>
       <r>    3.9894    1.0000 </r>
       <r>    4.1072    1.0000 </r>
       <r>    4.3776    1.0000 </r>
       <r>    4.5748    1.0000 </r>
       <r>    4.6996    1.0000 </r>
       <r>    4.9267    1.0000 </r>
       <r>    5.2259    1.0000 </r>
       <r>    5.3992    1.0000 </r>
       <r>    5.4023    1.0000 </r>
       <r>    5.4921    1.0000 </r>
       <r>    5.7832    1.0000 </r>
       <r>    6.1616    1.0000 </r>
       <r>    6.1628    1.0000 </r>
       <r>    6.6375    1.0000 </r>
       <r>   11.5998    0.0000 </r>
       <r>   12.9269    0.0000 </r>
       <r>   13.7199    0.0000 </r>
       <r>   14.8621    0.0000 </r>
       <r>   15.3700    0.0000 </r>
       <r>   15.8569    0.0000 </r>
      </set>
      <set comment="kpoint 24">
       <r>    1.5559    1.0000 </r>
       <r>    2.1960    1.0000 </r>
       <r>    2.9428    1.0000 </r>
       <r>    2.9912    1.0000 </r>
       <r>    3.0093    1.0000 </r>
       <r>    3.1650    1.0000 </r>
       <r>    3.4354    1.0000 </r>
       <r>    3.4722    1.0000 </r>
       <r>    3.6909    1.0000 </r>
       <r>    3.7789    1.0000 </r>
       <r>    4.3609    1.0000 </r>
       <r>    4.4113    1.0000 </r>
       <r>    4.8705    1.0000 </r>
       <r>    5.0521    1.0000 </r>
       <r>    5.1571    1.0000 </r>
       <r>    5.1980    1.0000 </r>
       <r>    5.3151    1.0000 </r>
       <r>    5.3317    1.0000 </r>
       <r>    5.7767    1.0000 </r>
       <r>    5.9987    1.0000 </r>
       <r>    6.1613    1.0000 </r>
       <r>    6.6376    1.0000 </r>
       <r>   11.8579    0.0000 </r>
       <r>   12.7828    0.0000 </r>
       <r>   14.3827    0.0000 </r>
       <r>   14.8645    0.0000 </r>
       <r>   15.2110    0.0000 </r>
       <r>   15.2141    0.0000 </r>
      </set>
      <set comment="kpoint 25">
       <r>    0.1795    1.0000 </r>
       <r>    2.2967    1.0000 </r>
       <r>    2.2979    1.0000 </r>
       <r>    2.3315    1.0000 </r>
       <r>    2.4969    1.0000 </r>
       <r>    2.5113    1.0000 </r>
       <r>    2.6385    1.0000 </r>
       <r>    3.7801    1.0000 </r>
       <r>    4.1605    1.0000 </r>
       <r>    4.1896    1.0000 </r>
       <r>    5.0080    1.0000 </r>
       <r>    5.1332    1.0000 </r>
       <r>    5.3471    1.0000 </r>
       <r>    5.3761    1.0000 </r>
       <r>    5.4032    1.0000 </r>
       <r>    5.8007    1.0000 </r>
       <r>    5.9952    1.0000 </r>
       <r>    6.1045    1.0000 </r>
       <r>    6.1775    1.0000 </r>
       <r>    6.2577    1.0000 </r>
       <r>    6.5412    1.0000 </r>
       <r>    8.8859   -0.0313 </r>
       <r>    8.9207   -0.0263 </r>
       <r>   11.6078    0.0000 </r>
       <r>   13.5069    0.0000 </r>
       <r>   15.8427    0.0000 </r>
       <r>   16.1650    0.0000 </r>
       <r>   16.7967    0.0000 </r>
      </set>
      <set comment="kpoint 26">
       <r>    0.4186    1.0000 </r>
       <r>    2.3762    1.0000 </r>
       <r>    2.4004    1.0000 </r>
       <r>    2.4738    1.0000 </r>
       <r>    2.5809    1.0000 </r>
       <r>    2.6341    1.0000 </r>
       <r>    2.7956    1.0000 </r>
       <r>    3.7071    1.0000 </r>
       <r>    4.2412    1.0000 </r>
       <r>    4.2415    1.0000 </r>
       <r>    4.8724    1.0000 </r>
       <r>    4.9479    1.0000 </r>
       <r>    5.0699    1.0000 </r>
       <r>    5.0723    1.0000 </r>
       <r>    5.3774    1.0000 </r>
       <r>    5.6711    1.0000 </r>
       <r>    5.9129    1.0000 </r>
       <r>    6.0347    1.0000 </r>
       <r>    6.0690    1.0000 </r>
       <r>    6.1305    1.0000 </r>
       <r>    6.4884    1.0000 </r>
       <r>    8.1322    1.0326 </r>
       <r>    9.3922   -0.0001 </r>
       <r>   12.1401    0.0000 </r>
       <r>   13.2430    0.0000 </r>
       <r>   15.7756    0.0000 </r>
       <r>   15.9863    0.0000 </r>
       <r>   17.3728    0.0000 </r>
      </set>
      <set comment="kpoint 27">
       <r>    0.7134    1.0000 </r>
       <r>    2.4480    1.0000 </r>
       <r>    2.5277    1.0000 </r>
       <r>    2.6499    1.0000 </r>
       <r>    2.6788    1.0000 </r>
       <r>    2.7974    1.0000 </r>
       <r>    2.9711    1.0000 </r>
       <r>    3.6043    1.0000 </r>
       <r>    4.2850    1.0000 </r>
       <r>    4.3558    1.0000 </r>
       <r>    4.5258    1.0000 </r>
       <r>    4.7606    1.0000 </r>
       <r>    4.7725    1.0000 </r>
       <r>    4.8912    1.0000 </r>
       <r>    5.4382    1.0000 </r>
       <r>    5.5175    1.0000 </r>
       <r>    5.7854    1.0000 </r>
       <r>    5.8548    1.0000 </r>
       <r>    5.9522    1.0000 </r>
       <r>    6.0748    1.0000 </r>
       <r>    6.4694    1.0000 </r>
       <r>    7.4548    1.0000 </r>
       <r>    9.8783    0.0000 </r>
       <r>   12.7404    0.0000 </r>
       <r>   12.9190    0.0000 </r>
       <r>   15.5151    0.0000 </r>
       <r>   15.7985    0.0000 </r>
       <r>   17.4215    0.0000 </r>
      </set>
      <set comment="kpoint 28">
       <r>    1.0501    1.0000 </r>
       <r>    2.4800    1.0000 </r>
       <r>    2.6840    1.0000 </r>
       <r>    2.7927    1.0000 </r>
       <r>    2.8335    1.0000 </r>
       <r>    2.9954    1.0000 </r>
       <r>    3.1468    1.0000 </r>
       <r>    3.4814    1.0000 </r>
       <r>    4.1592    1.0000 </r>
       <r>    4.3124    1.0000 </r>
       <r>    4.3886    1.0000 </r>
       <r>    4.5114    1.0000 </r>
       <r>    4.5479    1.0000 </r>
       <r>    4.8732    1.0000 </r>
       <r>    5.3555    1.0000 </r>
       <r>    5.4867    1.0000 </r>
       <r>    5.6264    1.0000 </r>
       <r>    5.6392    1.0000 </r>
       <r>    5.8508    1.0000 </r>
       <r>    6.0572    1.0000 </r>
       <r>    6.4618    1.0000 </r>
       <r>    6.9045    1.0000 </r>
       <r>   10.3407    0.0000 </r>
       <r>   12.5733    0.0000 </r>
       <r>   13.3853    0.0000 </r>
       <r>   15.3293    0.0000 </r>
       <r>   15.6023    0.0000 </r>
       <r>   16.8081    0.0000 </r>
      </set>
      <set comment="kpoint 29">
       <r>    1.4011    1.0000 </r>
       <r>    2.4310    1.0000 </r>
       <r>    2.8582    1.0000 </r>
       <r>    2.9190    1.0000 </r>
       <r>    2.9933    1.0000 </r>
       <r>    3.2261    1.0000 </r>
       <r>    3.3004    1.0000 </r>
       <r>    3.3467    1.0000 </r>
       <r>    3.8513    1.0000 </r>
       <r>    4.0859    1.0000 </r>
       <r>    4.2666    1.0000 </r>
       <r>    4.3088    1.0000 </r>
       <r>    4.6980    1.0000 </r>
       <r>    4.9362    1.0000 </r>
       <r>    5.2250    1.0000 </r>
       <r>    5.3939    1.0000 </r>
       <r>    5.4227    1.0000 </r>
       <r>    5.4960    1.0000 </r>
       <r>    5.8607    1.0000 </r>
       <r>    6.0488    1.0000 </r>
       <r>    6.4585    1.0000 </r>
       <r>    6.4930    1.0000 </r>
       <r>   10.7556    0.0000 </r>
       <r>   12.2379    0.0000 </r>
       <r>   14.0549    0.0000 </r>
       <r>   15.2085    0.0000 </r>
       <r>   15.4562    0.0000 </r>
       <r>   16.1575    0.0000 </r>
      </set>
      <set comment="kpoint 30">
       <r>    1.6927    1.0000 </r>
       <r>    2.3058    1.0000 </r>
       <r>    3.0096    1.0000 </r>
       <r>    3.0503    1.0000 </r>
       <r>    3.0829    1.0000 </r>
       <r>    3.2102    1.0000 </r>
       <r>    3.4238    1.0000 </r>
       <r>    3.4873    1.0000 </r>
       <r>    3.6040    1.0000 </r>
       <r>    3.7776    1.0000 </r>
       <r>    4.2105    1.0000 </r>
       <r>    4.2150    1.0000 </r>
       <r>    4.8715    1.0000 </r>
       <r>    5.0284    1.0000 </r>
       <r>    5.1860    1.0000 </r>
       <r>    5.1874    1.0000 </r>
       <r>    5.3157    1.0000 </r>
       <r>    5.3492    1.0000 </r>
       <r>    5.9935    1.0000 </r>
       <r>    6.0452    1.0000 </r>
       <r>    6.2019    1.0000 </r>
       <r>    6.4572    1.0000 </r>
       <r>   11.0594    0.0000 </r>
       <r>   11.9755    0.0000 </r>
       <r>   14.7145    0.0000 </r>
       <r>   15.1480    0.0000 </r>
       <r>   15.3801    0.0000 </r>
       <r>   15.5067    0.0000 </r>
      </set>
      <set comment="kpoint 31">
       <r>    0.6473    1.0000 </r>
       <r>    2.4625    1.0000 </r>
       <r>    2.5177    1.0000 </r>
       <r>    2.5829    1.0000 </r>
       <r>    2.6937    1.0000 </r>
       <r>    2.7151    1.0000 </r>
       <r>    2.9531    1.0000 </r>
       <r>    3.6676    1.0000 </r>
       <r>    4.2613    1.0000 </r>
       <r>    4.2982    1.0000 </r>
       <r>    4.6406    1.0000 </r>
       <r>    4.6935    1.0000 </r>
       <r>    4.8699    1.0000 </r>
       <r>    4.8978    1.0000 </r>
       <r>    5.4409    1.0000 </r>
       <r>    5.5668    1.0000 </r>
       <r>    5.8658    1.0000 </r>
       <r>    5.9527    1.0000 </r>
       <r>    5.9805    1.0000 </r>
       <r>    6.0267    1.0000 </r>
       <r>    6.3581    1.0000 </r>
       <r>    8.5872    0.1786 </r>
       <r>    8.6324    0.0949 </r>
       <r>   12.6401    0.0000 </r>
       <r>   12.8466    0.0000 </r>
       <r>   15.5564    0.0000 </r>
       <r>   16.5360    0.0000 </r>
       <r>   17.1464    0.0000 </r>
      </set>
      <set comment="kpoint 32">
       <r>    0.9289    1.0000 </r>
       <r>    2.5610    1.0000 </r>
       <r>    2.6186    1.0000 </r>
       <r>    2.7507    1.0000 </r>
       <r>    2.7914    1.0000 </r>
       <r>    2.8616    1.0000 </r>
       <r>    3.1222    1.0000 </r>
       <r>    3.5967    1.0000 </r>
       <r>    4.2610    1.0000 </r>
       <r>    4.3198    1.0000 </r>
       <r>    4.3934    1.0000 </r>
       <r>    4.4227    1.0000 </r>
       <r>    4.6231    1.0000 </r>
       <r>    4.8460    1.0000 </r>
       <r>    5.4364    1.0000 </r>
       <r>    5.5218    1.0000 </r>
       <r>    5.7732    1.0000 </r>
       <r>    5.8324    1.0000 </r>
       <r>    5.8453    1.0000 </r>
       <r>    5.9560    1.0000 </r>
       <r>    6.2879    1.0000 </r>
       <r>    7.9137    1.0134 </r>
       <r>    9.0837   -0.0063 </r>
       <r>   12.3954    0.0000 </r>
       <r>   13.2129    0.0000 </r>
       <r>   15.4016    0.0000 </r>
       <r>   16.3853    0.0000 </r>
       <r>   17.6076    0.0000 </r>
      </set>
      <set comment="kpoint 33">
       <r>    1.2501    1.0000 </r>
       <r>    2.6316    1.0000 </r>
       <r>    2.7234    1.0000 </r>
       <r>    2.8959    1.0000 </r>
       <r>    2.9423    1.0000 </r>
       <r>    3.0473    1.0000 </r>
       <r>    3.2815    1.0000 </r>
       <r>    3.5004    1.0000 </r>
       <r>    3.9728    1.0000 </r>
       <r>    4.2034    1.0000 </r>
       <r>    4.2593    1.0000 </r>
       <r>    4.3314    1.0000 </r>
       <r>    4.5440    1.0000 </r>
       <r>    4.8320    1.0000 </r>
       <r>    5.3006    1.0000 </r>
       <r>    5.5150    1.0000 </r>
       <r>    5.6130    1.0000 </r>
       <r>    5.6228    1.0000 </r>
       <r>    5.8623    1.0000 </r>
       <r>    5.9277    1.0000 </r>
       <r>    6.2574    1.0000 </r>
       <r>    7.3315    1.0000 </r>
       <r>    9.5389    0.0000 </r>
       <r>   11.9411    0.0000 </r>
       <r>   13.8357    0.0000 </r>
       <r>   15.3274    0.0000 </r>
       <r>   16.0594    0.0000 </r>
       <r>   17.2054    0.0000 </r>
      </set>
      <set comment="kpoint 34">
       <r>    1.5866    1.0000 </r>
       <r>    2.5827    1.0000 </r>
       <r>    2.8824    1.0000 </r>
       <r>    3.0106    1.0000 </r>
       <r>    3.1140    1.0000 </r>
       <r>    3.2629    1.0000 </r>
       <r>    3.3878    1.0000 </r>
       <r>    3.3994    1.0000 </r>
       <r>    3.6933    1.0000 </r>
       <r>    4.0504    1.0000 </r>
       <r>    4.0668    1.0000 </r>
       <r>    4.1870    1.0000 </r>
       <r>    4.7050    1.0000 </r>
       <r>    4.8817    1.0000 </r>
       <r>    5.1923    1.0000 </r>
       <r>    5.3834    1.0000 </r>
       <r>    5.4082    1.0000 </r>
       <r>    5.4498    1.0000 </r>
       <r>    5.9116    1.0000 </r>
       <r>    6.0123    1.0000 </r>
       <r>    6.2437    1.0000 </r>
       <r>    6.8691    1.0000 </r>
       <r>    9.9612    0.0000 </r>
       <r>   11.5170    0.0000 </r>
       <r>   14.4894    0.0000 </r>
       <r>   15.3184    0.0000 </r>
       <r>   15.7834    0.0000 </r>
       <r>   16.5538    0.0000 </r>
      </set>
      <set comment="kpoint 35">
       <r>    1.8726    1.0000 </r>
       <r>    2.4429    1.0000 </r>
       <r>    3.0601    1.0000 </r>
       <r>    3.1291    1.0000 </r>
       <r>    3.1881    1.0000 </r>
       <r>    3.2686    1.0000 </r>
       <r>    3.4280    1.0000 </r>
       <r>    3.5054    1.0000 </r>
       <r>    3.5307    1.0000 </r>
       <r>    3.7718    1.0000 </r>
       <r>    4.0393    1.0000 </r>
       <r>    4.0977    1.0000 </r>
       <r>    4.8781    1.0000 </r>
       <r>    4.9575    1.0000 </r>
       <r>    5.1610    1.0000 </r>
       <r>    5.1758    1.0000 </r>
       <r>    5.2812    1.0000 </r>
       <r>    5.3216    1.0000 </r>
       <r>    5.9042    1.0000 </r>
       <r>    6.2243    1.0000 </r>
       <r>    6.2382    1.0000 </r>
       <r>    6.5167    1.0000 </r>
       <r>   10.2917    0.0000 </r>
       <r>   11.1858    0.0000 </r>
       <r>   15.1449    0.0000 </r>
       <r>   15.3570    0.0000 </r>
       <r>   15.5990    0.0000 </r>
       <r>   15.8985    0.0000 </r>
      </set>
      <set comment="kpoint 36">
       <r>    1.1929    1.0000 </r>
       <r>    2.6438    1.0000 </r>
       <r>    2.7675    1.0000 </r>
       <r>    2.8798    1.0000 </r>
       <r>    2.9249    1.0000 </r>
       <r>    2.9495    1.0000 </r>
       <r>    3.2808    1.0000 </r>
       <r>    3.5649    1.0000 </r>
       <r>    4.0638    1.0000 </r>
       <r>    4.1167    1.0000 </r>
       <r>    4.2664    1.0000 </r>
       <r>    4.4423    1.0000 </r>
       <r>    4.4673    1.0000 </r>
       <r>    4.7901    1.0000 </r>
       <r>    5.3306    1.0000 </r>
       <r>    5.5474    1.0000 </r>
       <r>    5.6827    1.0000 </r>
       <r>    5.7739    1.0000 </r>
       <r>    5.8323    1.0000 </r>
       <r>    5.8538    1.0000 </r>
       <r>    6.1418    1.0000 </r>
       <r>    8.3025    0.8869 </r>
       <r>    8.4389    0.5648 </r>
       <r>   11.8427    0.0000 </r>
       <r>   13.7609    0.0000 </r>
       <r>   15.3435    0.0000 </r>
       <r>   16.8318    0.0000 </r>
       <r>   17.2012    0.0000 </r>
      </set>
      <set comment="kpoint 37">
       <r>    1.4928    1.0000 </r>
       <r>    2.7430    1.0000 </r>
       <r>    2.8434    1.0000 </r>
       <r>    3.0250    1.0000 </r>
       <r>    3.0621    1.0000 </r>
       <r>    3.1106    1.0000 </r>
       <r>    3.4241    1.0000 </r>
       <r>    3.5067    1.0000 </r>
       <r>    3.7842    1.0000 </r>
       <r>    3.9352    1.0000 </r>
       <r>    4.2248    1.0000 </r>
       <r>    4.2285    1.0000 </r>
       <r>    4.5808    1.0000 </r>
       <r>    4.7601    1.0000 </r>
       <r>    5.2161    1.0000 </r>
       <r>    5.4657    1.0000 </r>
       <r>    5.5243    1.0000 </r>
       <r>    5.5888    1.0000 </r>
       <r>    5.7897    1.0000 </r>
       <r>    6.0162    1.0000 </r>
       <r>    6.0584    1.0000 </r>
       <r>    7.7555    1.0022 </r>
       <r>    8.8225   -0.0354 </r>
       <r>   11.3106    0.0000 </r>
       <r>   14.3631    0.0000 </r>
       <r>   15.3560    0.0000 </r>
       <r>   16.5249    0.0000 </r>
       <r>   17.6044    0.0000 </r>
      </set>
      <set comment="kpoint 38">
       <r>    1.8074    1.0000 </r>
       <r>    2.7422    1.0000 </r>
       <r>    2.9177    1.0000 </r>
       <r>    3.1236    1.0000 </r>
       <r>    3.2545    1.0000 </r>
       <r>    3.3059    1.0000 </r>
       <r>    3.4274    1.0000 </r>
       <r>    3.4939    1.0000 </r>
       <r>    3.5647    1.0000 </r>
       <r>    3.8632    1.0000 </r>
       <r>    3.9954    1.0000 </r>
       <r>    4.1383    1.0000 </r>
       <r>    4.7299    1.0000 </r>
       <r>    4.7889    1.0000 </r>
       <r>    5.1256    1.0000 </r>
       <r>    5.3456    1.0000 </r>
       <r>    5.3529    1.0000 </r>
       <r>    5.3703    1.0000 </r>
       <r>    5.7666    1.0000 </r>
       <r>    6.0190    1.0000 </r>
       <r>    6.2379    1.0000 </r>
       <r>    7.2595    1.0000 </r>
       <r>    9.2435   -0.0007 </r>
       <r>   10.8264    0.0000 </r>
       <r>   15.0012    0.0000 </r>
       <r>   15.4322    0.0000 </r>
       <r>   16.1496    0.0000 </r>
       <r>   17.0248    0.0000 </r>
      </set>
      <set comment="kpoint 39">
       <r>    2.0820    1.0000 </r>
       <r>    2.5861    1.0000 </r>
       <r>    3.0755    1.0000 </r>
       <r>    3.2232    1.0000 </r>
       <r>    3.2801    1.0000 </r>
       <r>    3.3349    1.0000 </r>
       <r>    3.4322    1.0000 </r>
       <r>    3.5235    1.0000 </r>
       <r>    3.5600    1.0000 </r>
       <r>    3.7577    1.0000 </r>
       <r>    3.9085    1.0000 </r>
       <r>    4.0198    1.0000 </r>
       <r>    4.8500    1.0000 </r>
       <r>    4.8961    1.0000 </r>
       <r>    5.1022    1.0000 </r>
       <r>    5.1660    1.0000 </r>
       <r>    5.1952    1.0000 </r>
       <r>    5.2562    1.0000 </r>
       <r>    5.7549    1.0000 </r>
       <r>    6.0034    1.0000 </r>
       <r>    6.4928    1.0000 </r>
       <r>    6.8726    1.0000 </r>
       <r>    9.5918    0.0000 </r>
       <r>   10.4471    0.0000 </r>
       <r>   15.5599    0.0000 </r>
       <r>   15.6514    0.0000 </r>
       <r>   15.8668    0.0000 </r>
       <r>   16.3686    0.0000 </r>
      </set>
      <set comment="kpoint 40">
       <r>    1.7651    1.0000 </r>
       <r>    2.8223    1.0000 </r>
       <r>    2.9664    1.0000 </r>
       <r>    3.1696    1.0000 </r>
       <r>    3.1839    1.0000 </r>
       <r>    3.1895    1.0000 </r>
       <r>    3.4927    1.0000 </r>
       <r>    3.5503    1.0000 </r>
       <r>    3.6453    1.0000 </r>
       <r>    3.7265    1.0000 </r>
       <r>    4.0865    1.0000 </r>
       <r>    4.1875    1.0000 </r>
       <r>    4.6614    1.0000 </r>
       <r>    4.6972    1.0000 </r>
       <r>    5.1174    1.0000 </r>
       <r>    5.3625    1.0000 </r>
       <r>    5.3842    1.0000 </r>
       <r>    5.5157    1.0000 </r>
       <r>    5.6728    1.0000 </r>
       <r>    5.9049    1.0000 </r>
       <r>    6.2417    1.0000 </r>
       <r>    8.0815    1.0352 </r>
       <r>    8.2981    0.8944 </r>
       <r>   10.7210    0.0000 </r>
       <r>   14.9472    0.0000 </r>
       <r>   15.4448    0.0000 </r>
       <r>   16.9022    0.0000 </r>
       <r>   17.1414    0.0000 </r>
      </set>
      <set comment="kpoint 41">
       <r>    2.0485    1.0000 </r>
       <r>    2.8628    1.0000 </r>
       <r>    2.9609    1.0000 </r>
       <r>    3.2537    1.0000 </r>
       <r>    3.3261    1.0000 </r>
       <r>    3.3516    1.0000 </r>
       <r>    3.4571    1.0000 </r>
       <r>    3.4952    1.0000 </r>
       <r>    3.6470    1.0000 </r>
       <r>    3.7165    1.0000 </r>
       <r>    3.9163    1.0000 </r>
       <r>    4.1093    1.0000 </r>
       <r>    4.6870    1.0000 </r>
       <r>    4.7831    1.0000 </r>
       <r>    5.0353    1.0000 </r>
       <r>    5.2255    1.0000 </r>
       <r>    5.2429    1.0000 </r>
       <r>    5.3478    1.0000 </r>
       <r>    5.6278    1.0000 </r>
       <r>    5.8145    1.0000 </r>
       <r>    6.5050    1.0000 </r>
[...]
       <r>    4.1360    1.0000 </r>
       <r>    5.4306    1.0000 </r>
       <r>    5.5647    1.0000 </r>
       <r>    5.5647    1.0000 </r>
       <r>    6.0830    1.0000 </r>
       <r>    6.0830    1.0000 </r>
       <r>    6.2062    1.0000 </r>
       <r>    6.2062    1.0000 </r>
       <r>    6.4241    1.0000 </r>
       <r>    6.5143    1.0000 </r>
       <r>    8.4136    0.6346 </r>
       <r>    8.5070    0.3746 </r>
       <r>    8.5070    0.3746 </r>
       <r>   11.3022    0.0000 </r>
       <r>   11.3022    0.0000 </r>
       <r>   12.2701    0.0000 </r>
       <r>   13.7576    0.0000 </r>
      </set>
      <set comment="kpoint 163">
       <r>    1.7406    1.0000 </r>
       <r>    1.8099    1.0000 </r>
       <r>    1.8535    1.0000 </r>
       <r>    2.1745    1.0000 </r>
       <r>    3.8586    1.0000 </r>
       <r>    3.8710    1.0000 </r>
       <r>    3.9048    1.0000 </r>
       <r>    3.9749    1.0000 </r>
       <r>    4.0035    1.0000 </r>
       <r>    4.0279    1.0000 </r>
       <r>    4.0279    1.0000 </r>
       <r>    4.0899    1.0000 </r>
       <r>    5.6131    1.0000 </r>
       <r>    5.7355    1.0000 </r>
       <r>    5.7363    1.0000 </r>
       <r>    6.0307    1.0000 </r>
       <r>    6.0952    1.0000 </r>
       <r>    6.1288    1.0000 </r>
       <r>    6.3002    1.0000 </r>
       <r>    6.4898    1.0000 </r>
       <r>    7.0207    1.0000 </r>
       <r>    7.7560    1.0022 </r>
       <r>    8.5190    0.3423 </r>
       <r>    8.5682    0.2201 </r>
       <r>   11.0071    0.0000 </r>
       <r>   11.3907    0.0000 </r>
       <r>   12.0743    0.0000 </r>
       <r>   13.4392    0.0000 </r>
      </set>
      <set comment="kpoint 164">
       <r>    1.7368    1.0000 </r>
       <r>    1.7692    1.0000 </r>
       <r>    1.7859    1.0000 </r>
       <r>    2.1332    1.0000 </r>
       <r>    3.8893    1.0000 </r>
       <r>    3.9112    1.0000 </r>
       <r>    3.9190    1.0000 </r>
       <r>    3.9652    1.0000 </r>
       <r>    3.9738    1.0000 </r>
       <r>    3.9925    1.0000 </r>
       <r>    4.0029    1.0000 </r>
       <r>    4.0390    1.0000 </r>
       <r>    5.8176    1.0000 </r>
       <r>    5.9078    1.0000 </r>
       <r>    5.9204    1.0000 </r>
       <r>    6.0396    1.0000 </r>
       <r>    6.1075    1.0000 </r>
       <r>    6.2735    1.0000 </r>
       <r>    6.2935    1.0000 </r>
       <r>    6.4729    1.0000 </r>
       <r>    7.3985    1.0000 </r>
       <r>    7.9358    1.0163 </r>
       <r>    8.0377    1.0312 </r>
       <r>    8.2921    0.9044 </r>
       <r>   11.0918    0.0000 </r>
       <r>   11.2787    0.0000 </r>
       <r>   11.6125    0.0000 </r>
       <r>   13.1997    0.0000 </r>
      </set>
      <set comment="kpoint 165">
       <r>    1.7126    1.0000 </r>
       <r>    1.7298    1.0000 </r>
       <r>    1.7298    1.0000 </r>
       <r>    2.0920    1.0000 </r>
       <r>    3.9113    1.0000 </r>
       <r>    3.9113    1.0000 </r>
       <r>    3.9340    1.0000 </r>
       <r>    3.9569    1.0000 </r>
       <r>    3.9569    1.0000 </r>
       <r>    3.9799    1.0000 </r>
       <r>    3.9799    1.0000 </r>
       <r>    3.9996    1.0000 </r>
       <r>    6.0042    1.0000 </r>
       <r>    6.0707    1.0000 </r>
       <r>    6.0707    1.0000 </r>
       <r>    6.1199    1.0000 </r>
       <r>    6.1199    1.0000 </r>
       <r>    6.4245    1.0000 </r>
       <r>    6.4245    1.0000 </r>
       <r>    6.5042    1.0000 </r>
       <r>    7.5981    1.0002 </r>
       <r>    7.9111    1.0131 </r>
       <r>    7.9912    1.0245 </r>
       <r>    7.9912    1.0245 </r>
       <r>   11.0047    0.0000 </r>
       <r>   11.0047    0.0000 </r>
       <r>   11.2098    0.0000 </r>
       <r>   13.0114    0.0000 </r>
      </set>
     </set>
    </set>
   </array>
  </eigenvalues>
  <separator name="orbital magnetization" >
   <v name="MAGDIPOLOUT">      0.00000000      0.00000000      0.00000000</v>
  </separator>
  <dos>
   <i name="efermi">      8.46197632 </i>
   <total>
    <array>
     <dimension dim="1">gridpoints</dimension>
     <dimension dim="2">spin</dimension>
     <field>energy</field>
     <field>total</field>
     <field>integrated</field>
     <set>
      <set comment="spin 1">
       <r>    -3.4728     0.0000     0.0000 </r>
       <r>    -3.3874     0.0000     0.0000 </r>
       <r>    -3.3019     0.0000     0.0000 </r>
       <r>    -3.2165     0.0000     0.0000 </r>
       <r>    -3.1310     0.0000     0.0000 </r>
       <r>    -3.0455     0.0000     0.0000 </r>
       <r>    -2.9601     0.0000     0.0000 </r>
       <r>    -2.8746     0.0000     0.0000 </r>
       <r>    -2.7892     0.0000     0.0000 </r>
       <r>    -2.7037     0.0000     0.0000 </r>
       <r>    -2.6183     0.0000     0.0000 </r>
       <r>    -2.5328     0.0000     0.0000 </r>
       <r>    -2.4474     0.0000     0.0000 </r>
       <r>    -2.3619     0.0000     0.0000 </r>
       <r>    -2.2765     0.0000     0.0000 </r>
       <r>    -2.1910     0.0000     0.0000 </r>
       <r>    -2.1056     0.0000     0.0000 </r>
       <r>    -2.0201     0.0000     0.0000 </r>
       <r>    -1.9347     0.0000     0.0000 </r>
       <r>    -1.8492     0.0000     0.0000 </r>
       <r>    -1.7638     0.0000     0.0000 </r>
       <r>    -1.6783     0.0000     0.0000 </r>
       <r>    -1.5929     0.0000     0.0000 </r>
       <r>    -1.5074     0.0000     0.0000 </r>
       <r>    -1.4220     0.0000     0.0000 </r>
       <r>    -1.3365     0.0000     0.0000 </r>
       <r>    -1.2511     0.0000     0.0000 </r>
       <r>    -1.1656    -0.0001     0.0000 </r>
       <r>    -1.0802    -0.0004     0.0000 </r>
       <r>    -0.9947    -0.0011    -0.0001 </r>
       <r>    -0.9092    -0.0025    -0.0004 </r>
       <r>    -0.8238    -0.0043    -0.0007 </r>
       <r>    -0.7383    -0.0054    -0.0012 </r>
       <r>    -0.6529    -0.0027    -0.0014 </r>
       <r>    -0.5674     0.0083    -0.0007 </r>
       <r>    -0.4820     0.0308     0.0019 </r>
       <r>    -0.3965     0.0650     0.0075 </r>
       <r>    -0.3111     0.1068     0.0166 </r>
       <r>    -0.2256     0.1501     0.0294 </r>
       <r>    -0.1402     0.1900     0.0457 </r>
       <r>    -0.0547     0.2246     0.0649 </r>
       <r>     0.0307     0.2549     0.0866 </r>
       <r>     0.1162     0.2823     0.1108 </r>
       <r>     0.2016     0.3082     0.1371 </r>
       <r>     0.2871     0.3336     0.1656 </r>
       <r>     0.3725     0.3597     0.1963 </r>
       <r>     0.4580     0.3867     0.2294 </r>
       <r>     0.5434     0.4137     0.2647 </r>
       <r>     0.6289     0.4408     0.3024 </r>
       <r>     0.7143     0.4696     0.3425 </r>
       <r>     0.7998     0.5016     0.3854 </r>
       <r>     0.8852     0.5357     0.4312 </r>
       <r>     0.9707     0.5703     0.4799 </r>
       <r>     1.0561     0.6068     0.5317 </r>
       <r>     1.1416     0.6487     0.5872 </r>
       <r>     1.2271     0.6996     0.6470 </r>
       <r>     1.3125     0.7656     0.7124 </r>
       <r>     1.3980     0.8620     0.7860 </r>
       <r>     1.4834     1.0143     0.8727 </r>
       <r>     1.5689     1.2415     0.9788 </r>
       <r>     1.6543     1.5298     1.1095 </r>
       <r>     1.7398     1.8241     1.2654 </r>
       <r>     1.8252     2.0666     1.4420 </r>
       <r>     1.9107     2.2689     1.6359 </r>
       <r>     1.9961     2.5527     1.8540 </r>
       <r>     2.0816     3.1008     2.1190 </r>
       <r>     2.1670     4.0340     2.4637 </r>
       <r>     2.2525     5.3060     2.9171 </r>
       <r>     2.3379     6.6951     3.4892 </r>
       <r>     2.4234     7.9052     4.1647 </r>
       <r>     2.5088     8.7060     4.9087 </r>
       <r>     2.5943     9.0246     5.6798 </r>
       <r>     2.6797     8.9367     6.4435 </r>
       <r>     2.7652     8.5824     7.1769 </r>
       <r>     2.8506     8.0838     7.8677 </r>
       <r>     2.9361     7.5277     8.5109 </r>
       <r>     3.0215     7.0088     9.1098 </r>
       <r>     3.1070     6.6624     9.6791 </r>
       <r>     3.1924     6.6267    10.2454 </r>
       <r>     3.2779     6.9514    10.8394 </r>
       <r>     3.3634     7.5409    11.4838 </r>
       <r>     3.4488     8.1940    12.1840 </r>
       <r>     3.5343     8.7152    12.9287 </r>
       <r>     3.6197     9.0156    13.6991 </r>
       <r>     3.7052     9.1513    14.4811 </r>
       <r>     3.7906     9.2998    15.2758 </r>
       <r>     3.8761     9.6950    16.1043 </r>
       <r>     3.9615    10.5104    17.0024 </r>
       <r>     4.0470    11.7013    18.0023 </r>
       <r>     4.1324    12.9133    19.1058 </r>
       <r>     4.2179    13.6002    20.2679 </r>
       <r>     4.3033    13.3553    21.4092 </r>
       <r>     4.3888    12.2162    22.4531 </r>
       <r>     4.4742    10.6683    23.3647 </r>
       <r>     4.5597     9.3269    24.1617 </r>
       <r>     4.6451     8.5714    24.8941 </r>
       <r>     4.7306     8.4041    25.6123 </r>
       <r>     4.8160     8.5669    26.3443 </r>
       <r>     4.9015     8.7686    27.0936 </r>
       <r>     4.9869     8.8625    27.8510 </r>
       <r>     5.0724     8.8783    28.6096 </r>
       <r>     5.1578     8.9059    29.3707 </r>
       <r>     5.2433     8.9472    30.1352 </r>
       <r>     5.3288     8.8921    30.8951 </r>
       <r>     5.4142     8.6478    31.6340 </r>
       <r>     5.4997     8.2696    32.3407 </r>
       <r>     5.5851     7.9496    33.0200 </r>
       <r>     5.6706     7.8985    33.6949 </r>
       <r>     5.7560     8.2487    34.3998 </r>
       <r>     5.8415     9.0137    35.1701 </r>
       <r>     5.9269    10.0402    36.0280 </r>
       <r>     6.0124    10.9677    36.9652 </r>
       <r>     6.0978    11.3267    37.9331 </r>
       <r>     6.1833    10.8099    38.8568 </r>
       <r>     6.2687     9.5057    39.6691 </r>
       <r>     6.3542     7.8440    40.3394 </r>
       <r>     6.4396     6.2788    40.8759 </r>
       <r>     6.5251     5.0150    41.3045 </r>
       <r>     6.6105     4.0082    41.6470 </r>
       <r>     6.6960     3.1505    41.9162 </r>
       <r>     6.7814     2.4057    42.1218 </r>
       <r>     6.8669     1.8026    42.2758 </r>
       <r>     6.9523     1.3719    42.3930 </r>
       <r>     7.0378     1.1149    42.4883 </r>
       <r>     7.1232     1.0064    42.5743 </r>
       <r>     7.2087     0.9982    42.6596 </r>
       <r>     7.2941     1.0273    42.7474 </r>
       <r>     7.3796     1.0441    42.8366 </r>
       <r>     7.4651     1.0395    42.9254 </r>
       <r>     7.5505     1.0338    43.0138 </r>
       <r>     7.6360     1.0393    43.1026 </r>
       <r>     7.7214     1.0476    43.1921 </r>
       <r>     7.8069     1.0525    43.2821 </r>
       <r>     7.8923     1.0653    43.3731 </r>
       <r>     7.9778     1.0945    43.4666 </r>
       <r>     8.0632     1.1236    43.5626 </r>
       <r>     8.1487     1.1255    43.6588 </r>
       <r>     8.2341     1.0966    43.7525 </r>
       <r>     8.3196     1.0681    43.8438 </r>
       <r>     8.4050     1.0791    43.9360 </r>
       <r>     8.4905     1.1358    44.0330 </r>
       <r>     8.5759     1.1990    44.1355 </r>
       <r>     8.6614     1.2140    44.2392 </r>
       <r>     8.7468     1.1600    44.3384 </r>
       <r>     8.8323     1.0726    44.4300 </r>
       <r>     8.9177     1.0175    44.5170 </r>
       <r>     9.0032     1.0372    44.6056 </r>
       <r>     9.0886     1.1179    44.7011 </r>
       <r>     9.1741     1.1995    44.8036 </r>
       <r>     9.2595     1.2190    44.9078 </r>
       <r>     9.3450     1.1569    45.0067 </r>
       <r>     9.4304     1.0531    45.0967 </r>
       <r>     9.5159     0.9783    45.1802 </r>
       <r>     9.6014     0.9812    45.2641 </r>
       <r>     9.6868     1.0558    45.3543 </r>
       <r>     9.7723     1.1495    45.4525 </r>
       <r>     9.8577     1.2006    45.5551 </r>
       <r>     9.9432     1.1782    45.6558 </r>
       <r>    10.0286     1.1003    45.7498 </r>
       <r>    10.1141     1.0195    45.8370 </r>
       <r>    10.1995     0.9836    45.9210 </r>
       <r>    10.2850     0.9994    46.0064 </r>
       <r>    10.3704     1.0325    46.0946 </r>
       <r>    10.4559     1.0432    46.1838 </r>
       <r>    10.5413     1.0232    46.2712 </r>
       <r>    10.6268     0.9967    46.3564 </r>
       <r>    10.7122     0.9871    46.4407 </r>
       <r>    10.7977     0.9937    46.5256 </r>
       <r>    10.8831     1.0051    46.6115 </r>
       <r>    10.9686     1.0262    46.6992 </r>
       <r>    11.0540     1.0748    46.7911 </r>
       <r>    11.1395     1.1532    46.8896 </r>
       <r>    11.2249     1.2343    46.9951 </r>
       <r>    11.3104     1.2875    47.1051 </r>
       <r>    11.3958     1.3081    47.2169 </r>
       <r>    11.4813     1.3125    47.3290 </r>
       <r>    11.5667     1.3115    47.4411 </r>
       <r>    11.6522     1.3034    47.5525 </r>
       <r>    11.7377     1.2913    47.6628 </r>
       <r>    11.8231     1.2897    47.7730 </r>
       <r>    11.9086     1.3025    47.8843 </r>
       <r>    11.9940     1.3099    47.9963 </r>
       <r>    12.0795     1.2901    48.1065 </r>
       <r>    12.1649     1.2477    48.2131 </r>
       <r>    12.2504     1.2073    48.3163 </r>
       <r>    12.3358     1.1799    48.4171 </r>
       <r>    12.4213     1.1549    48.5158 </r>
       <r>    12.5067     1.1250    48.6120 </r>
       <r>    12.5922     1.1016    48.7061 </r>
       <r>    12.6776     1.0971    48.7998 </r>
       <r>    12.7631     1.1052    48.8943 </r>
       <r>    12.8485     1.1122    48.9893 </r>
       <r>    12.9340     1.1171    49.0848 </r>
       <r>    13.0194     1.1316    49.1815 </r>
       <r>    13.1049     1.1650    49.2810 </r>
       <r>    13.1903     1.2184    49.3852 </r>
       <r>    13.2758     1.2911    49.4955 </r>
       <r>    13.3612     1.3794    49.6134 </r>
       <r>    13.4467     1.4697    49.7389 </r>
       <r>    13.5321     1.5379    49.8704 </r>
       <r>    13.6176     1.5632    50.0039 </r>
       <r>    13.7030     1.5415    50.1357 </r>
       <r>    13.7885     1.4875    50.2628 </r>
       <r>    13.8740     1.4246    50.3845 </r>
       <r>    13.9594     1.3722    50.5018 </r>
       <r>    14.0449     1.3385    50.6161 </r>
       <r>    14.1303     1.3257    50.7294 </r>
       <r>    14.2158     1.3351    50.8435 </r>
       <r>    14.3012     1.3591    50.9596 </r>
       <r>    14.3867     1.3705    51.0768 </r>
       <r>    14.4721     1.3350    51.1908 </r>
       <r>    14.5576     1.2457    51.2973 </r>
       <r>    14.6430     1.1418    51.3948 </r>
       <r>    14.7285     1.0846    51.4875 </r>
       <r>    14.8139     1.1102    51.5824 </r>
       <r>    14.8994     1.2012    51.6850 </r>
       <r>    14.9848     1.3012    51.7962 </r>
       <r>    15.0703     1.3542    51.9120 </r>
       <r>    15.1557     1.3424    52.0267 </r>
       <r>    15.2412     1.2923    52.1371 </r>
       <r>    15.3266     1.2476    52.2437 </r>
       <r>    15.4121     1.2343    52.3492 </r>
       <r>    15.4975     1.2532    52.4563 </r>
       <r>    15.5830     1.2986    52.5672 </r>
       <r>    15.6684     1.3746    52.6847 </r>
       <r>    15.7539     1.4842    52.8115 </r>
       <r>    15.8393     1.6065    52.9488 </r>
       <r>    15.9248     1.6965    53.0938 </r>
       <r>    16.0103     1.7152    53.2403 </r>
       <r>    16.0957     1.6627    53.3824 </r>
       <r>    16.1812     1.5779    53.5173 </r>
       <r>    16.2666     1.5024    53.6456 </r>
       <r>    16.3521     1.4490    53.7695 </r>
       <r>    16.4375     1.4052    53.8895 </r>
       <r>    16.5230     1.3669    54.0063 </r>
       <r>    16.6084     1.3595    54.1225 </r>
       <r>    16.6939     1.4154    54.2435 </r>
       <r>    16.7793     1.5305    54.3743 </r>
       <r>    16.8648     1.6526    54.5155 </r>
       <r>    16.9502     1.7205    54.6625 </r>
       <r>    17.0357     1.7073    54.8084 </r>
       <r>    17.1211     1.6236    54.9471 </r>
       <r>    17.2066     1.4938    55.0748 </r>
       <r>    17.2920     1.3446    55.1897 </r>
       <r>    17.3775     1.2082    55.2929 </r>
       <r>    17.4629     1.1117    55.3879 </r>
       <r>    17.5484     1.0526    55.4778 </r>
       <r>    17.6338     0.9964    55.5630 </r>
       <r>    17.7193     0.9102    55.6408 </r>
       <r>    17.8047     0.7936    55.7086 </r>
       <r>    17.8902     0.6707    55.7659 </r>
       <r>    17.9756     0.5585    55.8136 </r>
       <r>    18.0611     0.4558    55.8526 </r>
       <r>    18.1466     0.3590    55.8832 </r>
       <r>    18.2320     0.2767    55.9069 </r>
       <r>    18.3175     0.2229    55.9259 </r>
       <r>    18.4029     0.1980    55.9428 </r>
       <r>    18.4884     0.1840    55.9586 </r>
       <r>    18.5738     0.1586    55.9721 </r>
       <r>    18.6593     0.1144    55.9819 </r>
       <r>    18.7447     0.0638    55.9874 </r>
       <r>    18.8302     0.0255    55.9895 </r>
       <r>    18.9156     0.0095    55.9903 </r>
       <r>    19.0011     0.0117    55.9913 </r>
       <r>    19.0865     0.0211    55.9931 </r>
       <r>    19.1720     0.0275    55.9955 </r>
       <r>    19.2574     0.0263    55.9977 </r>
       <r>    19.3429     0.0188    55.9993 </r>
       <r>    19.4283     0.0096    56.0002 </r>
       <r>    19.5138     0.0025    56.0004 </r>
       <r>    19.5992    -0.0009    56.0003 </r>
       <r>    19.6847    -0.0016    56.0002 </r>
       <r>    19.7701    -0.0011    56.0001 </r>
       <r>    19.8556    -0.0006    56.0000 </r>
       <r>    19.9410    -0.0002    56.0000 </r>
       <r>    20.0265    -0.0001    56.0000 </r>
       <r>    20.1119     0.0000    56.0000 </r>
       <r>    20.1974     0.0000    56.0000 </r>
       <r>    20.2829     0.0000    56.0000 </r>
       <r>    20.3683     0.0000    56.0000 </r>
       <r>    20.4538     0.0000    56.0000 </r>
       <r>    20.5392     0.0000    56.0000 </r>
       <r>    20.6247     0.0000    56.0000 </r>
       <r>    20.7101     0.0000    56.0000 </r>
       <r>    20.7956     0.0000    56.0000 </r>
       <r>    20.8810     0.0000    56.0000 </r>
       <r>    20.9665     0.0000    56.0000 </r>
       <r>    21.0519     0.0000    56.0000 </r>
       <r>    21.1374     0.0000    56.0000 </r>
       <r>    21.2228     0.0000    56.0000 </r>
       <r>    21.3083     0.0000    56.0000 </r>
       <r>    21.3937     0.0000    56.0000 </r>
       <r>    21.4792     0.0000    56.0000 </r>
       <r>    21.5646     0.0000    56.0000 </r>
       <r>    21.6501     0.0000    56.0000 </r>
       <r>    21.7355     0.0000    56.0000 </r>
       <r>    21.8210     0.0000    56.0000 </r>
       <r>    21.9064     0.0000    56.0000 </r>
       <r>    21.9919     0.0000    56.0000 </r>
       <r>    22.0773     0.0000    56.0000 </r>
       <r>    22.1628     0.0000    56.0000 </r>
      </set>
     </set>
    </array>
   </total>
  </dos>
 </calculation>
 <structure name="finalpos" >
  <crystal>
   <varray name="basis" >
    <v>       0.00000000       4.15015207       0.00000000 </v>
    <v>       0.00000000       0.00000000       4.15015207 </v>
    <v>       4.15015207       0.00000000       0.00000000 </v>
   </varray>
   <i name="volume">     71.48123233 </i>
   <varray name="rec_basis" >
    <v>       0.00000000       0.24095503       0.00000000 </v>
    <v>       0.00000000       0.00000000       0.24095503 </v>
    <v>       0.24095503       0.00000000       0.00000000 </v>
   </varray>
  </crystal>
  <varray name="positions" >
   <v>       0.50000000       0.50000000       0.00000000 </v>
   <v>       0.00000000       0.00000000       0.00000000 </v>
   <v>       0.00000000       0.50000000       0.50000000 </v>
   <v>       0.50000000       0.00000000       0.50000000 </v>
  </varray>
 </structure>
</modeling>
