<?xml version="1.0" encoding="ISO-8859-1"?>
<modeling>
 <generator>
  <i name="program" type="string">vasp </i>
  <i name="version" type="string">5.3.5  </i>
  <i name="subversion" type="string">31Mar14 (build Jun 20 2014 13:15:13) complex                          parallel </i>
  <i name="platform" type="string">LinuxIFC </i>
  <i name="date" type="string">2025 11 21 </i>
  <i name="time" type="string">13:52:21 </i>
 </generator>
 <incar>
  <i type="string" name="PREC">accurate</i>
  <i type="int" name="IALGO">    68</i>
  <i type="logical" name="ADDGRID"> T  </i>
  <i type="int" name="NELM">   100</i>
  <i type="int" name="NELMIN">     4</i>
  <i type="int" name="IBRION">     2</i>
  <i name="EDIFF">      0.00000100</i>
  <i name="EDIFFG">     -0.02000000</i>
  <i type="int" name="NSW">    30</i>
  <i type="int" name="ISIF">     3</i>
  <i name="ENCUT">    500.00000000</i>
  <i type="logical" name="LREAL"> F  </i>
  <i type="int" name="ISMEAR">     1</i>
  <i name="SIGMA">      0.30000000</i>
  <i type="logical" name="LWAVE"> F  </i>
  <i type="logical" name="LCHARG"> F  </i>
  <i type="int" name="NELM">   100</i>
 </incar>
 <kpoints>
  <generation param="Auto">
   <i name="subdivisionlength">     70.00000000 </i>
   <v type="int" name="divisions">      26       15        9 </v>
   <v name="usershift">      0.00000000       0.00000000       0.00000000 </v>
   <v name="genvec1">      0.03846154       0.00000000       0.00000000 </v>
   <v name="genvec2">      0.00000000       0.06666667       0.00000000 </v>
   <v name="genvec3">      0.00000000       0.00000000       0.11111111 </v>
   <v name="shift">      0.00000000       0.00000000       0.00000000 </v>
  </generation>
  <varray name="kpointlist" >
   <v>       0.00000000       0.00000000       0.00000000 </v>
   <v>       0.03846154       0.00000000       0.00000000 </v>
   <v>       0.07692308       0.00000000       0.00000000 </v>
   <v>       0.11538462       0.00000000       0.00000000 </v>
   <v>       0.15384615       0.00000000       0.00000000 </v>
   <v>       0.19230769       0.00000000       0.00000000 </v>
   <v>       0.23076923       0.00000000       0.00000000 </v>
   <v>       0.26923077       0.00000000       0.00000000 </v>
   <v>       0.30769231       0.00000000       0.00000000 </v>
   <v>       0.34615385       0.00000000       0.00000000 </v>
   <v>       0.38461538       0.00000000       0.00000000 </v>
   <v>       0.42307692       0.00000000       0.00000000 </v>
   <v>       0.46153846       0.00000000       0.00000000 </v>
   <v>       0.50000000       0.00000000       0.00000000 </v>
   <v>       0.00000000       0.06666667       0.00000000 </v>
   <v>       0.03846154       0.06666667       0.00000000 </v>
   <v>       0.07692308       0.06666667       0.00000000 </v>
   <v>       0.11538462       0.06666667       0.00000000 </v>
   <v>       0.15384615       0.06666667       0.00000000 </v>
   <v>       0.19230769       0.06666667       0.00000000 </v>
   <v>       0.23076923       0.06666667       0.00000000 </v>
   <v>       0.26923077       0.06666667       0.00000000 </v>
   <v>       0.30769231       0.06666667       0.00000000 </v>
   <v>       0.34615385       0.06666667       0.00000000 </v>
   <v>       0.38461538       0.06666667       0.00000000 </v>
   <v>       0.42307692       0.06666667       0.00000000 </v>
   <v>       0.46153846       0.06666667       0.00000000 </v>
   <v>       0.50000000       0.06666667       0.00000000 </v>
   <v>      -0.46153846       0.06666667       0.00000000 </v>
   <v>      -0.42307692       0.06666667       0.00000000 </v>
   <v>      -0.38461538       0.06666667       0.00000000 </v>
   <v>      -0.34615385       0.06666667       0.00000000 </v>
   <v>      -0.30769231       0.06666667       0.00000000 </v>
   <v>      -0.26923077       0.06666667       0.00000000 </v>
   <v>      -0.23076923       0.06666667       0.00000000 </v>
   <v>      -0.19230769       0.06666667       0.00000000 </v>
   <v>      -0.15384615       0.06666667       0.00000000 </v>
   <v>      -0.11538462       0.06666667       0.00000000 </v>
   <v>      -0.07692308       0.06666667       0.00000000 </v>
   <v>      -0.03846154       0.06666667       0.00000000 </v>
   <v>       0.00000000       0.13333333       0.00000000 </v>
   <v>       0.03846154       0.13333333       0.00000000 </v>
   <v>       0.07692308       0.13333333       0.00000000 </v>
   <v>       0.11538462       0.13333333       0.00000000 </v>
   <v>       0.15384615       0.13333333       0.00000000 </v>
   <v>       0.19230769       0.13333333       0.00000000 </v>
   <v>       0.23076923       0.13333333       0.00000000 </v>
   <v>       0.26923077       0.13333333       0.00000000 </v>
   <v>       0.30769231       0.13333333       0.00000000 </v>
   <v>       0.34615385       0.13333333       0.00000000 </v>
   <v>       0.38461538       0.13333333       0.00000000 </v>
   <v>       0.42307692       0.13333333       0.00000000 </v>
   <v>       0.46153846       0.13333333       0.00000000 </v>
   <v>       0.50000000       0.13333333       0.00000000 </v>
   <v>      -0.46153846       0.13333333       0.00000000 </v>
   <v>      -0.42307692       0.13333333       0.00000000 </v>
   <v>      -0.38461538       0.13333333       0.00000000 </v>
   <v>      -0.34615385       0.13333333       0.00000000 </v>
   <v>      -0.30769231       0.13333333       0.00000000 </v>
   <v>      -0.26923077       0.13333333       0.00000000 </v>
   <v>      -0.23076923       0.13333333       0.00000000 </v>
   <v>      -0.19230769       0.13333333       0.00000000 </v>
   <v>      -0.15384615       0.13333333       0.00000000 </v>
   <v>      -0.11538462       0.13333333       0.00000000 </v>
   <v>      -0.07692308       0.13333333       0.00000000 </v>
   <v>      -0.03846154       0.13333333       0.00000000 </v>
   <v>       0.00000000       0.20000000       0.00000000 </v>
   <v>       0.03846154       0.20000000       0.00000000 </v>
   <v>       0.07692308       0.20000000       0.00000000 </v>
   <v>       0.11538462       0.20000000       0.00000000 </v>
   <v>       0.15384615       0.20000000       0.00000000 </v>
   <v>       0.19230769       0.20000000       0.00000000 </v>
   <v>       0.23076923       0.20000000       0.00000000 </v>
   <v>       0.26923077       0.20000000       0.00000000 </v>
   <v>       0.30769231       0.20000000       0.00000000 </v>
   <v>       0.34615385       0.20000000       0.00000000 </v>
   <v>       0.38461538       0.20000000       0.00000000 </v>
   <v>       0.42307692       0.20000000       0.00000000 </v>
   <v>       0.46153846       0.20000000       0.00000000 </v>
   <v>       0.50000000       0.20000000       0.00000000 </v>
   <v>      -0.46153846       0.20000000       0.00000000 </v>
   <v>      -0.42307692       0.20000000       0.00000000 </v>
   <v>      -0.38461538       0.20000000       0.00000000 </v>
   <v>      -0.34615385       0.20000000       0.00000000 </v>
   <v>      -0.30769231       0.20000000       0.00000000 </v>
   <v>      -0.26923077       0.20000000       0.00000000 </v>
   <v>      -0.23076923       0.20000000       0.00000000 </v>
   <v>      -0.19230769       0.20000000       0.00000000 </v>
   <v>      -0.15384615       0.20000000       0.00000000 </v>
   <v>      -0.11538462       0.20000000       0.00000000 </v>
   <v>      -0.07692308       0.20000000       0.00000000 </v>
   <v>      -0.03846154       0.20000000       0.00000000 </v>
   <v>       0.00000000       0.26666667       0.00000000 </v>
   <v>       0.03846154       0.26666667       0.00000000 </v>
   <v>       0.07692308       0.26666667       0.00000000 </v>
   <v>       0.11538462       0.26666667       0.00000000 </v>
   <v>       0.15384615       0.26666667       0.00000000 </v>
   <v>       0.19230769       0.26666667       0.00000000 </v>
   <v>       0.23076923       0.26666667       0.00000000 </v>
   <v>       0.26923077       0.26666667       0.00000000 </v>
   <v>       0.30769231       0.26666667       0.00000000 </v>
   <v>       0.34615385       0.26666667       0.00000000 </v>
   <v>       0.38461538       0.26666667       0.00000000 </v>
   <v>       0.42307692       0.26666667       0.00000000 </v>
   <v>       0.46153846       0.26666667       0.00000000 </v>
   <v>       0.50000000       0.26666667       0.00000000 </v>
   <v>      -0.46153846       0.26666667       0.00000000 </v>
   <v>      -0.42307692       0.26666667       0.00000000 </v>
   <v>      -0.38461538       0.26666667       0.00000000 </v>
   <v>      -0.34615385       0.26666667       0.00000000 </v>
   <v>      -0.30769231       0.26666667       0.00000000 </v>
   <v>      -0.26923077       0.26666667       0.00000000 </v>
   <v>      -0.23076923       0.26666667       0.00000000 </v>
   <v>      -0.19230769       0.26666667       0.00000000 </v>
   <v>      -0.15384615       0.26666667       0.00000000 </v>
   <v>      -0.11538462       0.26666667       0.00000000 </v>
   <v>      -0.07692308       0.26666667       0.00000000 </v>
   <v>      -0.03846154       0.26666667       0.00000000 </v>
   <v>       0.00000000       0.33333333       0.00000000 </v>
   <v>       0.03846154       0.33333333       0.00000000 </v>
   <v>       0.07692308       0.33333333       0.00000000 </v>
   <v>       0.11538462       0.33333333       0.00000000 </v>
   <v>       0.15384615       0.33333333       0.00000000 </v>
   <v>       0.19230769       0.33333333       0.00000000 </v>
   <v>       0.23076923       0.33333333       0.00000000 </v>
   <v>       0.26923077       0.33333333       0.00000000 </v>
   <v>       0.30769231       0.33333333       0.00000000 </v>
   <v>       0.34615385       0.33333333       0.00000000 </v>
   <v>       0.38461538       0.33333333       0.00000000 </v>
   <v>       0.42307692       0.33333333       0.00000000 </v>
   <v>       0.46153846       0.33333333       0.00000000 </v>
   <v>       0.50000000       0.33333333       0.00000000 </v>
   <v>      -0.46153846       0.33333333       0.00000000 </v>
   <v>      -0.42307692       0.33333333       0.00000000 </v>
   <v>      -0.38461538       0.33333333       0.00000000 </v>
   <v>      -0.34615385       0.33333333       0.00000000 </v>
   <v>      -0.30769231       0.33333333       0.00000000 </v>
   <v>      -0.26923077       0.33333333       0.00000000 </v>
   <v>      -0.23076923       0.33333333       0.00000000 </v>
   <v>      -0.19230769       0.33333333       0.00000000 </v>
   <v>      -0.15384615       0.33333333       0.00000000 </v>
   <v>      -0.11538462       0.33333333       0.00000000 </v>
   <v>      -0.07692308       0.33333333       0.00000000 </v>
   <v>      -0.03846154       0.33333333       0.00000000 </v>
   <v>       0.00000000       0.40000000       0.00000000 </v>
   <v>       0.03846154       0.40000000       0.00000000 </v>
   <v>       0.07692308       0.40000000       0.00000000 </v>
   <v>       0.11538462       0.40000000       0.00000000 </v>
   <v>       0.15384615       0.40000000       0.00000000 </v>
   <v>       0.19230769       0.40000000       0.00000000 </v>
   <v>       0.23076923       0.40000000       0.00000000 </v>
   <v>       0.26923077       0.40000000       0.00000000 </v>
   <v>       0.30769231       0.40000000       0.00000000 </v>
   <v>       0.34615385       0.40000000       0.00000000 </v>
   <v>       0.38461538       0.40000000       0.00000000 </v>
   <v>       0.42307692       0.40000000       0.00000000 </v>
   <v>       0.46153846       0.40000000       0.00000000 </v>
   <v>       0.50000000       0.40000000       0.00000000 </v>
   <v>      -0.46153846       0.40000000       0.00000000 </v>
   <v>      -0.42307692       0.40000000       0.00000000 </v>
   <v>      -0.38461538       0.40000000       0.00000000 </v>
   <v>      -0.34615385       0.40000000       0.00000000 </v>
   <v>      -0.30769231       0.40000000       0.00000000 </v>
   <v>      -0.26923077       0.40000000       0.00000000 </v>
   <v>      -0.23076923       0.40000000       0.00000000 </v>
   <v>      -0.19230769       0.40000000       0.00000000 </v>
   <v>      -0.15384615       0.40000000       0.00000000 </v>
   <v>      -0.11538462       0.40000000       0.00000000 </v>
   <v>      -0.07692308       0.40000000       0.00000000 </v>
   <v>      -0.03846154       0.40000000       0.00000000 </v>
   <v>       0.00000000       0.46666667       0.00000000 </v>
   <v>       0.03846154       0.46666667       0.00000000 </v>
   <v>       0.07692308       0.46666667       0.00000000 </v>
   <v>       0.11538462       0.46666667       0.00000000 </v>
   <v>       0.15384615       0.46666667       0.00000000 </v>
   <v>       0.19230769       0.46666667       0.00000000 </v>
   <v>       0.23076923       0.46666667       0.00000000 </v>
   <v>       0.26923077       0.46666667       0.00000000 </v>
   <v>       0.30769231       0.46666667       0.00000000 </v>
   <v>       0.34615385       0.46666667       0.00000000 </v>
   <v>       0.38461538       0.46666667       0.00000000 </v>
   <v>       0.42307692       0.46666667       0.00000000 </v>
   <v>       0.46153846       0.46666667       0.00000000 </v>
   <v>       0.50000000       0.46666667       0.00000000 </v>
   <v>      -0.46153846       0.46666667       0.00000000 </v>
   <v>      -0.42307692       0.46666667       0.00000000 </v>
   <v>      -0.38461538       0.46666667       0.00000000 </v>
   <v>      -0.34615385       0.46666667       0.00000000 </v>
   <v>      -0.30769231       0.46666667       0.00000000 </v>
   <v>      -0.26923077       0.46666667       0.00000000 </v>
   <v>      -0.23076923       0.46666667       0.00000000 </v>
   <v>      -0.19230769       0.46666667       0.00000000 </v>
   <v>      -0.15384615       0.46666667       0.00000000 </v>
   <v>      -0.11538462       0.46666667       0.00000000 </v>
   <v>      -0.07692308       0.46666667       0.00000000 </v>
   <v>      -0.03846154       0.46666667       0.00000000 </v>
   <v>       0.00000000       0.00000000       0.11111111 </v>
   <v>       0.03846154       0.00000000       0.11111111 </v>
   <v>       0.07692308       0.00000000       0.11111111 </v>
   <v>       0.11538462       0.00000000       0.11111111 </v>
   <v>       0.15384615       0.00000000       0.11111111 </v>
   <v>       0.19230769       0.00000000       0.11111111 </v>
   <v>       0.23076923       0.00000000       0.11111111 </v>
   <v>       0.26923077       0.00000000       0.11111111 </v>
   <v>       0.30769231       0.00000000       0.11111111 </v>
   <v>       0.34615385       0.00000000       0.11111111 </v>
   <v>       0.38461538       0.00000000       0.11111111 </v>
   <v>       0.42307692       0.00000000       0.11111111 </v>
   <v>       0.46153846       0.00000000       0.11111111 </v>
   <v>       0.50000000       0.00000000       0.11111111 </v>
   <v>      -0.46153846       0.00000000       0.11111111 </v>
   <v>      -0.42307692       0.00000000       0.11111111 </v>
   <v>      -0.38461538       0.00000000       0.11111111 </v>
   <v>      -0.34615385       0.00000000       0.11111111 </v>
   <v>      -0.30769231       0.00000000       0.11111111 </v>
   <v>      -0.26923077       0.00000000       0.11111111 </v>
   <v>      -0.23076923       0.00000000       0.11111111 </v>
   <v>      -0.19230769       0.00000000       0.11111111 </v>
   <v>      -0.15384615       0.00000000       0.11111111 </v>
   <v>      -0.11538462       0.00000000       0.11111111 </v>
   <v>      -0.07692308       0.00000000       0.11111111 </v>
   <v>      -0.03846154       0.00000000       0.11111111 </v>
   <v>       0.00000000       0.06666667       0.11111111 </v>
   <v>       0.03846154       0.06666667       0.11111111 </v>
   <v>       0.07692308       0.06666667       0.11111111 </v>
   <v>       0.11538462       0.06666667       0.11111111 </v>
   <v>       0.15384615       0.06666667       0.11111111 </v>
   <v>       0.19230769       0.06666667       0.11111111 </v>
   <v>       0.23076923       0.06666667       0.11111111 </v>
   <v>       0.26923077       0.06666667       0.11111111 </v>
   <v>       0.30769231       0.06666667       0.11111111 </v>
   <v>       0.34615385       0.06666667       0.11111111 </v>
   <v>       0.38461538       0.06666667       0.11111111 </v>
   <v>       0.42307692       0.06666667       0.11111111 </v>
   <v>       0.46153846       0.06666667       0.11111111 </v>
   <v>       0.50000000       0.06666667       0.11111111 </v>
   <v>      -0.46153846       0.06666667       0.11111111 </v>
   <v>      -0.42307692       0.06666667       0.11111111 </v>
   <v>      -0.38461538       0.06666667       0.11111111 </v>
   <v>      -0.34615385       0.06666667       0.11111111 </v>
   <v>      -0.30769231       0.06666667       0.11111111 </v>
   <v>      -0.26923077       0.06666667       0.11111111 </v>
   <v>      -0.23076923       0.06666667       0.11111111 </v>
   <v>      -0.19230769       0.06666667       0.11111111 </v>
   <v>      -0.15384615       0.06666667       0.11111111 </v>
   <v>      -0.11538462       0.06666667       0.11111111 </v>
   <v>      -0.07692308       0.06666667       0.11111111 </v>
   <v>      -0.03846154       0.06666667       0.11111111 </v>
   <v>       0.00000000       0.13333333       0.11111111 </v>
   <v>       0.03846154       0.13333333       0.11111111 </v>
   <v>       0.07692308       0.13333333       0.11111111 </v>
   <v>       0.11538462       0.13333333       0.11111111 </v>
   <v>       0.15384615       0.13333333       0.11111111 </v>
   <v>       0.19230769       0.13333333       0.11111111 </v>
   <v>       0.23076923       0.13333333       0.11111111 </v>
   <v>       0.26923077       0.13333333       0.11111111 </v>
   <v>       0.30769231       0.13333333       0.11111111 </v>
   <v>       0.34615385       0.13333333       0.11111111 </v>
   <v>       0.38461538       0.13333333       0.11111111 </v>
   <v>       0.42307692       0.13333333       0.11111111 </v>
   <v>       0.46153846       0.13333333       0.11111111 </v>
   <v>       0.50000000       0.13333333       0.11111111 </v>
   <v>      -0.46153846       0.13333333       0.11111111 </v>
   <v>      -0.42307692       0.13333333       0.11111111 </v>
   <v>      -0.38461538       0.13333333       0.11111111 </v>
   <v>      -0.34615385       0.13333333       0.11111111 </v>
   <v>      -0.30769231       0.13333333       0.11111111 </v>
   <v>      -0.26923077       0.13333333       0.11111111 </v>
   <v>      -0.23076923       0.13333333       0.11111111 </v>
   <v>      -0.19230769       0.13333333       0.11111111 </v>
   <v>      -0.15384615       0.13333333       0.11111111 </v>
   <v>      -0.11538462       0.13333333       0.11111111 </v>
   <v>      -0.07692308       0.13333333       0.11111111 </v>
   <v>      -0.03846154       0.13333333       0.11111111 </v>
   <v>       0.00000000       0.20000000       0.11111111 </v>
   <v>       0.03846154       0.20000000       0.11111111 </v>
   <v>       0.07692308       0.20000000       0.11111111 </v>
   <v>       0.11538462       0.20000000       0.11111111 </v>
   <v>       0.15384615       0.20000000       0.11111111 </v>
   <v>       0.19230769       0.20000000       0.11111111 </v>
   <v>       0.23076923       0.20000000       0.11111111 </v>
   <v>       0.26923077       0.20000000       0.11111111 </v>
   <v>       0.30769231       0.20000000       0.11111111 </v>
   <v>       0.34615385       0.20000000       0.11111111 </v>
   <v>       0.38461538       0.20000000       0.11111111 </v>
   <v>       0.42307692       0.20000000       0.11111111 </v>
   <v>       0.46153846       0.20000000       0.11111111 </v>
   <v>       0.50000000       0.20000000       0.11111111 </v>
   <v>      -0.46153846       0.20000000       0.11111111 </v>
   <v>      -0.42307692       0.20000000       0.11111111 </v>
   <v>      -0.38461538       0.20000000       0.11111111 </v>
   <v>      -0.34615385       0.20000000       0.11111111 </v>
   <v>      -0.30769231       0.20000000       0.11111111 </v>
   <v>      -0.26923077       0.20000000       0.11111111 </v>
   <v>      -0.23076923       0.20000000       0.11111111 </v>
   <v>      -0.19230769       0.20000000       0.11111111 </v>
   <v>      -0.15384615       0.20000000       0.11111111 </v>
   <v>      -0.11538462       0.20000000       0.11111111 </v>
   <v>      -0.07692308       0.20000000       0.11111111 </v>
   <v>      -0.03846154       0.20000000       0.11111111 </v>
   <v>       0.00000000       0.26666667       0.11111111 </v>
   <v>       0.03846154       0.26666667       0.11111111 </v>
   <v>       0.07692308       0.26666667       0.11111111 </v>
   <v>       0.11538462       0.26666667       0.11111111 </v>
   <v>       0.15384615       0.26666667       0.11111111 </v>
   <v>       0.19230769       0.26666667       0.11111111 </v>
   <v>       0.23076923       0.26666667       0.11111111 </v>
   <v>       0.26923077       0.26666667       0.11111111 </v>
   <v>       0.30769231       0.26666667       0.11111111 </v>
   <v>       0.34615385       0.26666667       0.11111111 </v>
   <v>       0.38461538       0.26666667       0.11111111 </v>
   <v>       0.42307692       0.26666667       0.11111111 </v>
   <v>       0.46153846       0.26666667       0.11111111 </v>
   <v>       0.50000000       0.26666667       0.11111111 </v>
   <v>      -0.46153846       0.26666667       0.11111111 </v>
   <v>      -0.42307692       0.26666667       0.11111111 </v>
   <v>      -0.38461538       0.26666667       0.11111111 </v>
   <v>      -0.34615385       0.26666667       0.11111111 </v>
   <v>      -0.30769231       0.26666667       0.11111111 </v>
   <v>      -0.26923077       0.26666667       0.11111111 </v>
   <v>      -0.23076923       0.26666667       0.11111111 </v>
   <v>      -0.19230769       0.26666667       0.11111111 </v>
   <v>      -0.15384615       0.26666667       0.11111111 </v>
   <v>      -0.11538462       0.26666667       0.11111111 </v>
   <v>      -0.07692308       0.26666667       0.11111111 </v>
   <v>      -0.03846154       0.26666667       0.11111111 </v>
   <v>       0.00000000       0.33333333       0.11111111 </v>
   <v>       0.03846154       0.33333333       0.11111111 </v>
   <v>       0.07692308       0.33333333       0.11111111 </v>
   <v>       0.11538462       0.33333333       0.11111111 </v>
   <v>       0.15384615       0.33333333       0.11111111 </v>
   <v>       0.19230769       0.33333333       0.11111111 </v>
   <v>       0.23076923       0.33333333       0.11111111 </v>
   <v>       0.26923077       0.33333333       0.11111111 </v>
   <v>       0.30769231       0.33333333       0.11111111 </v>
   <v>       0.34615385       0.33333333       0.11111111 </v>
   <v>       0.38461538       0.33333333       0.11111111 </v>
   <v>       0.42307692       0.33333333       0.11111111 </v>
   <v>       0.46153846       0.33333333       0.11111111 </v>
   <v>       0.50000000       0.33333333       0.11111111 </v>
   <v>      -0.46153846       0.33333333       0.11111111 </v>
   <v>      -0.42307692       0.33333333       0.11111111 </v>
   <v>      -0.38461538       0.33333333       0.11111111 </v>
   <v>      -0.34615385       0.33333333       0.11111111 </v>
   <v>      -0.30769231       0.33333333       0.11111111 </v>
   <v>      -0.26923077       0.33333333       0.11111111 </v>
   <v>      -0.23076923       0.33333333       0.11111111 </v>
   <v>      -0.19230769       0.33333333       0.11111111 </v>
   <v>      -0.15384615       0.33333333       0.11111111 </v>
   <v>      -0.11538462       0.33333333       0.11111111 </v>
   <v>      -0.07692308       0.33333333       0.11111111 </v>
   <v>      -0.03846154       0.33333333       0.11111111 </v>
   <v>       0.00000000       0.40000000       0.11111111 </v>
   <v>       0.03846154       0.40000000       0.11111111 </v>
   <v>       0.07692308       0.40000000       0.11111111 </v>
   <v>       0.11538462       0.40000000       0.11111111 </v>
   <v>       0.15384615       0.40000000       0.11111111 </v>
   <v>       0.19230769       0.40000000       0.11111111 </v>
   <v>       0.23076923       0.40000000       0.11111111 </v>
   <v>       0.26923077       0.40000000       0.11111111 </v>
   <v>       0.30769231       0.40000000       0.11111111 </v>
   <v>       0.34615385       0.40000000       0.11111111 </v>
   <v>       0.38461538       0.40000000       0.11111111 </v>
   <v>       0.42307692       0.40000000       0.11111111 </v>
   <v>       0.46153846       0.40000000       0.11111111 </v>
   <v>       0.50000000       0.40000000       0.11111111 </v>
   <v>      -0.46153846       0.40000000       0.11111111 </v>
   <v>      -0.42307692       0.40000000       0.11111111 </v>
   <v>      -0.38461538       0.40000000       0.11111111 </v>
   <v>      -0.34615385       0.40000000       0.11111111 </v>
   <v>      -0.30769231       0.40000000       0.11111111 </v>
   <v>      -0.26923077       0.40000000       0.11111111 </v>
   <v>      -0.23076923       0.40000000       0.11111111 </v>
   <v>      -0.19230769       0.40000000       0.11111111 </v>
   <v>      -0.15384615       0.40000000       0.11111111 </v>
   <v>      -0.11538462       0.40000000       0.11111111 </v>
   <v>      -0.07692308       0.40000000       0.11111111 </v>
   <v>      -0.03846154       0.40000000       0.11111111 </v>
   <v>       0.00000000       0.46666667       0.11111111 </v>
   <v>       0.03846154       0.46666667       0.11111111 </v>
   <v>       0.07692308       0.46666667       0.11111111 </v>
   <v>       0.11538462       0.46666667       0.11111111 </v>
   <v>       0.15384615       0.46666667       0.11111111 </v>
   <v>       0.19230769       0.46666667       0.11111111 </v>
   <v>       0.23076923       0.46666667       0.11111111 </v>
   <v>       0.26923077       0.46666667       0.11111111 </v>
   <v>       0.30769231       0.46666667       0.11111111 </v>
   <v>       0.34615385       0.46666667       0.11111111 </v>
   <v>       0.38461538       0.46666667       0.11111111 </v>
   <v>       0.42307692       0.46666667       0.11111111 </v>
   <v>       0.46153846       0.46666667       0.11111111 </v>
   <v>       0.50000000       0.46666667       0.11111111 </v>
   <v>      -0.46153846       0.46666667       0.11111111 </v>
   <v>      -0.42307692       0.46666667       0.11111111 </v>
   <v>      -0.38461538       0.46666667       0.11111111 </v>
   <v>      -0.34615385       0.46666667       0.11111111 </v>
   <v>      -0.30769231       0.46666667       0.11111111 </v>
   <v>      -0.26923077       0.46666667       0.11111111 </v>
   <v>      -0.23076923       0.46666667       0.11111111 </v>
   <v>      -0.19230769       0.46666667       0.11111111 </v>
   <v>      -0.15384615       0.46666667       0.11111111 </v>
   <v>      -0.11538462       0.46666667       0.11111111 </v>
   <v>      -0.07692308       0.46666667       0.11111111 </v>
   <v>      -0.03846154       0.46666667       0.11111111 </v>
   <v>       0.00000000      -0.46666667       0.11111111 </v>
   <v>       0.03846154      -0.46666667       0.11111111 </v>
   <v>       0.07692308      -0.46666667       0.11111111 </v>
   <v>       0.11538462      -0.46666667       0.11111111 </v>
   <v>       0.15384615      -0.46666667       0.11111111 </v>
   <v>       0.19230769      -0.46666667       0.11111111 </v>
   <v>       0.23076923      -0.46666667       0.11111111 </v>
   <v>       0.26923077      -0.46666667       0.11111111 </v>
   <v>       0.30769231      -0.46666667       0.11111111 </v>
   <v>       0.34615385      -0.46666667       0.11111111 </v>
   <v>       0.38461538      -0.46666667       0.11111111 </v>
   <v>       0.42307692      -0.46666667       0.11111111 </v>
   <v>       0.46153846      -0.46666667       0.11111111 </v>
   <v>       0.50000000      -0.46666667       0.11111111 </v>
   <v>      -0.46153846      -0.46666667       0.11111111 </v>
   <v>      -0.42307692      -0.46666667       0.11111111 </v>
   <v>      -0.38461538      -0.46666667       0.11111111 </v>
   <v>      -0.34615385      -0.46666667       0.11111111 </v>
   <v>      -0.30769231      -0.46666667       0.11111111 </v>
   <v>      -0.26923077      -0.46666667       0.11111111 </v>
   <v>      -0.23076923      -0.46666667       0.11111111 </v>
   <v>      -0.19230769      -0.46666667       0.11111111 </v>
   <v>      -0.15384615      -0.46666667       0.11111111 </v>
   <v>      -0.11538462      -0.46666667       0.11111111 </v>
   <v>      -0.07692308      -0.46666667       0.11111111 </v>
   <v>      -0.03846154      -0.46666667       0.11111111 </v>
   <v>       0.00000000      -0.40000000       0.11111111 </v>
   <v>       0.03846154      -0.40000000       0.11111111 </v>
   <v>       0.07692308      -0.40000000       0.11111111 </v>
   <v>       0.11538462      -0.40000000       0.11111111 </v>
   <v>       0.15384615      -0.40000000       0.11111111 </v>
   <v>       0.19230769      -0.40000000       0.11111111 </v>
   <v>       0.23076923      -0.40000000       0.11111111 </v>
   <v>       0.26923077      -0.40000000       0.11111111 </v>
   <v>       0.30769231      -0.40000000       0.11111111 </v>
   <v>       0.34615385      -0.40000000       0.11111111 </v>
   <v>       0.38461538      -0.40000000       0.11111111 </v>
   <v>       0.42307692      -0.40000000       0.11111111 </v>
   <v>       0.46153846      -0.40000000       0.11111111 </v>
   <v>       0.50000000      -0.40000000       0.11111111 </v>
   <v>      -0.46153846      -0.40000000       0.11111111 </v>
   <v>      -0.42307692      -0.40000000       0.11111111 </v>
   <v>      -0.38461538      -0.40000000       0.11111111 </v>
   <v>      -0.34615385      -0.40000000       0.11111111 </v>
   <v>      -0.30769231      -0.40000000       0.11111111 </v>
   <v>      -0.26923077      -0.40000000       0.11111111 </v>
   <v>      -0.23076923      -0.40000000       0.11111111 </v>
   <v>      -0.19230769      -0.40000000       0.11111111 </v>
   <v>      -0.15384615      -0.40000000       0.11111111 </v>
   <v>      -0.11538462      -0.40000000       0.11111111 </v>
   <v>      -0.07692308      -0.40000000       0.11111111 </v>
   <v>      -0.03846154      -0.40000000       0.11111111 </v>
   <v>       0.00000000      -0.33333333       0.11111111 </v>
   <v>       0.03846154      -0.33333333       0.11111111 </v>
   <v>       0.07692308      -0.33333333       0.11111111 </v>
   <v>       0.11538462      -0.33333333       0.11111111 </v>
   <v>       0.15384615      -0.33333333       0.11111111 </v>
   <v>       0.19230769      -0.33333333       0.11111111 </v>
   <v>       0.23076923      -0.33333333       0.11111111 </v>
   <v>       0.26923077      -0.33333333       0.11111111 </v>
   <v>       0.30769231      -0.33333333       0.11111111 </v>
   <v>       0.34615385      -0.33333333       0.11111111 </v>
   <v>       0.38461538      -0.33333333       0.11111111 </v>
   <v>       0.42307692      -0.33333333       0.11111111 </v>
   <v>       0.46153846      -0.33333333       0.11111111 </v>
   <v>       0.50000000      -0.33333333       0.11111111 </v>
   <v>      -0.46153846      -0.33333333       0.11111111 </v>
   <v>      -0.42307692      -0.33333333       0.11111111 </v>
   <v>      -0.38461538      -0.33333333       0.11111111 </v>
   <v>      -0.34615385      -0.33333333       0.11111111 </v>
   <v>      -0.30769231      -0.33333333       0.11111111 </v>
   <v>      -0.26923077      -0.33333333       0.11111111 </v>
   <v>      -0.23076923      -0.33333333       0.11111111 </v>
   <v>      -0.19230769      -0.33333333       0.11111111 </v>
   <v>      -0.15384615      -0.33333333       0.11111111 </v>
   <v>      -0.11538462      -0.33333333       0.11111111 </v>
   <v>      -0.07692308      -0.33333333       0.11111111 </v>
   <v>      -0.03846154      -0.33333333       0.11111111 </v>
   <v>       0.00000000      -0.26666667       0.11111111 </v>
   <v>       0.03846154      -0.26666667       0.11111111 </v>
   <v>       0.07692308      -0.26666667       0.11111111 </v>
   <v>       0.11538462      -0.26666667       0.11111111 </v>
   <v>       0.15384615      -0.26666667       0.11111111 </v>
   <v>       0.19230769      -0.26666667       0.11111111 </v>
   <v>       0.23076923      -0.26666667       0.11111111 </v>
   <v>       0.26923077      -0.26666667       0.11111111 </v>
   <v>       0.30769231      -0.26666667       0.11111111 </v>
   <v>       0.34615385      -0.26666667       0.11111111 </v>
   <v>       0.38461538      -0.26666667       0.11111111 </v>
   <v>       0.42307692      -0.26666667       0.11111111 </v>
   <v>       0.46153846      -0.26666667       0.11111111 </v>
   <v>       0.50000000      -0.26666667       0.11111111 </v>
   <v>      -0.46153846      -0.26666667       0.11111111 </v>
   <v>      -0.42307692      -0.26666667       0.11111111 </v>
   <v>      -0.38461538      -0.26666667       0.11111111 </v>
   <v>      -0.34615385      -0.26666667       0.11111111 </v>
   <v>      -0.30769231      -0.26666667       0.11111111 </v>
   <v>      -0.26923077      -0.26666667       0.11111111 </v>
   <v>      -0.23076923      -0.26666667       0.11111111 </v>
   <v>      -0.19230769      -0.26666667       0.11111111 </v>
   <v>      -0.15384615      -0.26666667       0.11111111 </v>
   <v>      -0.11538462      -0.26666667       0.11111111 </v>
   <v>      -0.07692308      -0.26666667       0.11111111 </v>
   <v>      -0.03846154      -0.26666667       0.11111111 </v>
   <v>       0.00000000      -0.20000000       0.11111111 </v>
   <v>       0.03846154      -0.20000000       0.11111111 </v>
   <v>       0.07692308      -0.20000000       0.11111111 </v>
   <v>       0.11538462      -0.20000000       0.11111111 </v>
   <v>       0.15384615      -0.20000000       0.11111111 </v>
   <v>       0.19230769      -0.20000000       0.11111111 </v>
   <v>       0.23076923      -0.20000000       0.11111111 </v>
   <v>       0.26923077      -0.20000000       0.11111111 </v>
   <v>       0.30769231      -0.20000000       0.11111111 </v>
   <v>       0.34615385      -0.20000000       0.11111111 </v>
   <v>       0.38461538      -0.20000000       0.11111111 </v>
   <v>       0.42307692      -0.20000000       0.11111111 </v>
   <v>       0.46153846      -0.20000000       0.11111111 </v>
   <v>       0.50000000      -0.20000000       0.11111111 </v>
   <v>      -0.46153846      -0.20000000       0.11111111 </v>
   <v>      -0.42307692      -0.20000000       0.11111111 </v>
   <v>      -0.38461538      -0.20000000       0.11111111 </v>
   <v>      -0.34615385      -0.20000000       0.11111111 </v>
   <v>      -0.30769231      -0.20000000       0.11111111 </v>
   <v>      -0.26923077      -0.20000000       0.11111111 </v>
   <v>      -0.23076923      -0.20000000       0.11111111 </v>
   <v>      -0.19230769      -0.20000000       0.11111111 </v>
   <v>      -0.15384615      -0.20000000       0.11111111 </v>
   <v>      -0.11538462      -0.20000000       0.11111111 </v>
   <v>      -0.07692308      -0.20000000       0.11111111 </v>
   <v>      -0.03846154      -0.20000000       0.11111111 </v>
   <v>       0.00000000      -0.13333333       0.11111111 </v>
   <v>       0.03846154      -0.13333333       0.11111111 </v>
   <v>       0.07692308      -0.13333333       0.11111111 </v>
   <v>       0.11538462      -0.13333333       0.11111111 </v>
   <v>       0.15384615      -0.13333333       0.11111111 </v>
   <v>       0.19230769      -0.13333333       0.11111111 </v>
   <v>       0.23076923      -0.13333333       0.11111111 </v>
   <v>       0.26923077      -0.13333333       0.11111111 </v>
   <v>       0.30769231      -0.13333333       0.11111111 </v>
   <v>       0.34615385      -0.13333333       0.11111111 </v>
   <v>       0.38461538      -0.13333333       0.11111111 </v>
   <v>       0.42307692      -0.13333333       0.11111111 </v>
   <v>       0.46153846      -0.13333333       0.11111111 </v>
   <v>       0.50000000      -0.13333333       0.11111111 </v>
   <v>      -0.46153846      -0.13333333       0.11111111 </v>
   <v>      -0.42307692      -0.13333333       0.11111111 </v>
   <v>      -0.38461538      -0.13333333       0.11111111 </v>
   <v>      -0.34615385      -0.13333333       0.11111111 </v>
   <v>      -0.30769231      -0.13333333       0.11111111 </v>
   <v>      -0.26923077      -0.13333333       0.11111111 </v>
   <v>      -0.23076923      -0.13333333       0.11111111 </v>
   <v>      -0.19230769      -0.13333333       0.11111111 </v>
   <v>      -0.15384615      -0.13333333       0.11111111 </v>
   <v>      -0.11538462      -0.13333333       0.11111111 </v>
   <v>      -0.07692308      -0.13333333       0.11111111 </v>
   <v>      -0.03846154      -0.13333333       0.11111111 </v>
   <v>       0.00000000      -0.06666667       0.11111111 </v>
   <v>       0.03846154      -0.06666667       0.11111111 </v>
   <v>       0.07692308      -0.06666667       0.11111111 </v>
   <v>       0.11538462      -0.06666667       0.11111111 </v>
   <v>       0.15384615      -0.06666667       0.11111111 </v>
   <v>       0.19230769      -0.06666667       0.11111111 </v>
   <v>       0.23076923      -0.06666667       0.11111111 </v>
   <v>       0.26923077      -0.06666667       0.11111111 </v>
   <v>       0.30769231      -0.06666667       0.11111111 </v>
   <v>       0.34615385      -0.06666667       0.11111111 </v>
   <v>       0.38461538      -0.06666667       0.11111111 </v>
   <v>       0.42307692      -0.06666667       0.11111111 </v>
   <v>       0.46153846      -0.06666667       0.11111111 </v>
   <v>       0.50000000      -0.06666667       0.11111111 </v>
   <v>      -0.46153846      -0.06666667       0.11111111 </v>
   <v>      -0.42307692      -0.06666667       0.11111111 </v>
   <v>      -0.38461538      -0.06666667       0.11111111 </v>
   <v>      -0.34615385      -0.06666667       0.11111111 </v>
   <v>      -0.30769231      -0.06666667       0.11111111 </v>
   <v>      -0.26923077      -0.06666667       0.11111111 </v>
   <v>      -0.23076923      -0.06666667       0.11111111 </v>
   <v>      -0.19230769      -0.06666667       0.11111111 </v>
   <v>      -0.15384615      -0.06666667       0.11111111 </v>
   <v>      -0.11538462      -0.06666667       0.11111111 </v>
   <v>      -0.07692308      -0.06666667       0.11111111 </v>
   <v>      -0.03846154      -0.06666667       0.11111111 </v>
   <v>       0.00000000       0.00000000       0.22222222 </v>
   <v>       0.03846154       0.00000000       0.22222222 </v>
   <v>       0.07692308       0.00000000       0.22222222 </v>
   <v>       0.11538462       0.00000000       0.22222222 </v>
   <v>       0.15384615       0.00000000       0.22222222 </v>
   <v>       0.19230769       0.00000000       0.22222222 </v>
   <v>       0.23076923       0.00000000       0.22222222 </v>
   <v>       0.26923077       0.00000000       0.22222222 </v>
   <v>       0.30769231       0.00000000       0.22222222 </v>
   <v>       0.34615385       0.00000000       0.22222222 </v>
   <v>       0.38461538       0.00000000       0.22222222 </v>
   <v>       0.42307692       0.00000000       0.22222222 </v>
   <v>       0.46153846       0.00000000       0.22222222 </v>
   <v>       0.50000000       0.00000000       0.22222222 </v>
   <v>      -0.46153846       0.00000000       0.22222222 </v>
   <v>      -0.42307692       0.00000000       0.22222222 </v>
   <v>      -0.38461538       0.00000000       0.22222222 </v>
   <v>      -0.34615385       0.00000000       0.22222222 </v>
   <v>      -0.30769231       0.00000000       0.22222222 </v>
   <v>      -0.26923077       0.00000000       0.22222222 </v>
   <v>      -0.23076923       0.00000000       0.22222222 </v>
   <v>      -0.19230769       0.00000000       0.22222222 </v>
   <v>      -0.15384615       0.00000000       0.22222222 </v>
   <v>      -0.11538462       0.00000000       0.22222222 </v>
   <v>      -0.07692308       0.00000000       0.22222222 </v>
   <v>      -0.03846154       0.00000000       0.22222222 </v>
   <v>       0.00000000       0.06666667       0.22222222 </v>
   <v>       0.03846154       0.06666667       0.22222222 </v>
   <v>       0.07692308       0.06666667       0.22222222 </v>
   <v>       0.11538462       0.06666667       0.22222222 </v>
   <v>       0.15384615       0.06666667       0.22222222 </v>
   <v>       0.19230769       0.06666667       0.22222222 </v>
   <v>       0.23076923       0.06666667       0.22222222 </v>
   <v>       0.26923077       0.06666667       0.22222222 </v>
   <v>       0.30769231       0.06666667       0.22222222 </v>
   <v>       0.34615385       0.06666667       0.22222222 </v>
   <v>       0.38461538       0.06666667       0.22222222 </v>
   <v>       0.42307692       0.06666667       0.22222222 </v>
   <v>       0.46153846       0.06666667       0.22222222 </v>
   <v>       0.50000000       0.06666667       0.22222222 </v>
   <v>      -0.46153846       0.06666667       0.22222222 </v>
   <v>      -0.42307692       0.06666667       0.22222222 </v>
   <v>      -0.38461538       0.06666667       0.22222222 </v>
   <v>      -0.34615385       0.06666667       0.22222222 </v>
   <v>      -0.30769231       0.06666667       0.22222222 </v>
   <v>      -0.26923077       0.06666667       0.22222222 </v>
   <v>      -0.23076923       0.06666667       0.22222222 </v>
   <v>      -0.19230769       0.06666667       0.22222222 </v>
   <v>      -0.15384615       0.06666667       0.22222222 </v>
   <v>      -0.11538462       0.06666667       0.22222222 </v>
   <v>      -0.07692308       0.06666667       0.22222222 </v>
   <v>      -0.03846154       0.06666667       0.22222222 </v>
   <v>       0.00000000       0.13333333       0.22222222 </v>
   <v>       0.03846154       0.13333333       0.22222222 </v>
   <v>       0.07692308       0.13333333       0.22222222 </v>
   <v>       0.11538462       0.13333333       0.22222222 </v>
   <v>       0.15384615       0.13333333       0.22222222 </v>
   <v>       0.19230769       0.13333333       0.22222222 </v>
   <v>       0.23076923       0.13333333       0.22222222 </v>
   <v>       0.26923077       0.13333333       0.22222222 </v>
   <v>       0.30769231       0.13333333       0.22222222 </v>
   <v>       0.34615385       0.13333333       0.22222222 </v>
   <v>       0.38461538       0.13333333       0.22222222 </v>
   <v>       0.42307692       0.13333333       0.22222222 </v>
   <v>       0.46153846       0.13333333       0.22222222 </v>
   <v>       0.50000000       0.13333333       0.22222222 </v>
   <v>      -0.46153846       0.13333333       0.22222222 </v>
   <v>      -0.42307692       0.13333333       0.22222222 </v>
   <v>      -0.38461538       0.13333333       0.22222222 </v>
   <v>      -0.34615385       0.13333333       0.22222222 </v>
   <v>      -0.30769231       0.13333333       0.22222222 </v>
   <v>      -0.26923077       0.13333333       0.22222222 </v>
   <v>      -0.23076923       0.13333333       0.22222222 </v>
   <v>      -0.19230769       0.13333333       0.22222222 </v>
   <v>      -0.15384615       0.13333333       0.22222222 </v>
   <v>      -0.11538462       0.13333333       0.22222222 </v>
   <v>      -0.07692308       0.13333333       0.22222222 </v>
   <v>      -0.03846154       0.13333333       0.22222222 </v>
   <v>       0.00000000       0.20000000       0.22222222 </v>
   <v>       0.03846154       0.20000000       0.22222222 </v>
   <v>       0.07692308       0.20000000       0.22222222 </v>
   <v>       0.11538462       0.20000000       0.22222222 </v>
   <v>       0.15384615       0.20000000       0.22222222 </v>
   <v>       0.19230769       0.20000000       0.22222222 </v>
   <v>       0.23076923       0.20000000       0.22222222 </v>
   <v>       0.26923077       0.20000000       0.22222222 </v>
   <v>       0.30769231       0.20000000       0.22222222 </v>
   <v>       0.34615385       0.20000000       0.22222222 </v>
   <v>       0.38461538       0.20000000       0.22222222 </v>
   <v>       0.42307692       0.20000000       0.22222222 </v>
   <v>       0.46153846       0.20000000       0.22222222 </v>
   <v>       0.50000000       0.20000000       0.22222222 </v>
   <v>      -0.46153846       0.20000000       0.22222222 </v>
   <v>      -0.42307692       0.20000000       0.22222222 </v>
   <v>      -0.38461538       0.20000000       0.22222222 </v>
   <v>      -0.34615385       0.20000000       0.22222222 </v>
   <v>      -0.30769231       0.20000000       0.22222222 </v>
   <v>      -0.26923077       0.20000000       0.22222222 </v>
   <v>      -0.23076923       0.20000000       0.22222222 </v>
   <v>      -0.19230769       0.20000000       0.22222222 </v>
   <v>      -0.15384615       0.20000000       0.22222222 </v>
   <v>      -0.11538462       0.20000000       0.22222222 </v>
   <v>      -0.07692308       0.20000000       0.22222222 </v>
   <v>      -0.03846154       0.20000000       0.22222222 </v>
   <v>       0.00000000       0.26666667       0.22222222 </v>
   <v>       0.03846154       0.26666667       0.22222222 </v>
   <v>       0.07692308       0.26666667       0.22222222 </v>
   <v>       0.11538462       0.26666667       0.22222222 </v>
   <v>       0.15384615       0.26666667       0.22222222 </v>
   <v>       0.19230769       0.26666667       0.22222222 </v>
   <v>       0.23076923       0.26666667       0.22222222 </v>
   <v>       0.26923077       0.26666667       0.22222222 </v>
   <v>       0.30769231       0.26666667       0.22222222 </v>
   <v>       0.34615385       0.26666667       0.22222222 </v>
   <v>       0.38461538       0.26666667       0.22222222 </v>
   <v>       0.42307692       0.26666667       0.22222222 </v>
   <v>       0.46153846       0.26666667       0.22222222 </v>
   <v>       0.50000000       0.26666667       0.22222222 </v>
   <v>      -0.46153846       0.26666667       0.22222222 </v>
   <v>      -0.42307692       0.26666667       0.22222222 </v>
   <v>      -0.38461538       0.26666667       0.22222222 </v>
   <v>      -0.34615385       0.26666667       0.22222222 </v>
   <v>      -0.30769231       0.26666667       0.22222222 </v>
   <v>      -0.26923077       0.26666667       0.22222222 </v>
   <v>      -0.23076923       0.26666667       0.22222222 </v>
   <v>      -0.19230769       0.26666667       0.22222222 </v>
   <v>      -0.15384615       0.26666667       0.22222222 </v>
   <v>      -0.11538462       0.26666667       0.22222222 </v>
   <v>      -0.07692308       0.26666667       0.22222222 </v>
   <v>      -0.03846154       0.26666667       0.22222222 </v>
   <v>       0.00000000       0.33333333       0.22222222 </v>
   <v>       0.03846154       0.33333333       0.22222222 </v>
   <v>       0.07692308       0.33333333       0.22222222 </v>
   <v>       0.11538462       0.33333333       0.22222222 </v>
   <v>       0.15384615       0.33333333       0.22222222 </v>
   <v>       0.19230769       0.33333333       0.22222222 </v>
   <v>       0.23076923       0.33333333       0.22222222 </v>
   <v>       0.26923077       0.33333333       0.22222222 </v>
   <v>       0.30769231       0.33333333       0.22222222 </v>
   <v>       0.34615385       0.33333333       0.22222222 </v>
   <v>       0.38461538       0.33333333       0.22222222 </v>
   <v>       0.42307692       0.33333333       0.22222222 </v>
   <v>       0.46153846       0.33333333       0.22222222 </v>
   <v>       0.50000000       0.33333333       0.22222222 </v>
   <v>      -0.46153846       0.33333333       0.22222222 </v>
   <v>      -0.42307692       0.33333333       0.22222222 </v>
   <v>      -0.38461538       0.33333333       0.22222222 </v>
   <v>      -0.34615385       0.33333333       0.22222222 </v>
   <v>      -0.30769231       0.33333333       0.22222222 </v>
   <v>      -0.26923077       0.33333333       0.22222222 </v>
   <v>      -0.23076923       0.33333333       0.22222222 </v>
   <v>      -0.19230769       0.33333333       0.22222222 </v>
   <v>      -0.15384615       0.33333333       0.22222222 </v>
   <v>      -0.11538462       0.33333333       0.22222222 </v>
   <v>      -0.07692308       0.33333333       0.22222222 </v>
   <v>      -0.03846154       0.33333333       0.22222222 </v>
   <v>       0.00000000       0.40000000       0.22222222 </v>
   <v>       0.03846154       0.40000000       0.22222222 </v>
   <v>       0.07692308       0.40000000       0.22222222 </v>
   <v>       0.11538462       0.40000000       0.22222222 </v>
   <v>       0.15384615       0.40000000       0.22222222 </v>
   <v>       0.19230769       0.40000000       0.22222222 </v>
   <v>       0.23076923       0.40000000       0.22222222 </v>
   <v>       0.26923077       0.40000000       0.22222222 </v>
   <v>       0.30769231       0.40000000       0.22222222 </v>
   <v>       0.34615385       0.40000000       0.22222222 </v>
   <v>       0.38461538       0.40000000       0.22222222 </v>
   <v>       0.42307692       0.40000000       0.22222222 </v>
   <v>       0.46153846       0.40000000       0.22222222 </v>
   <v>       0.50000000       0.40000000       0.22222222 </v>
   <v>      -0.46153846       0.40000000       0.22222222 </v>
   <v>      -0.42307692       0.40000000       0.22222222 </v>
   <v>      -0.38461538       0.40000000       0.22222222 </v>
   <v>      -0.34615385       0.40000000       0.22222222 </v>
   <v>      -0.30769231       0.40000000       0.22222222 </v>
   <v>      -0.26923077       0.40000000       0.22222222 </v>
   <v>      -0.23076923       0.40000000       0.22222222 </v>
   <v>      -0.19230769       0.40000000       0.22222222 </v>
   <v>      -0.15384615       0.40000000       0.22222222 </v>
   <v>      -0.11538462       0.40000000       0.22222222 </v>
   <v>      -0.07692308       0.40000000       0.22222222 </v>
   <v>      -0.03846154       0.40000000       0.22222222 </v>
   <v>       0.00000000       0.46666667       0.22222222 </v>
   <v>       0.03846154       0.46666667       0.22222222 </v>
   <v>       0.07692308       0.46666667       0.22222222 </v>
   <v>       0.11538462       0.46666667       0.22222222 </v>
   <v>       0.15384615       0.46666667       0.22222222 </v>
   <v>       0.19230769       0.46666667       0.22222222 </v>
   <v>       0.23076923       0.46666667       0.22222222 </v>
   <v>       0.26923077       0.46666667       0.22222222 </v>
   <v>       0.30769231       0.46666667       0.22222222 </v>
   <v>       0.34615385       0.46666667       0.22222222 </v>
   <v>       0.38461538       0.46666667       0.22222222 </v>
   <v>       0.42307692       0.46666667       0.22222222 </v>
   <v>       0.46153846       0.46666667       0.22222222 </v>
   <v>       0.50000000       0.46666667       0.22222222 </v>
   <v>      -0.46153846       0.46666667       0.22222222 </v>
   <v>      -0.42307692       0.46666667       0.22222222 </v>
   <v>      -0.38461538       0.46666667       0.22222222 </v>
   <v>      -0.34615385       0.46666667       0.22222222 </v>
   <v>      -0.30769231       0.46666667       0.22222222 </v>
   <v>      -0.26923077       0.46666667       0.22222222 </v>
   <v>      -0.23076923       0.46666667       0.22222222 </v>
   <v>      -0.19230769       0.46666667       0.22222222 </v>
   <v>      -0.15384615       0.46666667       0.22222222 </v>
   <v>      -0.11538462       0.46666667       0.22222222 </v>
   <v>      -0.07692308       0.46666667       0.22222222 </v>
   <v>      -0.03846154       0.46666667       0.22222222 </v>
   <v>       0.00000000      -0.46666667       0.22222222 </v>
   <v>       0.03846154      -0.46666667       0.22222222 </v>
   <v>       0.07692308      -0.46666667       0.22222222 </v>
   <v>       0.11538462      -0.46666667       0.22222222 </v>
   <v>       0.15384615      -0.46666667       0.22222222 </v>
   <v>       0.19230769      -0.46666667       0.22222222 </v>
   <v>       0.23076923      -0.46666667       0.22222222 </v>
   <v>       0.26923077      -0.46666667       0.22222222 </v>
   <v>       0.30769231      -0.46666667       0.22222222 </v>
   <v>       0.34615385      -0.46666667       0.22222222 </v>
   <v>       0.38461538      -0.46666667       0.22222222 </v>
   <v>       0.42307692      -0.46666667       0.22222222 </v>
   <v>       0.46153846      -0.46666667       0.22222222 </v>
   <v>       0.50000000      -0.46666667       0.22222222 </v>
   <v>      -0.46153846      -0.46666667       0.22222222 </v>
   <v>      -0.42307692      -0.46666667       0.22222222 </v>
   <v>      -0.38461538      -0.46666667       0.22222222 </v>
   <v>      -0.34615385      -0.46666667       0.22222222 </v>
   <v>      -0.30769231      -0.46666667       0.22222222 </v>
   <v>      -0.26923077      -0.46666667       0.22222222 </v>
   <v>      -0.23076923      -0.46666667       0.22222222 </v>
   <v>      -0.19230769      -0.46666667       0.22222222 </v>
   <v>      -0.15384615      -0.46666667       0.22222222 </v>
   <v>      -0.11538462      -0.46666667       0.22222222 </v>
   <v>      -0.07692308      -0.46666667       0.22222222 </v>
   <v>      -0.03846154      -0.46666667       0.22222222 </v>
   <v>       0.00000000      -0.40000000       0.22222222 </v>
   <v>       0.03846154      -0.40000000       0.22222222 </v>
   <v>       0.07692308      -0.40000000       0.22222222 </v>
   <v>       0.11538462      -0.40000000       0.22222222 </v>
   <v>       0.15384615      -0.40000000       0.22222222 </v>
   <v>       0.19230769      -0.40000000       0.22222222 </v>
   <v>       0.23076923      -0.40000000       0.22222222 </v>
   <v>       0.26923077      -0.40000000       0.22222222 </v>
   <v>       0.30769231      -0.40000000       0.22222222 </v>
   <v>       0.34615385      -0.40000000       0.22222222 </v>
   <v>       0.38461538      -0.40000000       0.22222222 </v>
   <v>       0.42307692      -0.40000000       0.22222222 </v>
   <v>       0.46153846      -0.40000000       0.22222222 </v>
   <v>       0.50000000      -0.40000000       0.22222222 </v>
   <v>      -0.46153846      -0.40000000       0.22222222 </v>
   <v>      -0.42307692      -0.40000000       0.22222222 </v>
   <v>      -0.38461538      -0.40000000       0.22222222 </v>
   <v>      -0.34615385      -0.40000000       0.22222222 </v>
   <v>      -0.30769231      -0.40000000       0.22222222 </v>
   <v>      -0.26923077      -0.40000000       0.22222222 </v>
   <v>      -0.23076923      -0.40000000       0.22222222 </v>
   <v>      -0.19230769      -0.40000000       0.22222222 </v>
   <v>      -0.15384615      -0.40000000       0.22222222 </v>
   <v>      -0.11538462      -0.40000000       0.22222222 </v>
   <v>      -0.07692308      -0.40000000       0.22222222 </v>
   <v>      -0.03846154      -0.40000000       0.22222222 </v>
   <v>       0.00000000      -0.33333333       0.22222222 </v>
   <v>       0.03846154      -0.33333333       0.22222222 </v>
   <v>       0.07692308      -0.33333333       0.22222222 </v>
   <v>       0.11538462      -0.33333333       0.22222222 </v>
   <v>       0.15384615      -0.33333333       0.22222222 </v>
   <v>       0.19230769      -0.33333333       0.22222222 </v>
   <v>       0.23076923      -0.33333333       0.22222222 </v>
   <v>       0.26923077      -0.33333333       0.22222222 </v>
   <v>       0.30769231      -0.33333333       0.22222222 </v>
   <v>       0.34615385      -0.33333333       0.22222222 </v>
   <v>       0.38461538      -0.33333333       0.22222222 </v>
   <v>       0.42307692      -0.33333333       0.22222222 </v>
   <v>       0.46153846      -0.33333333       0.22222222 </v>
   <v>       0.50000000      -0.33333333       0.22222222 </v>
   <v>      -0.46153846      -0.33333333       0.22222222 </v>
   <v>      -0.42307692      -0.33333333       0.22222222 </v>
   <v>      -0.38461538      -0.33333333       0.22222222 </v>
   <v>      -0.34615385      -0.33333333       0.22222222 </v>
   <v>      -0.30769231      -0.33333333       0.22222222 </v>
   <v>      -0.26923077      -0.33333333       0.22222222 </v>
   <v>      -0.23076923      -0.33333333       0.22222222 </v>
   <v>      -0.19230769      -0.33333333       0.22222222 </v>
   <v>      -0.15384615      -0.33333333       0.22222222 </v>
   <v>      -0.11538462      -0.33333333       0.22222222 </v>
   <v>      -0.07692308      -0.33333333       0.22222222 </v>
   <v>      -0.03846154      -0.33333333       0.22222222 </v>
   <v>       0.00000000      -0.26666667       0.22222222 </v>
   <v>       0.03846154      -0.26666667       0.22222222 </v>
   <v>       0.07692308      -0.26666667       0.22222222 </v>
   <v>       0.11538462      -0.26666667       0.22222222 </v>
   <v>       0.15384615      -0.26666667       0.22222222 </v>
   <v>       0.19230769      -0.26666667       0.22222222 </v>
   <v>       0.23076923      -0.26666667       0.22222222 </v>
   <v>       0.26923077      -0.26666667       0.22222222 </v>
   <v>       0.30769231      -0.26666667       0.22222222 </v>
   <v>       0.34615385      -0.26666667       0.22222222 </v>
   <v>       0.38461538      -0.26666667       0.22222222 </v>
   <v>       0.42307692      -0.26666667       0.22222222 </v>
   <v>       0.46153846      -0.26666667       0.22222222 </v>
   <v>       0.50000000      -0.26666667       0.22222222 </v>
   <v>      -0.46153846      -0.26666667       0.22222222 </v>
   <v>      -0.42307692      -0.26666667       0.22222222 </v>
   <v>      -0.38461538      -0.26666667       0.22222222 </v>
   <v>      -0.34615385      -0.26666667       0.22222222 </v>
   <v>      -0.30769231      -0.26666667       0.22222222 </v>
   <v>      -0.26923077      -0.26666667       0.22222222 </v>
   <v>      -0.23076923      -0.26666667       0.22222222 </v>
   <v>      -0.19230769      -0.26666667       0.22222222 </v>
   <v>      -0.15384615      -0.26666667       0.22222222 </v>
   <v>      -0.11538462      -0.26666667       0.22222222 </v>
   <v>      -0.07692308      -0.26666667       0.22222222 </v>
   <v>      -0.03846154      -0.26666667       0.22222222 </v>
   <v>       0.00000000      -0.20000000       0.22222222 </v>
   <v>       0.03846154      -0.20000000       0.22222222 </v>
   <v>       0.07692308      -0.20000000       0.22222222 </v>
   <v>       0.11538462      -0.20000000       0.22222222 </v>
   <v>       0.15384615      -0.20000000       0.22222222 </v>
   <v>       0.19230769      -0.20000000       0.22222222 </v>
   <v>       0.23076923      -0.20000000       0.22222222 </v>
   <v>       0.26923077      -0.20000000       0.22222222 </v>
   <v>       0.30769231      -0.20000000       0.22222222 </v>
   <v>       0.34615385      -0.20000000       0.22222222 </v>
   <v>       0.38461538      -0.20000000       0.22222222 </v>
   <v>       0.42307692      -0.20000000       0.22222222 </v>
   <v>       0.46153846      -0.20000000       0.22222222 </v>
   <v>       0.50000000      -0.20000000       0.22222222 </v>
   <v>      -0.46153846      -0.20000000       0.22222222 </v>
   <v>      -0.42307692      -0.20000000       0.22222222 </v>
   <v>      -0.38461538      -0.20000000       0.22222222 </v>
   <v>      -0.34615385      -0.20000000       0.22222222 </v>
   <v>      -0.30769231      -0.20000000       0.22222222 </v>
   <v>      -0.26923077      -0.20000000       0.22222222 </v>
   <v>      -0.23076923      -0.20000000       0.22222222 </v>
   <v>      -0.19230769      -0.20000000       0.22222222 </v>
   <v>      -0.15384615      -0.20000000       0.22222222 </v>
   <v>      -0.11538462      -0.20000000       0.22222222 </v>
   <v>      -0.07692308      -0.20000000       0.22222222 </v>
   <v>      -0.03846154      -0.20000000       0.22222222 </v>
   <v>       0.00000000      -0.13333333       0.22222222 </v>
   <v>       0.03846154      -0.13333333       0.22222222 </v>
   <v>       0.07692308      -0.13333333       0.22222222 </v>
   <v>       0.11538462      -0.13333333       0.22222222 </v>
   <v>       0.15384615      -0.13333333       0.22222222 </v>
   <v>       0.19230769      -0.13333333       0.22222222 </v>
   <v>       0.23076923      -0.13333333       0.22222222 </v>
   <v>       0.26923077      -0.13333333       0.22222222 </v>
   <v>       0.30769231      -0.13333333       0.22222222 </v>
   <v>       0.34615385      -0.13333333       0.22222222 </v>
   <v>       0.38461538      -0.13333333       0.22222222 </v>
   <v>       0.42307692      -0.13333333       0.22222222 </v>
   <v>       0.46153846      -0.13333333       0.22222222 </v>
   <v>       0.50000000      -0.13333333       0.22222222 </v>
   <v>      -0.46153846      -0.13333333       0.22222222 </v>
   <v>      -0.42307692      -0.13333333       0.22222222 </v>
   <v>      -0.38461538      -0.13333333       0.22222222 </v>
   <v>      -0.34615385      -0.13333333       0.22222222 </v>
   <v>      -0.30769231      -0.13333333       0.22222222 </v>
   <v>      -0.26923077      -0.13333333       0.22222222 </v>
   <v>      -0.23076923      -0.13333333       0.22222222 </v>
   <v>      -0.19230769      -0.13333333       0.22222222 </v>
   <v>      -0.15384615      -0.13333333       0.22222222 </v>
   <v>      -0.11538462      -0.13333333       0.22222222 </v>
   <v>      -0.07692308      -0.13333333       0.22222222 </v>
   <v>      -0.03846154      -0.13333333       0.22222222 </v>
   <v>       0.00000000      -0.06666667       0.22222222 </v>
   <v>       0.03846154      -0.06666667       0.22222222 </v>
   <v>       0.07692308      -0.06666667       0.22222222 </v>
   <v>       0.11538462      -0.06666667       0.22222222 </v>
   <v>       0.15384615      -0.06666667       0.22222222 </v>
   <v>       0.19230769      -0.06666667       0.22222222 </v>
   <v>       0.23076923      -0.06666667       0.22222222 </v>
   <v>       0.26923077      -0.06666667       0.22222222 </v>
   <v>       0.30769231      -0.06666667       0.22222222 </v>
   <v>       0.34615385      -0.06666667       0.22222222 </v>
   <v>       0.38461538      -0.06666667       0.22222222 </v>
   <v>       0.42307692      -0.06666667       0.22222222 </v>
   <v>       0.46153846      -0.06666667       0.22222222 </v>
   <v>       0.50000000      -0.06666667       0.22222222 </v>
   <v>      -0.46153846      -0.06666667       0.22222222 </v>
   <v>      -0.42307692      -0.06666667       0.22222222 </v>
   <v>      -0.38461538      -0.06666667       0.22222222 </v>
   <v>      -0.34615385      -0.06666667       0.22222222 </v>
   <v>      -0.30769231      -0.06666667       0.22222222 </v>
   <v>      -0.26923077      -0.06666667       0.22222222 </v>
   <v>      -0.23076923      -0.06666667       0.22222222 </v>
   <v>      -0.19230769      -0.06666667       0.22222222 </v>
   <v>      -0.15384615      -0.06666667       0.22222222 </v>
   <v>      -0.11538462      -0.06666667       0.22222222 </v>
   <v>      -0.07692308      -0.06666667       0.22222222 </v>
   <v>      -0.03846154      -0.06666667       0.22222222 </v>
   <v>       0.00000000       0.00000000       0.33333333 </v>
   <v>       0.03846154       0.00000000       0.33333333 </v>
   <v>       0.07692308       0.00000000       0.33333333 </v>
   <v>       0.11538462       0.00000000       0.33333333 </v>
   <v>       0.15384615       0.00000000       0.33333333 </v>
   <v>       0.19230769       0.00000000       0.33333333 </v>
   <v>       0.23076923       0.00000000       0.33333333 </v>
   <v>       0.26923077       0.00000000       0.33333333 </v>
   <v>       0.30769231       0.00000000       0.33333333 </v>
   <v>       0.34615385       0.00000000       0.33333333 </v>
   <v>       0.38461538       0.00000000       0.33333333 </v>
   <v>       0.42307692       0.00000000       0.33333333 </v>
   <v>       0.46153846       0.00000000       0.33333333 </v>
   <v>       0.50000000       0.00000000       0.33333333 </v>
   <v>      -0.46153846       0.00000000       0.33333333 </v>
   <v>      -0.42307692       0.00000000       0.33333333 </v>
   <v>      -0.38461538       0.00000000       0.33333333 </v>
   <v>      -0.34615385       0.00000000       0.33333333 </v>
   <v>      -0.30769231       0.00000000       0.33333333 </v>
   <v>      -0.26923077       0.00000000       0.33333333 </v>
   <v>      -0.23076923       0.00000000       0.33333333 </v>
   <v>      -0.19230769       0.00000000       0.33333333 </v>
   <v>      -0.15384615       0.00000000       0.33333333 </v>
   <v>      -0.11538462       0.00000000       0.33333333 </v>
   <v>      -0.07692308       0.00000000       0.33333333 </v>
   <v>      -0.03846154       0.00000000       0.33333333 </v>
   <v>       0.00000000       0.06666667       0.33333333 </v>
   <v>       0.03846154       0.06666667       0.33333333 </v>
   <v>       0.07692308       0.06666667       0.33333333 </v>
   <v>       0.11538462       0.06666667       0.33333333 </v>
   <v>       0.15384615       0.06666667       0.33333333 </v>
   <v>       0.19230769       0.06666667       0.33333333 </v>
   <v>       0.23076923       0.06666667       0.33333333 </v>
   <v>       0.26923077       0.06666667       0.33333333 </v>
   <v>       0.30769231       0.06666667       0.33333333 </v>
   <v>       0.34615385       0.06666667       0.33333333 </v>
   <v>       0.38461538       0.06666667       0.33333333 </v>
   <v>       0.42307692       0.06666667       0.33333333 </v>
   <v>       0.46153846       0.06666667       0.33333333 </v>
   <v>       0.50000000       0.06666667       0.33333333 </v>
   <v>      -0.46153846       0.06666667       0.33333333 </v>
   <v>      -0.42307692       0.06666667       0.33333333 </v>
   <v>      -0.38461538       0.06666667       0.33333333 </v>
   <v>      -0.34615385       0.06666667       0.33333333 </v>
   <v>      -0.30769231       0.06666667       0.33333333 </v>
   <v>      -0.26923077       0.06666667       0.33333333 </v>
   <v>      -0.23076923       0.06666667       0.33333333 </v>
   <v>      -0.19230769       0.06666667       0.33333333 </v>
   <v>      -0.15384615       0.06666667       0.33333333 </v>
   <v>      -0.11538462       0.06666667       0.33333333 </v>
   <v>      -0.07692308       0.06666667       0.33333333 </v>
   <v>      -0.03846154       0.06666667       0.33333333 </v>
   <v>       0.00000000       0.13333333       0.33333333 </v>
   <v>       0.03846154       0.13333333       0.33333333 </v>
   <v>       0.07692308       0.13333333       0.33333333 </v>
   <v>       0.11538462       0.13333333       0.33333333 </v>
   <v>       0.15384615       0.13333333       0.33333333 </v>
   <v>       0.19230769       0.13333333       0.33333333 </v>
   <v>       0.23076923       0.13333333       0.33333333 </v>
   <v>       0.26923077       0.13333333       0.33333333 </v>
   <v>       0.30769231       0.13333333       0.33333333 </v>
   <v>       0.34615385       0.13333333       0.33333333 </v>
   <v>       0.38461538       0.13333333       0.33333333 </v>
   <v>       0.42307692       0.13333333       0.33333333 </v>
   <v>       0.46153846       0.13333333       0.33333333 </v>
   <v>       0.50000000       0.13333333       0.33333333 </v>
   <v>      -0.46153846       0.13333333       0.33333333 </v>
   <v>      -0.42307692       0.13333333       0.33333333 </v>
   <v>      -0.38461538       0.13333333       0.33333333 </v>
   <v>      -0.34615385       0.13333333       0.33333333 </v>
   <v>      -0.30769231       0.13333333       0.33333333 </v>
   <v>      -0.26923077       0.13333333       0.33333333 </v>
   <v>      -0.23076923       0.13333333       0.33333333 </v>
   <v>      -0.19230769       0.13333333       0.33333333 </v>
   <v>      -0.15384615       0.13333333       0.33333333 </v>
   <v>      -0.11538462       0.13333333       0.33333333 </v>
   <v>      -0.07692308       0.13333333       0.33333333 </v>
   <v>      -0.03846154       0.13333333       0.33333333 </v>
   <v>       0.00000000       0.20000000       0.33333333 </v>
   <v>       0.03846154       0.20000000       0.33333333 </v>
   <v>       0.07692308       0.20000000       0.33333333 </v>
   <v>       0.11538462       0.20000000       0.33333333 </v>
   <v>       0.15384615       0.20000000       0.33333333 </v>
   <v>       0.19230769       0.20000000       0.33333333 </v>
   <v>       0.23076923       0.20000000       0.33333333 </v>
   <v>       0.26923077       0.20000000       0.33333333 </v>
   <v>       0.30769231       0.20000000       0.33333333 </v>
   <v>       0.34615385       0.20000000       0.33333333 </v>
   <v>       0.38461538       0.20000000       0.33333333 </v>
   <v>       0.42307692       0.20000000       0.33333333 </v>
   <v>       0.46153846       0.20000000       0.33333333 </v>
   <v>       0.50000000       0.20000000       0.33333333 </v>
   <v>      -0.46153846       0.20000000       0.33333333 </v>
   <v>      -0.42307692       0.20000000       0.33333333 </v>
   <v>      -0.38461538       0.20000000       0.33333333 </v>
   <v>      -0.34615385       0.20000000       0.33333333 </v>
   <v>      -0.30769231       0.20000000       0.33333333 </v>
   <v>      -0.26923077       0.20000000       0.33333333 </v>
   <v>      -0.23076923       0.20000000       0.33333333 </v>
   <v>      -0.19230769       0.20000000       0.33333333 </v>
   <v>      -0.15384615       0.20000000       0.33333333 </v>
   <v>      -0.11538462       0.20000000       0.33333333 </v>
   <v>      -0.07692308       0.20000000       0.33333333 </v>
   <v>      -0.03846154       0.20000000       0.33333333 </v>
   <v>       0.00000000       0.26666667       0.33333333 </v>
   <v>       0.03846154       0.26666667       0.33333333 </v>
   <v>       0.07692308       0.26666667       0.33333333 </v>
   <v>       0.11538462       0.26666667       0.33333333 </v>
   <v>       0.15384615       0.26666667       0.33333333 </v>
   <v>       0.19230769       0.26666667       0.33333333 </v>
   <v>       0.23076923       0.26666667       0.33333333 </v>
   <v>       0.26923077       0.26666667       0.33333333 </v>
   <v>       0.30769231       0.26666667       0.33333333 </v>
   <v>       0.34615385       0.26666667       0.33333333 </v>
   <v>       0.38461538       0.26666667       0.33333333 </v>
   <v>       0.42307692       0.26666667       0.33333333 </v>
   <v>       0.46153846       0.26666667       0.33333333 </v>
   <v>       0.50000000       0.26666667       0.33333333 </v>
   <v>      -0.46153846       0.26666667       0.33333333 </v>
   <v>      -0.42307692       0.26666667       0.33333333 </v>
   <v>      -0.38461538       0.26666667       0.33333333 </v>
   <v>      -0.34615385       0.26666667       0.33333333 </v>
   <v>      -0.30769231       0.26666667       0.33333333 </v>
   <v>      -0.26923077       0.26666667       0.33333333 </v>
   <v>      -0.23076923       0.26666667       0.33333333 </v>
   <v>      -0.19230769       0.26666667       0.33333333 </v>
   <v>      -0.15384615       0.26666667       0.33333333 </v>
   <v>      -0.11538462       0.26666667       0.33333333 </v>
   <v>      -0.07692308       0.26666667       0.33333333 </v>
   <v>      -0.03846154       0.26666667       0.33333333 </v>
   <v>       0.00000000       0.33333333       0.33333333 </v>
   <v>       0.03846154       0.33333333       0.33333333 </v>
   <v>       0.07692308       0.33333333       0.33333333 </v>
   <v>       0.11538462       0.33333333       0.33333333 </v>
   <v>       0.15384615       0.33333333       0.33333333 </v>
   <v>       0.19230769       0.33333333       0.33333333 </v>
   <v>       0.23076923       0.33333333       0.33333333 </v>
   <v>       0.26923077       0.33333333       0.33333333 </v>
   <v>       0.30769231       0.33333333       0.33333333 </v>
   <v>       0.34615385       0.33333333       0.33333333 </v>
   <v>       0.38461538       0.33333333       0.33333333 </v>
   <v>       0.42307692       0.33333333       0.33333333 </v>
   <v>       0.46153846       0.33333333       0.33333333 </v>
   <v>       0.50000000       0.33333333       0.33333333 </v>
   <v>      -0.46153846       0.33333333       0.33333333 </v>
   <v>      -0.42307692       0.33333333       0.33333333 </v>
   <v>      -0.38461538       0.33333333       0.33333333 </v>
   <v>      -0.34615385       0.33333333       0.33333333 </v>
   <v>      -0.30769231       0.33333333       0.33333333 </v>
   <v>      -0.26923077       0.33333333       0.33333333 </v>
   <v>      -0.23076923       0.33333333       0.33333333 </v>
   <v>      -0.19230769       0.33333333       0.33333333 </v>
   <v>      -0.15384615       0.33333333       0.33333333 </v>
   <v>      -0.11538462       0.33333333       0.33333333 </v>
   <v>      -0.07692308       0.33333333       0.33333333 </v>
   <v>      -0.03846154       0.33333333       0.33333333 </v>
   <v>       0.00000000       0.40000000       0.33333333 </v>
   <v>       0.03846154       0.40000000       0.33333333 </v>
   <v>       0.07692308       0.40000000       0.33333333 </v>
   <v>       0.11538462       0.40000000       0.33333333 </v>
   <v>       0.15384615       0.40000000       0.33333333 </v>
   <v>       0.19230769       0.40000000       0.33333333 </v>
   <v>       0.23076923       0.40000000       0.33333333 </v>
   <v>       0.26923077       0.40000000       0.33333333 </v>
   <v>       0.30769231       0.40000000       0.33333333 </v>
   <v>       0.34615385       0.40000000       0.33333333 </v>
   <v>       0.38461538       0.40000000       0.33333333 </v>
   <v>       0.42307692       0.40000000       0.33333333 </v>
   <v>       0.46153846       0.40000000       0.33333333 </v>
   <v>       0.50000000       0.40000000       0.33333333 </v>
   <v>      -0.46153846       0.40000000       0.33333333 </v>
   <v>      -0.42307692       0.40000000       0.33333333 </v>
   <v>      -0.38461538       0.40000000       0.33333333 </v>
   <v>      -0.34615385       0.40000000       0.33333333 </v>
   <v>      -0.30769231       0.40000000       0.33333333 </v>
   <v>      -0.26923077       0.40000000       0.33333333 </v>
   <v>      -0.23076923       0.40000000       0.33333333 </v>
   <v>      -0.19230769       0.40000000       0.33333333 </v>
   <v>      -0.15384615       0.40000000       0.33333333 </v>
   <v>      -0.11538462       0.40000000       0.33333333 </v>
   <v>      -0.07692308       0.40000000       0.33333333 </v>
   <v>      -0.03846154       0.40000000       0.33333333 </v>
   <v>       0.00000000       0.46666667       0.33333333 </v>
   <v>       0.03846154       0.46666667       0.33333333 </v>
   <v>       0.07692308       0.46666667       0.33333333 </v>
   <v>       0.11538462       0.46666667       0.33333333 </v>
   <v>       0.15384615       0.46666667       0.33333333 </v>
   <v>       0.19230769       0.46666667       0.33333333 </v>
   <v>       0.23076923       0.46666667       0.33333333 </v>
   <v>       0.26923077       0.46666667       0.33333333 </v>
   <v>       0.30769231       0.46666667       0.33333333 </v>
   <v>       0.34615385       0.46666667       0.33333333 </v>
   <v>       0.38461538       0.46666667       0.33333333 </v>
   <v>       0.42307692       0.46666667       0.33333333 </v>
   <v>       0.46153846       0.46666667       0.33333333 </v>
   <v>       0.50000000       0.46666667       0.33333333 </v>
   <v>      -0.46153846       0.46666667       0.33333333 </v>
   <v>      -0.42307692       0.46666667       0.33333333 </v>
   <v>      -0.38461538       0.46666667       0.33333333 </v>
   <v>      -0.34615385       0.46666667       0.33333333 </v>
   <v>      -0.30769231       0.46666667       0.33333333 </v>
   <v>      -0.26923077       0.46666667       0.33333333 </v>
   <v>      -0.23076923       0.46666667       0.33333333 </v>
   <v>      -0.19230769       0.46666667       0.33333333 </v>
   <v>      -0.15384615       0.46666667       0.33333333 </v>
   <v>      -0.11538462       0.46666667       0.33333333 </v>
   <v>      -0.07692308       0.46666667       0.33333333 </v>
   <v>      -0.03846154       0.46666667       0.33333333 </v>
   <v>       0.00000000      -0.46666667       0.33333333 </v>
   <v>       0.03846154      -0.46666667       0.33333333 </v>
   <v>       0.07692308      -0.46666667       0.33333333 </v>
   <v>       0.11538462      -0.46666667       0.33333333 </v>
   <v>       0.15384615      -0.46666667       0.33333333 </v>
   <v>       0.19230769      -0.46666667       0.33333333 </v>
   <v>       0.23076923      -0.46666667       0.33333333 </v>
   <v>       0.26923077      -0.46666667       0.33333333 </v>
   <v>       0.30769231      -0.46666667       0.33333333 </v>
   <v>       0.34615385      -0.46666667       0.33333333 </v>
   <v>       0.38461538      -0.46666667       0.33333333 </v>
   <v>       0.42307692      -0.46666667       0.33333333 </v>
   <v>       0.46153846      -0.46666667       0.33333333 </v>
   <v>       0.50000000      -0.46666667       0.33333333 </v>
   <v>      -0.46153846      -0.46666667       0.33333333 </v>
   <v>      -0.42307692      -0.46666667       0.33333333 </v>
   <v>      -0.38461538      -0.46666667       0.33333333 </v>
   <v>      -0.34615385      -0.46666667       0.33333333 </v>
   <v>      -0.30769231      -0.46666667       0.33333333 </v>
   <v>      -0.26923077      -0.46666667       0.33333333 </v>
   <v>      -0.23076923      -0.46666667       0.33333333 </v>
   <v>      -0.19230769      -0.46666667       0.33333333 </v>
   <v>      -0.15384615      -0.46666667       0.33333333 </v>
   <v>      -0.11538462      -0.46666667       0.33333333 </v>
   <v>      -0.07692308      -0.46666667       0.33333333 </v>
   <v>      -0.03846154      -0.46666667       0.33333333 </v>
   <v>       0.00000000      -0.40000000       0.33333333 </v>
   <v>       0.03846154      -0.40000000       0.33333333 </v>
   <v>       0.07692308      -0.40000000       0.33333333 </v>
   <v>       0.11538462      -0.40000000       0.33333333 </v>
   <v>       0.15384615      -0.40000000       0.33333333 </v>
   <v>       0.19230769      -0.40000000       0.33333333 </v>
   <v>       0.23076923      -0.40000000       0.33333333 </v>
   <v>       0.26923077      -0.40000000       0.33333333 </v>
   <v>       0.30769231      -0.40000000       0.33333333 </v>
   <v>       0.34615385      -0.40000000       0.33333333 </v>
   <v>       0.38461538      -0.40000000       0.33333333 </v>
   <v>       0.42307692      -0.40000000       0.33333333 </v>
   <v>       0.46153846      -0.40000000       0.33333333 </v>
   <v>       0.50000000      -0.40000000       0.33333333 </v>
   <v>      -0.46153846      -0.40000000       0.33333333 </v>
   <v>      -0.42307692      -0.40000000       0.33333333 </v>
   <v>      -0.38461538      -0.40000000       0.33333333 </v>
   <v>      -0.34615385      -0.40000000       0.33333333 </v>
   <v>      -0.30769231      -0.40000000       0.33333333 </v>
   <v>      -0.26923077      -0.40000000       0.33333333 </v>
   <v>      -0.23076923      -0.40000000       0.33333333 </v>
   <v>      -0.19230769      -0.40000000       0.33333333 </v>
   <v>      -0.15384615      -0.40000000       0.33333333 </v>
   <v>      -0.11538462      -0.40000000       0.33333333 </v>
   <v>      -0.07692308      -0.40000000       0.33333333 </v>
   <v>      -0.03846154      -0.40000000       0.33333333 </v>
   <v>       0.00000000      -0.33333333       0.33333333 </v>
   <v>       0.03846154      -0.33333333       0.33333333 </v>
   <v>       0.07692308      -0.33333333       0.33333333 </v>
   <v>       0.11538462      -0.33333333       0.33333333 </v>
   <v>       0.15384615      -0.33333333       0.33333333 </v>
   <v>       0.19230769      -0.33333333       0.33333333 </v>
[...]
       <r>    4.2811    1.0000 </r>
       <r>    4.3533    1.0000 </r>
       <r>    4.4418    1.0000 </r>
       <r>    4.4741    1.0000 </r>
       <r>    4.7256    1.0000 </r>
       <r>    4.7931    1.0000 </r>
       <r>    5.0684    1.0000 </r>
       <r>    5.2438    1.0000 </r>
       <r>    5.3281    1.0000 </r>
       <r>    5.4814    1.0000 </r>
       <r>    5.7465    1.0000 </r>
       <r>    8.0356    0.7298 </r>
       <r>    8.6842   -0.0116 </r>
       <r>    9.0583    0.0000 </r>
       <r>   10.5556    0.0000 </r>
       <r>   12.1125    0.0000 </r>
       <r>   13.7407    0.0000 </r>
       <r>   14.3747    0.0000 </r>
       <r>   14.6413    0.0000 </r>
      </set>
      <set comment="kpoint 1755">
       <r>    0.3212    1.0000 </r>
       <r>    1.5104    1.0000 </r>
       <r>    2.0993    1.0000 </r>
       <r>    2.3392    1.0000 </r>
       <r>    2.3858    1.0000 </r>
       <r>    2.5786    1.0000 </r>
       <r>    2.6626    1.0000 </r>
       <r>    3.0802    1.0000 </r>
       <r>    3.1682    1.0000 </r>
       <r>    3.2142    1.0000 </r>
       <r>    3.2648    1.0000 </r>
       <r>    3.3668    1.0000 </r>
       <r>    3.6557    1.0000 </r>
       <r>    3.7092    1.0000 </r>
       <r>    3.8012    1.0000 </r>
       <r>    3.8168    1.0000 </r>
       <r>    3.8621    1.0000 </r>
       <r>    3.8716    1.0000 </r>
       <r>    4.0188    1.0000 </r>
       <r>    4.1475    1.0000 </r>
       <r>    4.1597    1.0000 </r>
       <r>    4.1950    1.0000 </r>
       <r>    4.3501    1.0000 </r>
       <r>    4.4485    1.0000 </r>
       <r>    4.4789    1.0000 </r>
       <r>    4.6999    1.0000 </r>
       <r>    4.7242    1.0000 </r>
       <r>    5.0072    1.0000 </r>
       <r>    5.1740    1.0000 </r>
       <r>    5.4400    1.0000 </r>
       <r>    5.5852    1.0000 </r>
       <r>    5.7745    1.0000 </r>
       <r>    8.0158    0.7769 </r>
       <r>    8.6690   -0.0134 </r>
       <r>    9.0886    0.0000 </r>
       <r>   10.1449    0.0000 </r>
       <r>   11.7955    0.0000 </r>
       <r>   13.4479    0.0000 </r>
       <r>   14.0741    0.0000 </r>
       <r>   14.3927    0.0000 </r>
      </set>
      <set comment="kpoint 1756">
       <r>    0.2275    1.0000 </r>
       <r>    1.3741    1.0000 </r>
       <r>    2.0403    1.0000 </r>
       <r>    2.3003    1.0000 </r>
       <r>    2.3381    1.0000 </r>
       <r>    2.4983    1.0000 </r>
       <r>    2.6972    1.0000 </r>
       <r>    3.1070    1.0000 </r>
       <r>    3.1915    1.0000 </r>
       <r>    3.2138    1.0000 </r>
       <r>    3.2803    1.0000 </r>
       <r>    3.3930    1.0000 </r>
       <r>    3.6344    1.0000 </r>
       <r>    3.6946    1.0000 </r>
       <r>    3.8105    1.0000 </r>
       <r>    3.8509    1.0000 </r>
       <r>    3.9030    1.0000 </r>
       <r>    3.9827    1.0000 </r>
       <r>    4.0081    1.0000 </r>
       <r>    4.1002    1.0000 </r>
       <r>    4.1707    1.0000 </r>
       <r>    4.1883    1.0000 </r>
       <r>    4.3121    1.0000 </r>
       <r>    4.5157    1.0000 </r>
       <r>    4.5301    1.0000 </r>
       <r>    4.6382    1.0000 </r>
       <r>    4.6654    1.0000 </r>
       <r>    4.9396    1.0000 </r>
       <r>    5.1120    1.0000 </r>
       <r>    5.5143    1.0000 </r>
       <r>    5.6612    1.0000 </r>
       <r>    5.8101    1.0000 </r>
       <r>    8.0734    0.6319 </r>
       <r>    8.7117   -0.0088 </r>
       <r>    9.1687    0.0000 </r>
       <r>    9.8187    0.0000 </r>
       <r>   11.5738    0.0000 </r>
       <r>   13.1223    0.0000 </r>
       <r>   13.8867    0.0000 </r>
       <r>   14.2207    0.0000 </r>
      </set>
     </set>
    </set>
   </array>
  </eigenvalues>
  <separator name="orbital magnetization" >
   <v name="MAGDIPOLOUT">      0.00000000      0.00000000      0.00000000</v>
  </separator>
  <dos>
   <i name="efermi">      8.12078389 </i>
   <total>
    <array>
     <dimension dim="1">gridpoints</dimension>
     <dimension dim="2">spin</dimension>
     <field>energy</field>
     <field>total</field>
     <field>integrated</field>
     <set>
      <set comment="spin 1">
       <r>    -3.1645     0.0000     0.0000 </r>
       <r>    -3.0820     0.0000     0.0000 </r>
       <r>    -2.9995     0.0000     0.0000 </r>
       <r>    -2.9171     0.0000     0.0000 </r>
       <r>    -2.8346     0.0000     0.0000 </r>
       <r>    -2.7521     0.0000     0.0000 </r>
       <r>    -2.6696     0.0000     0.0000 </r>
       <r>    -2.5871     0.0000     0.0000 </r>
       <r>    -2.5046     0.0000     0.0000 </r>
       <r>    -2.4221     0.0000     0.0000 </r>
       <r>    -2.3396     0.0000     0.0000 </r>
       <r>    -2.2571     0.0000     0.0000 </r>
       <r>    -2.1746     0.0000     0.0000 </r>
       <r>    -2.0921     0.0000     0.0000 </r>
       <r>    -2.0096     0.0000     0.0000 </r>
       <r>    -1.9271     0.0000     0.0000 </r>
       <r>    -1.8446     0.0000     0.0000 </r>
       <r>    -1.7622     0.0000     0.0000 </r>
       <r>    -1.6797     0.0000     0.0000 </r>
       <r>    -1.5972     0.0000     0.0000 </r>
       <r>    -1.5147     0.0000     0.0000 </r>
       <r>    -1.4322     0.0000     0.0000 </r>
       <r>    -1.3497     0.0000     0.0000 </r>
       <r>    -1.2672     0.0000     0.0000 </r>
       <r>    -1.1847     0.0000     0.0000 </r>
       <r>    -1.1022     0.0000     0.0000 </r>
       <r>    -1.0197     0.0000     0.0000 </r>
       <r>    -0.9372    -0.0001     0.0000 </r>
       <r>    -0.8547    -0.0002     0.0000 </r>
       <r>    -0.7722    -0.0007    -0.0001 </r>
       <r>    -0.6898    -0.0020    -0.0003 </r>
       <r>    -0.6073    -0.0044    -0.0006 </r>
       <r>    -0.5248    -0.0080    -0.0013 </r>
       <r>    -0.4423    -0.0108    -0.0022 </r>
       <r>    -0.3598    -0.0081    -0.0028 </r>
       <r>    -0.2773     0.0075    -0.0022 </r>
       <r>    -0.1948     0.0433     0.0014 </r>
       <r>    -0.1123     0.1028     0.0098 </r>
       <r>    -0.0298     0.1828     0.0249 </r>
       <r>     0.0527     0.2739     0.0475 </r>
       <r>     0.1352     0.3637     0.0775 </r>
       <r>     0.2177     0.4414     0.1139 </r>
       <r>     0.3002     0.5000     0.1552 </r>
       <r>     0.3827     0.5386     0.1996 </r>
       <r>     0.4651     0.5613     0.2459 </r>
       <r>     0.5476     0.5747     0.2933 </r>
       <r>     0.6301     0.5850     0.3416 </r>
       <r>     0.7126     0.5964     0.3908 </r>
       <r>     0.7951     0.6113     0.4412 </r>
       <r>     0.8776     0.6310     0.4932 </r>
       <r>     0.9601     0.6555     0.5473 </r>
       <r>     1.0426     0.6844     0.6038 </r>
       <r>     1.1251     0.7181     0.6630 </r>
       <r>     1.2076     0.7606     0.7258 </r>
       <r>     1.2901     0.8239     0.7937 </r>
       <r>     1.3726     0.9294     0.8704 </r>
       <r>     1.4551     1.1059     0.9616 </r>
       <r>     1.5376     1.3853     1.0759 </r>
       <r>     1.6200     1.8041     1.2247 </r>
       <r>     1.7025     2.4107     1.4236 </r>
       <r>     1.7850     3.2650     1.6929 </r>
       <r>     1.8675     4.4179     2.0574 </r>
       <r>     1.9500     5.8864     2.5429 </r>
       <r>     2.0325     7.6479     3.1738 </r>
       <r>     2.1150     9.6510     3.9700 </r>
       <r>     2.1975    11.8016     4.9435 </r>
       <r>     2.2800    13.9116     6.0911 </r>
       <r>     2.3625    15.6788     7.3845 </r>
       <r>     2.4450    16.7700     8.7679 </r>
       <r>     2.5275    16.9818    10.1688 </r>
       <r>     2.6100    16.3625    11.5186 </r>
       <r>     2.6925    15.2138    12.7736 </r>
       <r>     2.7749    13.9870    13.9274 </r>
       <r>     2.8574    13.1247    15.0101 </r>
       <r>     2.9399    12.8949    16.0739 </r>
       <r>     3.0224    13.2813    17.1695 </r>
       <r>     3.1049    14.0107    18.3253 </r>
       <r>     3.1874    14.7352    19.5408 </r>
       <r>     3.2699    15.2699    20.8005 </r>
       <r>     3.3524    15.7274    22.0978 </r>
       <r>     3.4349    16.4398    23.4540 </r>
       <r>     3.5174    17.6900    24.9133 </r>
       <r>     3.5999    19.4090    26.5144 </r>
       <r>     3.6824    21.0728    28.2528 </r>
       <r>     3.7649    21.9458    30.0631 </r>
       <r>     3.8474    21.5550    31.8413 </r>
       <r>     3.9298    20.0406    33.4945 </r>
       <r>     4.0123    18.0853    34.9864 </r>
       <r>     4.0948    16.4832    36.3461 </r>
       <r>     4.1773    15.7000    37.6412 </r>
       <r>     4.2598    15.7261    38.9385 </r>
       <r>     4.3423    16.2274    40.2772 </r>
       <r>     4.4248    16.7967    41.6628 </r>
       <r>     4.5073    17.1284    43.0757 </r>
       <r>     4.5898    17.0737    44.4842 </r>
       <r>     4.6723    16.6300    45.8561 </r>
       <r>     4.7548    15.9119    47.1687 </r>
       <r>     4.8373    15.1093    48.4151 </r>
       <r>     4.9198    14.4260    49.6051 </r>
       <r>     5.0022    14.0120    50.7610 </r>
       <r>     5.0847    13.9223    51.9095 </r>
       <r>     5.1672    14.1127    53.0737 </r>
       <r>     5.2497    14.4648    54.2669 </r>
       <r>     5.3322    14.8122    55.4888 </r>
       <r>     5.4147    14.9565    56.7226 </r>
       <r>     5.4972    14.6872    57.9342 </r>
       <r>     5.5797    13.8339    59.0754 </r>
       <r>     5.6622    12.3487    60.0941 </r>
       <r>     5.7447    10.3654    60.9492 </r>
       <r>     5.8272     8.1754    61.6236 </r>
       <r>     5.9097     6.1131    62.1279 </r>
       <r>     5.9922     4.4185    62.4924 </r>
       <r>     6.0747     3.1712    62.7540 </r>
       <r>     6.1571     2.3264    62.9459 </r>
       <r>     6.2396     1.7993    63.0943 </r>
       <r>     6.3221     1.5163    63.2194 </r>
       <r>     6.4046     1.4139    63.3360 </r>
       <r>     6.4871     1.4226    63.4534 </r>
       <r>     6.5696     1.4702    63.5747 </r>
       <r>     6.6521     1.5029    63.6987 </r>
       <r>     6.7346     1.5018    63.8225 </r>
       <r>     6.8171     1.4806    63.9447 </r>
       <r>     6.8996     1.4674    64.0657 </r>
       <r>     6.9821     1.4811    64.1879 </r>
       <r>     7.0646     1.5183    64.3132 </r>
       <r>     7.1471     1.5567    64.4416 </r>
       <r>     7.2296     1.5725    64.5713 </r>
       <r>     7.3120     1.5590    64.6999 </r>
       <r>     7.3945     1.5316    64.8262 </r>
       <r>     7.4770     1.5161    64.9513 </r>
       <r>     7.5595     1.5307    65.0776 </r>
       <r>     7.6420     1.5734    65.2074 </r>
       <r>     7.7245     1.6262    65.3415 </r>
       <r>     7.8070     1.6683    65.4792 </r>
       <r>     7.8895     1.6868    65.6183 </r>
       <r>     7.9720     1.6790    65.7568 </r>
       <r>     8.0545     1.6499    65.8929 </r>
       <r>     8.1370     1.6115    66.0259 </r>
       <r>     8.2195     1.5831    66.1564 </r>
       <r>     8.3020     1.5836    66.2871 </r>
       <r>     8.3845     1.6173    66.4205 </r>
       <r>     8.4669     1.6678    66.5581 </r>
       <r>     8.5494     1.7067    66.6989 </r>
       <r>     8.6319     1.7109    66.8400 </r>
       <r>     8.7144     1.6757    66.9782 </r>
       <r>     8.7969     1.6157    67.1115 </r>
       <r>     8.8794     1.5571    67.2400 </r>
       <r>     8.9619     1.5261    67.3659 </r>
       <r>     9.0444     1.5356    67.4925 </r>
       <r>     9.1269     1.5785    67.6228 </r>
       <r>     9.2094     1.6318    67.7574 </r>
       <r>     9.2919     1.6689    67.8950 </r>
       <r>     9.3744     1.6731    68.0331 </r>
       <r>     9.4569     1.6451    68.1688 </r>
       <r>     9.5393     1.6021    68.3009 </r>
       <r>     9.6218     1.5668    68.4302 </r>
       <r>     9.7043     1.5527    68.5583 </r>
       <r>     9.7868     1.5574    68.6867 </r>
       <r>     9.8693     1.5671    68.8160 </r>
       <r>     9.9518     1.5699    68.9455 </r>
       <r>    10.0343     1.5629    69.0744 </r>
       <r>    10.1168     1.5503    69.2023 </r>
       <r>    10.1993     1.5359    69.3290 </r>
       <r>    10.2818     1.5186    69.4543 </r>
       <r>    10.3643     1.4942    69.5776 </r>
       <r>    10.4468     1.4598    69.6980 </r>
       <r>    10.5293     1.4164    69.8148 </r>
       <r>    10.6118     1.3702    69.9279 </r>
       <r>    10.6942     1.3304    70.0376 </r>
       <r>    10.7767     1.3067    70.1454 </r>
       <r>    10.8592     1.3042    70.2530 </r>
       <r>    10.9417     1.3230    70.3621 </r>
       <r>    11.0242     1.3630    70.4746 </r>
       <r>    11.1067     1.4280    70.5924 </r>
       <r>    11.1892     1.5244    70.7181 </r>
       <r>    11.2717     1.6521    70.8544 </r>
       <r>    11.3542     1.7963    71.0026 </r>
       <r>    11.4367     1.9287    71.1617 </r>
       <r>    11.5192     2.0206    71.3284 </r>
       <r>    11.6017     2.0591    71.4982 </r>
       <r>    11.6842     2.0528    71.6676 </r>
       <r>    11.7667     2.0226    71.8344 </r>
       <r>    11.8491     1.9868    71.9983 </r>
       <r>    11.9316     1.9549    72.1596 </r>
       <r>    12.0141     1.9300    72.3188 </r>
       <r>    12.0966     1.9124    72.4766 </r>
       <r>    12.1791     1.8995    72.6333 </r>
       <r>    12.2616     1.8864    72.7889 </r>
       <r>    12.3441     1.8701    72.9431 </r>
       <r>    12.4266     1.8537    73.0961 </r>
       <r>    12.5091     1.8427    73.2481 </r>
       <r>    12.5916     1.8370    73.3996 </r>
       <r>    12.6741     1.8309    73.5506 </r>
       <r>    12.7566     1.8214    73.7009 </r>
       <r>    12.8391     1.8145    73.8506 </r>
       <r>    12.9216     1.8185    74.0006 </r>
       <r>    13.0040     1.8322    74.1517 </r>
       <r>    13.0865     1.8439    74.3038 </r>
       <r>    13.1690     1.8420    74.4558 </r>
       <r>    13.2515     1.8258    74.6064 </r>
       <r>    13.3340     1.8035    74.7552 </r>
       <r>    13.4165     1.7823    74.9022 </r>
       <r>    13.4990     1.7651    75.0478 </r>
       <r>    13.5815     1.7552    75.1926 </r>
       <r>    13.6640     1.7609    75.3379 </r>
       <r>    13.7465     1.7931    75.4858 </r>
       <r>    13.8290     1.8547    75.6388 </r>
       <r>    13.9115     1.9338    75.7983 </r>
       <r>    13.9940     2.0058    75.9638 </r>
       <r>    14.0764     2.0460    76.1326 </r>
       <r>    14.1589     2.0420    76.3010 </r>
       <r>    14.2414     1.9992    76.4659 </r>
       <r>    14.3239     1.9356    76.6256 </r>
       <r>    14.4064     1.8722    76.7801 </r>
       <r>    14.4889     1.8237    76.9305 </r>
       <r>    14.5714     1.7945    77.0785 </r>
       <r>    14.6539     1.7799    77.2254 </r>
       <r>    14.7364     1.7699    77.3714 </r>
       <r>    14.8189     1.7531    77.5160 </r>
       <r>    14.9014     1.7215    77.6580 </r>
       <r>    14.9839     1.6724    77.7959 </r>
       <r>    15.0664     1.6080    77.9286 </r>
       <r>    15.1489     1.5339    78.0551 </r>
       <r>    15.2313     1.4560    78.1752 </r>
       <r>    15.3138     1.3797    78.2891 </r>
       <r>    15.3963     1.3082    78.3970 </r>
       <r>    15.4788     1.2421    78.4994 </r>
       <r>    15.5613     1.1789    78.5967 </r>
       <r>    15.6438     1.1149    78.6887 </r>
       <r>    15.7263     1.0482    78.7751 </r>
       <r>    15.8088     0.9803    78.8560 </r>
       <r>    15.8913     0.9153    78.9315 </r>
       <r>    15.9738     0.8571    79.0022 </r>
       <r>    16.0563     0.8081    79.0689 </r>
       <r>    16.1388     0.7685    79.1323 </r>
       <r>    16.2213     0.7375    79.1931 </r>
       <r>    16.3038     0.7120    79.2518 </r>
       <r>    16.3862     0.6872    79.3085 </r>
       <r>    16.4687     0.6582    79.3628 </r>
       <r>    16.5512     0.6238    79.4143 </r>
       <r>    16.6337     0.5877    79.4628 </r>
       <r>    16.7162     0.5569    79.5087 </r>
       <r>    16.7987     0.5358    79.5529 </r>
       <r>    16.8812     0.5226    79.5960 </r>
       <r>    16.9637     0.5108    79.6382 </r>
       <r>    17.0462     0.4934    79.6789 </r>
       <r>    17.1287     0.4664    79.7173 </r>
       <r>    17.2112     0.4282    79.7527 </r>
       <r>    17.2937     0.3798    79.7840 </r>
       <r>    17.3762     0.3261    79.8109 </r>
       <r>    17.4587     0.2764    79.8337 </r>
       <r>    17.5411     0.2404    79.8535 </r>
       <r>    17.6236     0.2224    79.8719 </r>
       <r>    17.7061     0.2185    79.8899 </r>
       <r>    17.7886     0.2190    79.9079 </r>
       <r>    17.8711     0.2143    79.9256 </r>
       <r>    17.9536     0.1994    79.9421 </r>
       <r>    18.0361     0.1753    79.9565 </r>
       <r>    18.1186     0.1466    79.9686 </r>
       <r>    18.2011     0.1185    79.9784 </r>
       <r>    18.2836     0.0931    79.9861 </r>
       <r>    18.3661     0.0705    79.9919 </r>
       <r>    18.4486     0.0498    79.9960 </r>
       <r>    18.5311     0.0314    79.9986 </r>
       <r>    18.6135     0.0166    80.0000 </r>
       <r>    18.6960     0.0063    80.0005 </r>
       <r>    18.7785     0.0006    80.0005 </r>
       <r>    18.8610    -0.0017    80.0004 </r>
       <r>    18.9435    -0.0019    80.0002 </r>
       <r>    19.0260    -0.0014    80.0001 </r>
       <r>    19.1085    -0.0008    80.0000 </r>
       <r>    19.1910    -0.0004    80.0000 </r>
       <r>    19.2735    -0.0001    80.0000 </r>
       <r>    19.3560     0.0000    80.0000 </r>
       <r>    19.4385     0.0000    80.0000 </r>
       <r>    19.5210     0.0000    80.0000 </r>
       <r>    19.6035     0.0000    80.0000 </r>
       <r>    19.6860     0.0000    80.0000 </r>
       <r>    19.7684     0.0000    80.0000 </r>
       <r>    19.8509     0.0000    80.0000 </r>
       <r>    19.9334     0.0000    80.0000 </r>
       <r>    20.0159     0.0000    80.0000 </r>
       <r>    20.0984     0.0000    80.0000 </r>
       <r>    20.1809     0.0000    80.0000 </r>
       <r>    20.2634     0.0000    80.0000 </r>
       <r>    20.3459     0.0000    80.0000 </r>
       <r>    20.4284     0.0000    80.0000 </r>
       <r>    20.5109     0.0000    80.0000 </r>
       <r>    20.5934     0.0000    80.0000 </r>
       <r>    20.6759     0.0000    80.0000 </r>
       <r>    20.7584     0.0000    80.0000 </r>
       <r>    20.8409     0.0000    80.0000 </r>
       <r>    20.9233     0.0000    80.0000 </r>
       <r>    21.0058     0.0000    80.0000 </r>
       <r>    21.0883     0.0000    80.0000 </r>
       <r>    21.1708     0.0000    80.0000 </r>
       <r>    21.2533     0.0000    80.0000 </r>
       <r>    21.3358     0.0000    80.0000 </r>
       <r>    21.4183     0.0000    80.0000 </r>
       <r>    21.5008     0.0000    80.0000 </r>
       <r>    21.5833     0.0000    80.0000 </r>
      </set>
     </set>
    </array>
   </total>
  </dos>
 </calculation>
 <structure name="finalpos" >
  <crystal>
   <varray name="basis" >
    <v>       0.00000000      -2.06239222      -2.06239222 </v>
    <v>       2.08331650       4.14393253      -2.08154031 </v>
    <v>       6.24908321      -2.08125473       4.14364695 </v>
   </varray>
   <i name="volume">    106.98028163 </i>
   <varray name="rec_basis" >
    <v>       0.12001069      -0.20228257      -0.28259125 </v>
    <v>       0.12000519       0.12047137      -0.12047137 </v>
    <v>       0.12001620      -0.04016269       0.04016269 </v>
   </varray>
  </crystal>
  <varray name="positions" >
   <v>       0.66571735       0.99744514       0.33398955 </v>
   <v>       0.49934476       0.49860172       0.50008781 </v>
   <v>       0.33398857       0.00139828       0.66657886 </v>
   <v>       0.16761599       0.50255486       0.83267712 </v>
   <v>       0.99942085       0.00057650       0.99826520 </v>
   <v>       0.83391249       0.49942350       0.16840147 </v>
  </varray>
 </structure>
</modeling>
