<?xml version="1.0" encoding="ISO-8859-1"?>
<modeling>
 <generator>
  <i name="program" type="string">vasp </i>
  <i name="version" type="string">5.3.5  </i>
  <i name="subversion" type="string">31Mar14 (build Jun 20 2014 13:15:13) complex                          parallel </i>
  <i name="platform" type="string">LinuxIFC </i>
  <i name="date" type="string">2025 12 12 </i>
  <i name="time" type="string">13:50:55 </i>
 </generator>
 <incar>
  <i type="string" name="PREC">accurate</i>
  <i type="int" name="IALGO">    38</i>
  <i type="logical" name="ADDGRID"> T  </i>
  <i type="int" name="ISPIN">     2</i>
  <i type="int" name="NELM">   100</i>
  <i type="int" name="NELMIN">     4</i>
  <i name="EDIFF">      0.00000100</i>
  <i name="ENCUT">    500.00000000</i>
  <i type="logical" name="LREAL"> F  </i>
  <i type="int" name="ISMEAR">     0</i>
  <i name="SIGMA">      0.05000000</i>
  <i type="logical" name="LWAVE"> F  </i>
  <i type="logical" name="LCHARG"> F  </i>
  <i type="int" name="NELM">   100</i>
  <i type="logical" name="LDAU"> T  </i>
  <v name="LDAUU">      0.00000000      4.00000000      0.00000000</v>
  <v name="LDAUJ">      0.00000000      0.00000000      0.00000000</v>
 </incar>
 <kpoints>
  <generation param="Auto">
   <i name="subdivisionlength">     20.00000000 </i>
   <v type="int" name="divisions">       3        3        3 </v>
   <v name="usershift">      0.00000000       0.00000000       0.00000000 </v>
   <v name="genvec1">      0.33333333       0.00000000       0.00000000 </v>
   <v name="genvec2">      0.00000000       0.33333333       0.00000000 </v>
   <v name="genvec3">      0.00000000       0.00000000       0.33333333 </v>
   <v name="shift">      0.00000000       0.00000000       0.00000000 </v>
  </generation>
  <varray name="kpointlist" >
   <v>       0.00000000       0.00000000       0.00000000 </v>
   <v>       0.33333333       0.00000000       0.00000000 </v>
   <v>       0.33333333       0.33333333       0.00000000 </v>
   <v>       0.00000000       0.00000000       0.33333333 </v>
   <v>       0.33333333       0.00000000       0.33333333 </v>
   <v>       0.33333333       0.33333333       0.33333333 </v>
  </varray>
  <varray name="weights" >
   <v>       0.03703704 </v>
   <v>       0.14814815 </v>
   <v>       0.14814815 </v>
   <v>       0.07407407 </v>
   <v>       0.29629630 </v>
   <v>       0.29629630 </v>
  </varray>
 </kpoints>
 <parameters>
  <separator name="general" >
   <i type="string" name="SYSTEM">unknown system</i>
   <i type="logical" name="LCOMPAT"> F  </i>
  </separator>
  <separator name="electronic" >
   <i type="string" name="PREC">accura</i>
   <i name="ENMAX">    500.00000000</i>
   <i name="ENAUG">    586.98000000</i>
   <i name="EDIFF">      0.00000100</i>
   <i type="int" name="IALGO">    38</i>
   <i type="int" name="IWAVPR">    10</i>
   <i type="int" name="NBANDS">   184</i>
   <i name="NELECT">    276.00000000</i>
   <i type="int" name="TURBO">     0</i>
   <i type="int" name="IRESTART">     0</i>
   <i type="int" name="NREBOOT">     0</i>
   <i type="int" name="NMIN">     0</i>
   <i name="EREF">      0.00000000</i>
   <separator name="electronic smearing" >
    <i type="int" name="ISMEAR">     0</i>
    <i name="SIGMA">      0.05000000</i>
    <i name="KSPACING">      0.50000000</i>
    <i type="logical" name="KGAMMA"> T  </i>
   </separator>
   <separator name="electronic projectors" >
    <i type="logical" name="LREAL"> F  </i>
    <v name="ROPT">      0.00000000      0.00000000      0.00000000</v>
    <i type="int" name="LMAXPAW">  -100</i>
    <i type="int" name="LMAXMIX">     2</i>
    <i type="logical" name="NLSPLINE"> F  </i>
   </separator>
   <separator name="electronic startup" >
    <i type="int" name="ISTART">     0</i>
    <i type="int" name="ICHARG">     2</i>
    <i type="int" name="INIWAV">     1</i>
   </separator>
   <separator name="electronic spin" >
    <i type="int" name="ISPIN">     2</i>
    <i type="logical" name="LNONCOLLINEAR"> F  </i>
    <v name="MAGMOM">      1.00000000      1.00000000      1.00000000      1.00000000      1.00000000      1.00000000      1.00000000      1.00000000      1.00000000      1.00000000      1.00000000      1.00000000      1.00000000      1.00000000      1.00000000      1.00000000      1.00000000      1.00000000      1.00000000      1.00000000
      1.00000000      1.00000000      1.00000000      1.00000000      1.00000000      1.00000000      1.00000000      1.00000000      1.00000000      1.00000000      1.00000000      1.00000000      1.00000000      1.00000000</v>
    <i name="NUPDOWN">     -1.00000000</i>
    <i type="logical" name="LSORBIT"> F  </i>
    <v name="SAXIS">      0.00000000      0.00000000      1.00000000</v>
    <i type="logical" name="LSPIRAL"> F  </i>
    <v name="QSPIRAL">      0.00000000      0.00000000      0.00000000</v>
    <i type="logical" name="LZEROZ"> F  </i>
   </separator>
   <separator name="electronic exchange-correlation" >
    <i type="logical" name="LASPH"> F  </i>
    <i type="logical" name="LMETAGGA"> F  </i>
   </separator>
   <separator name="electronic convergence" >
    <i type="int" name="NELM">   100</i>
    <i type="int" name="NELMDL">    -5</i>
    <i type="int" name="NELMIN">     4</i>
    <i name="ENINI">    500.00000000</i>
    <separator name="electronic convergence detail" >
     <i type="logical" name="LDIAG"> T  </i>
     <i type="logical" name="LSUBROT"> F  </i>
     <i name="WEIMIN">      0.00000000</i>
     <i name="EBREAK">      0.00000000</i>
     <i name="DEPER">      0.30000000</i>
     <i type="int" name="NRMM">     4</i>
     <i name="TIME">      0.40000000</i>
    </separator>
   </separator>
   <separator name="electronic mixer" >
    <i name="AMIX">      0.40000000</i>
    <i name="BMIX">      1.00000000</i>
    <i name="AMIN">      0.10000000</i>
    <i name="AMIX_MAG">      1.60000000</i>
    <i name="BMIX_MAG">      1.00000000</i>
    <separator name="electronic mixer details" >
     <i type="int" name="IMIX">     4</i>
     <i type="int" name="MAXMIX">   -45</i>
     <i name="WC">    100.00000000</i>
     <i type="int" name="INIMIX">     1</i>
     <i type="int" name="MIXPRE">     1</i>
     <i type="int" name="MREMOVE">     5</i>
    </separator>
   </separator>
   <separator name="electronic dipolcorrection" >
    <i type="logical" name="LDIPOL"> F  </i>
    <i type="logical" name="LMONO"> F  </i>
    <i type="int" name="IDIPOL">     0</i>
    <i name="EPSILON">      1.00000000</i>
    <v name="DIPOL">   -100.00000000   -100.00000000   -100.00000000</v>
    <i name="EFIELD">      0.00000000</i>
   </separator>
  </separator>
  <separator name="grids" >
   <i type="int" name="NGX">    60</i>
   <i type="int" name="NGY">    60</i>
   <i type="int" name="NGZ">    60</i>
   <i type="int" name="NGXF">   120</i>
   <i type="int" name="NGYF">   120</i>
   <i type="int" name="NGZF">   120</i>
   <i type="logical" name="ADDGRID"> T  </i>
  </separator>
  <separator name="ionic" >
   <i type="int" name="NSW">     0</i>
   <i type="int" name="IBRION">    -1</i>
   <i type="int" name="ISIF">     2</i>
   <i name="PSTRESS">      0.00000000</i>
   <i name="EDIFFG">      0.00001000</i>
   <i type="int" name="NFREE">     0</i>
   <i name="POTIM">      0.50000000</i>
   <i name="SMASS">     -3.00000000</i>
   <i name="SCALEE">      1.00000000</i>
  </separator>
  <separator name="ionic md" >
   <i name="TEBEG">      0.00010000</i>
   <i name="TEEND">      0.00010000</i>
   <i type="int" name="NBLOCK">     1</i>
   <i type="int" name="KBLOCK">     1</i>
   <i type="int" name="NPACO">   256</i>
   <i name="APACO">     16.00000000</i>
  </separator>
  <separator name="symmetry" >
   <i type="int" name="ISYM">     2</i>
   <i name="SYMPREC">      0.00001000</i>
  </separator>
  <separator name="dos" >
   <i type="logical" name="LORBIT"> F  </i>
   <v name="RWIGS">     -1.00000000     -1.00000000     -1.00000000</v>
   <i type="int" name="NEDOS">   301</i>
   <i name="EMIN">     10.00000000</i>
   <i name="EMAX">    -10.00000000</i>
   <i name="EFERMI">      0.00000000</i>
  </separator>
  <separator name="writing" >
   <i type="int" name="NWRITE">     2</i>
   <i type="logical" name="LWAVE"> F  </i>
   <i type="logical" name="LCHARG"> F  </i>
   <i type="logical" name="LPARD"> F  </i>
   <i type="logical" name="LVTOT"> F  </i>
   <i type="logical" name="LVHAR"> F  </i>
   <i type="logical" name="LELF"> F  </i>
   <i type="logical" name="LOPTICS"> F  </i>
   <v name="STM">      0.00000000      0.00000000      0.00000000      0.00000000      0.00000000      0.00000000      0.00000000</v>
  </separator>
  <separator name="performance" >
   <i type="int" name="NPAR">     4</i>
   <i type="int" name="NSIM">     4</i>
   <i type="int" name="NBLK">    -1</i>
   <i type="logical" name="LPLANE"> T  </i>
   <i type="logical" name="LSCALAPACK"> T  </i>
   <i type="logical" name="LSCAAWARE"> F  </i>
   <i type="logical" name="LSCALU"> F  </i>
   <i type="logical" name="LASYNC"> F  </i>
   <i type="logical" name="LORBITALREAL"> F  </i>
  </separator>
  <separator name="miscellaneous" >
   <i type="int" name="IDIOT">     3</i>
   <i type="logical" name="LMUSIC"> F  </i>
   <v name="POMASS">     87.62000000     63.54600000     16.00000000</v>
   <v name="DARWINR">      0.00000000      0.00000000      0.00000000</v>
   <v name="DARWINV">      1.00000000      1.00000000      1.00000000</v>
   <i type="logical" name="LCORR"> T  </i>
  </separator>
  <i type="logical" name="GGA_COMPAT"> T  </i>
  <i type="logical" name="LBERRY"> F  </i>
  <i type="int" name="ICORELEVEL">     0</i>
  <i type="logical" name="LDAU"> T  </i>
  <v type="int" name="LDAUTYPE">     2</v>
  <v type="int" name="LDAUL">     2</v>
  <v name="LDAUU">      0.00000000</v>
  <v name="LDAUJ">      0.00000000</v>
  <i type="int" name="LDAUPRINT">     0</i>
  <i type="int" name="I_CONSTRAINED_M">     0</i>
  <separator name="electronic exchange-correlation" >
   <i type="string" name="GGA">--</i>
   <i type="int" name="VOSKOWN">     0</i>
   <i type="logical" name="LHFCALC"> F  </i>
   <i type="string" name="PRECFOCK"></i>
   <i type="logical" name="LSYMGRAD"> F  </i>
   <i type="logical" name="LHFONE"> F  </i>
   <i type="logical" name="LRHFCALC"> F  </i>
   <i type="logical" name="LTHOMAS"> F  </i>
   <i type="logical" name="LMODELHF"> F  </i>
   <i name="ENCUT4O">     -1.00000000</i>
   <i type="int" name="EXXOEP">     0</i>
   <i type="int" name="FOURORBIT">     0</i>
   <i name="AEXX">      0.00000000</i>
   <i name="HFALPHA">      0.00000000</i>
   <i name="MCALPHA">      0.00000000</i>
   <i name="ALDAX">      1.00000000</i>
   <i name="AGGAX">      1.00000000</i>
   <i name="ALDAC">      1.00000000</i>
   <i name="AGGAC">      1.00000000</i>
   <i type="int" name="NKREDX">     1</i>
   <i type="int" name="NKREDY">     1</i>
   <i type="int" name="NKREDZ">     1</i>
   <i type="logical" name="SHIFTRED"> F  </i>
   <i type="logical" name="ODDONLY"> F  </i>
   <i type="logical" name="EVENONLY"> F  </i>
   <i type="int" name="LMAXFOCK">     0</i>
   <i type="int" name="NMAXFOCKAE">     0</i>
   <i type="logical" name="LFOCKAEDFT"> F  </i>
   <i name="HFSCREEN">      0.00000000</i>
   <i name="HFSCREENC">      0.00000000</i>
   <i type="int" name="NBANDSGWLOW">     0</i>
  </separator>
  <separator name="vdW DFT" >
   <i type="logical" name="LUSE_VDW"> F  </i>
   <i name="Zab_VDW">     -0.84910000</i>
   <i name="PARAM1">      0.12340000</i>
   <i name="PARAM2">      1.00000000</i>
   <i name="PARAM3">      0.00000000</i>
  </separator>
  <separator name="model GW" >
   <i type="int" name="MODEL_GW">     0</i>
   <i name="MODEL_EPS0">      9.03529412</i>
   <i name="MODEL_ALPHA">      1.00000000</i>
  </separator>
  <separator name="linear response parameters" >
   <i type="logical" name="LEPSILON"> F  </i>
   <i type="logical" name="LRPA"> F  </i>
   <i type="logical" name="LNABLA"> F  </i>
   <i type="logical" name="LVEL"> F  </i>
   <i type="int" name="KINTER">     0</i>
   <i name="CSHIFT">      0.10000000</i>
   <i name="OMEGAMAX">     -1.00000000</i>
   <i name="DEG_THRESHOLD">      0.00200000</i>
  </separator>
  <separator name="orbital magnetization" >
   <i type="logical" name="NUCIND"> F  </i>
   <v name="MAGPOS">      0.00000000      0.00000000      0.00000000</v>
   <i type="logical" name="LNICSALL"> T  </i>
   <i type="logical" name="ORBITALMAG"> F  </i>
   <i type="logical" name="LMAGBLOCH"> F  </i>
   <i type="logical" name="LCHIMAG"> F  </i>
   <i type="logical" name="LGAUGE"> T  </i>
   <i type="int" name="MAGATOM">     0</i>
   <v name="MAGDIPOL">      0.00000000      0.00000000      0.00000000</v>
   <v name="AVECCONST">      0.00000000      0.00000000      0.00000000</v>
  </separator>
  <separator name="response functions" >
   <i type="logical" name="LADDER"> F  </i>
   <i type="logical" name="LFXC"> F  </i>
   <i type="logical" name="LHARTREE"> T  </i>
   <i type="int" name="IBSE">     0</i>
   <i type="logical" name="LTCTE"> F  </i>
   <i type="logical" name="LTETE"> F  </i>
   <i type="logical" name="LTRIPLET"> F  </i>
   <i type="logical" name="LFXCEPS"> F  </i>
   <i type="logical" name="LFXHEG"> F  </i>
   <i type="logical" name="L2ORDER"> F  </i>
   <i type="logical" name="LUSEW"> F  </i>
   <i name="ENCUTGW">     -2.00000000</i>
   <i name="ENCUTGWSOFT">     -2.00000000</i>
   <i name="ENCUTLF">     -1.00000000</i>
   <i type="int" name="LMAXMP2">    -1</i>
   <i name="SCISSOR">      0.00000000</i>
   <i type="int" name="NOMEGA">     0</i>
   <i type="int" name="NOMEGAR">     0</i>
   <i type="int" name="NBANDSGW">    -1</i>
   <i type="int" name="NBANDSO">    -1</i>
   <i type="int" name="NBANDSV">    -1</i>
   <i type="int" name="NELM">   100</i>
   <i type="int" name="DIM">     3</i>
   <i type="int" name="ANTIRES">     0</i>
   <i name="OMEGAMAX">    -30.00000000</i>
   <i name="OMEGAMIN">    -30.00000000</i>
   <i name="OMEGATL">   -200.00000000</i>
   <i type="int" name="OMEGAGRID">     0</i>
   <i name="CSHIFT">     -0.10000000</i>
   <i type="logical" name="SELFENERGY"> F  </i>
   <i type="logical" name="LSPECTRAL"> F  </i>
   <i type="logical" name="ODDONLYGW"> F  </i>
   <i type="logical" name="EVENONLYGW"> F  </i>
   <i type="int" name="NKREDLFX">     1</i>
   <i type="int" name="NKREDLFY">     1</i>
   <i type="int" name="NKREDLFZ">     1</i>
   <i type="int" name="MAXMEM">  1800</i>
   <i type="int" name="TELESCOPE">     0</i>
   <i type="int" name="TAUPAR">     1</i>
  </separator>
  <separator name="External order field" >
   <i name="OFIELD_KAPPA">      0.00000000</i>
   <v name="OFIELD_K">      0.00000000      0.00000000      0.00000000</v>
   <i name="OFIELD_Q6_NEAR">      0.00000000</i>
   <i name="OFIELD_Q6_FAR">      0.00000000</i>
   <i name="OFIELD_A">      0.00000000</i>
  </separator>
 </parameters>
 <atominfo>
  <atoms>      34 </atoms>
  <types>       3 </types>
  <array name="atoms" >
   <dimension dim="1">ion</dimension>
   <field type="string">element</field>
   <field type="int">atomtype</field>
   <set>
    <rc><c>Sr</c><c>   1</c></rc>
    <rc><c>Sr</c><c>   1</c></rc>
    <rc><c>Sr</c><c>   1</c></rc>
    <rc><c>Sr</c><c>   1</c></rc>
    <rc><c>Sr</c><c>   1</c></rc>
    <rc><c>Sr</c><c>   1</c></rc>
    <rc><c>Sr</c><c>   1</c></rc>
    <rc><c>Sr</c><c>   1</c></rc>
    <rc><c>Cu</c><c>   2</c></rc>
    <rc><c>Cu</c><c>   2</c></rc>
    <rc><c>Cu</c><c>   2</c></rc>
    <rc><c>Cu</c><c>   2</c></rc>
    <rc><c>Cu</c><c>   2</c></rc>
    <rc><c>Cu</c><c>   2</c></rc>
    <rc><c>Cu</c><c>   2</c></rc>
    <rc><c>Cu</c><c>   2</c></rc>
    <rc><c>O </c><c>   3</c></rc>
    <rc><c>O </c><c>   3</c></rc>
    <rc><c>O </c><c>   3</c></rc>
    <rc><c>O </c><c>   3</c></rc>
    <rc><c>O </c><c>   3</c></rc>
    <rc><c>O </c><c>   3</c></rc>
    <rc><c>O </c><c>   3</c></rc>
    <rc><c>O </c><c>   3</c></rc>
    <rc><c>O </c><c>   3</c></rc>
    <rc><c>O </c><c>   3</c></rc>
    <rc><c>O </c><c>   3</c></rc>
    <rc><c>O </c><c>   3</c></rc>
    <rc><c>O </c><c>   3</c></rc>
    <rc><c>O </c><c>   3</c></rc>
    <rc><c>O </c><c>   3</c></rc>
    <rc><c>O </c><c>   3</c></rc>
    <rc><c>O </c><c>   3</c></rc>
    <rc><c>O </c><c>   3</c></rc>
   </set>
  </array>
  <array name="atomtypes" >
   <dimension dim="1">type</dimension>
   <field type="int">atomspertype</field>
   <field type="string">element</field>
   <field>mass</field>
   <field>valence</field>
   <field type="string">pseudopotential</field>
   <set>
    <rc><c>   8</c><c>Sr</c><c>     87.62000000</c><c>     10.00000000</c><c>  PAW_PBE Sr_sv 07Sep2000               </c></rc>
    <rc><c>   8</c><c>Cu</c><c>     63.54600000</c><c>     11.00000000</c><c>  PAW_PBE Cu 22Jun2005                  </c></rc>
    <rc><c>  18</c><c>O </c><c>     16.00000000</c><c>      6.00000000</c><c>  PAW_PBE O_s 07Sep2000                 </c></rc>
   </set>
  </array>
 </atominfo>
 <structure name="initialpos" >
  <crystal>
   <varray name="basis" >
    <v>       8.00000000       0.00000000       0.00000000 </v>
    <v>       0.00000000       8.00000000       0.00000000 </v>
    <v>       0.00000000       0.00000000       8.00000000 </v>
   </varray>
   <i name="volume">    512.00000000 </i>
   <varray name="rec_basis" >
    <v>       0.12500000       0.00000000       0.00000000 </v>
    <v>       0.00000000       0.12500000       0.00000000 </v>
    <v>       0.00000000       0.00000000       0.12500000 </v>
   </varray>
  </crystal>
  <varray name="positions" >
   <v>       0.25000000       0.75000000       0.00000000 </v>
   <v>       0.25000000       0.25000000       0.00000000 </v>
   <v>       0.25000000       0.75000000       0.50000000 </v>
   <v>       0.75000000       0.75000000       0.00000000 </v>
   <v>       0.75000000       0.25000000       0.50000000 </v>
   <v>       0.75000000       0.75000000       0.50000000 </v>
   <v>       0.75000000       0.25000000       0.00000000 </v>
   <v>       0.25000000       0.25000000       0.50000000 </v>
   <v>       0.50000000       0.00000000       0.25000000 </v>
   <v>       0.00000000       0.00000000       0.75000000 </v>
   <v>       0.00000000       0.50000000       0.25000000 </v>
   <v>       0.00000000       0.00000000       0.25000000 </v>
   <v>       0.00000000       0.50000000       0.75000000 </v>
   <v>       0.50000000       0.50000000       0.25000000 </v>
   <v>       0.50000000       0.00000000       0.75000000 </v>
   <v>       0.50000000       0.50000000       0.75000000 </v>
   <v>       0.00000000       0.00000000       0.00000000 </v>
   <v>       0.25000000       0.00000000       0.25000000 </v>
   <v>       0.75000000       0.00000000       0.75000000 </v>
   <v>       0.75000000       0.50000000       0.25000000 </v>
   <v>       0.75000000       0.00000000       0.25000000 </v>
   <v>       0.00000000       0.25000000       0.75000000 </v>
   <v>       0.50000000       0.25000000       0.25000000 </v>
   <v>       0.00000000       0.25000000       0.25000000 </v>
   <v>       0.00000000       0.75000000       0.25000000 </v>
   <v>       0.50000000       0.50000000       0.50000000 </v>
   <v>       0.75000000       0.50000000       0.75000000 </v>
   <v>       0.25000000       0.50000000       0.25000000 </v>
   <v>       0.25000000       0.00000000       0.75000000 </v>
   <v>       0.25000000       0.50000000       0.75000000 </v>
   <v>       0.50000000       0.75000000       0.25000000 </v>
   <v>       0.00000000       0.75000000       0.75000000 </v>
   <v>       0.50000000       0.75000000       0.75000000 </v>
   <v>       0.50000000       0.25000000       0.75000000 </v>
  </varray>
 </structure>
 <calculation>
  <scstep>
   <time name="dav">    4.21    4.21</time>
   <time name="total">    4.41    4.42</time>
   <energy>
    <i name="alphaZ">   1271.29833366 </i>
    <i name="ewald"> -18328.27684434 </i>
    <i name="hartreedc">  -7544.31259589 </i>
    <i name="XCdc">   1142.37647027 </i>
    <i name="pawpsdc">  21065.97634094 </i>
    <i name="pawaedc"> -21731.86537179 </i>
    <i name="eentropy">     -0.00526027 </i>
    <i name="bandstr">   2101.52738275 </i>
    <i name="atom">  25654.75912617 </i>
    <i name="e_fr_energy">   3631.47758151 </i>
    <i name="e_wo_entrp">   3631.48284177 </i>
    <i name="e_0_energy">   3631.48021164 </i>
   </energy>
  </scstep>
  <scstep>
   <time name="dav">    4.20    4.20</time>
   <time name="total">    4.20    4.21</time>
   <energy>
    <i name="e_fr_energy">    408.26948074 </i>
    <i name="e_wo_entrp">    408.28442428 </i>
    <i name="e_0_energy">    408.27695251 </i>
   </energy>
  </scstep>
  <scstep>
   <time name="dav">    4.11    4.11</time>
   <time name="total">    4.11    4.13</time>
   <energy>
    <i name="e_fr_energy">   -160.18947373 </i>
    <i name="e_wo_entrp">   -160.17129623 </i>
    <i name="e_0_energy">   -160.18038498 </i>
   </energy>
  </scstep>
  <scstep>
   <time name="dav">    5.35    5.36</time>
   <time name="total">    5.36    5.37</time>
   <energy>
    <i name="e_fr_energy">   -211.29409382 </i>
    <i name="e_wo_entrp">   -211.26373220 </i>
    <i name="e_0_energy">   -211.27891301 </i>
   </energy>
  </scstep>
  <scstep>
   <time name="dav">    6.53    6.53</time>
   <time name="total">    6.86    6.87</time>
   <energy>
    <i name="e_fr_energy">   -214.53296033 </i>
    <i name="e_wo_entrp">   -214.50211894 </i>
    <i name="e_0_energy">   -214.51753963 </i>
   </energy>
  </scstep>
  <scstep>
   <time name="dav">    5.88    5.88</time>
   <time name="total">    6.40    6.42</time>
   <energy>
    <i name="e_fr_energy">   -194.81339471 </i>
    <i name="e_wo_entrp">   -194.76556083 </i>
    <i name="e_0_energy">   -194.78947777 </i>
   </energy>
  </scstep>
  <scstep>
   <time name="dav">    5.51    5.51</time>
   <time name="total">    6.03    6.05</time>
   <energy>
    <i name="e_fr_energy">   -172.90933033 </i>
    <i name="e_wo_entrp">   -172.89186935 </i>
    <i name="e_0_energy">   -172.90059984 </i>
   </energy>
  </scstep>
  <scstep>
   <time name="dav">    5.79    5.80</time>
   <time name="total">    6.32    6.34</time>
   <energy>
    <i name="e_fr_energy">   -174.01071781 </i>
    <i name="e_wo_entrp">   -173.98321327 </i>
    <i name="e_0_energy">   -173.99696554 </i>
   </energy>
  </scstep>
  <scstep>
   <time name="dav">    5.75    5.76</time>
   <time name="total">    6.27    6.29</time>
   <energy>
    <i name="e_fr_energy">   -174.04935656 </i>
    <i name="e_wo_entrp">   -174.03495557 </i>
    <i name="e_0_energy">   -174.04215607 </i>
   </energy>
  </scstep>
  <scstep>
   <time name="dav">    5.92    5.95</time>
   <time name="total">    6.44    6.49</time>
   <energy>
    <i name="e_fr_energy">   -171.33330115 </i>
    <i name="e_wo_entrp">   -171.31244633 </i>
    <i name="e_0_energy">   -171.32287374 </i>
   </energy>
  </scstep>
  <scstep>
   <time name="dav">    5.97    5.97</time>
   <time name="total">    6.49    6.51</time>
   <energy>
    <i name="e_fr_energy">   -171.12653751 </i>
    <i name="e_wo_entrp">   -171.10582706 </i>
    <i name="e_0_energy">   -171.11618228 </i>
   </energy>
  </scstep>
  <scstep>
   <time name="dav">    5.60    5.60</time>
   <time name="total">    6.12    6.14</time>
   <energy>
    <i name="e_fr_energy">   -171.28394331 </i>
    <i name="e_wo_entrp">   -171.26965093 </i>
    <i name="e_0_energy">   -171.27679712 </i>
   </energy>
  </scstep>
  <scstep>
   <time name="dav">    5.55    5.55</time>
   <time name="total">    6.07    6.09</time>
   <energy>
    <i name="e_fr_energy">   -171.33976126 </i>
    <i name="e_wo_entrp">   -171.32970974 </i>
    <i name="e_0_energy">   -171.33473550 </i>
   </energy>
  </scstep>
  <scstep>
   <time name="dav">    6.08    6.09</time>
   <time name="total">    6.60    6.62</time>
   <energy>
    <i name="e_fr_energy">   -171.40993761 </i>
    <i name="e_wo_entrp">   -171.39741922 </i>
    <i name="e_0_energy">   -171.40367842 </i>
   </energy>
  </scstep>
  <scstep>
   <time name="dav">    6.07    6.08</time>
   <time name="total">    6.59    6.61</time>
   <energy>
    <i name="e_fr_energy">   -171.46358929 </i>
    <i name="e_wo_entrp">   -171.45268438 </i>
    <i name="e_0_energy">   -171.45813683 </i>
   </energy>
  </scstep>
  <scstep>
   <time name="dav">    5.94    5.94</time>
   <time name="total">    6.46    6.48</time>
   <energy>
    <i name="e_fr_energy">   -171.49377189 </i>
    <i name="e_wo_entrp">   -171.48257049 </i>
    <i name="e_0_energy">   -171.48817119 </i>
   </energy>
  </scstep>
  <scstep>
   <time name="dav">    5.62    5.63</time>
   <time name="total">    6.14    6.16</time>
   <energy>
    <i name="e_fr_energy">   -171.48363553 </i>
    <i name="e_wo_entrp">   -171.47431697 </i>
    <i name="e_0_energy">   -171.47897625 </i>
   </energy>
  </scstep>
  <scstep>
   <time name="dav">    5.68    5.68</time>
   <time name="total">    6.20    6.22</time>
   <energy>
    <i name="e_fr_energy">   -171.49513253 </i>
    <i name="e_wo_entrp">   -171.48058574 </i>
    <i name="e_0_energy">   -171.48785914 </i>
   </energy>
  </scstep>
  <scstep>
   <time name="dav">    6.13    6.14</time>
   <time name="total">    6.65    6.67</time>
   <energy>
    <i name="e_fr_energy">   -171.51555361 </i>
    <i name="e_wo_entrp">   -171.49481430 </i>
    <i name="e_0_energy">   -171.50518395 </i>
   </energy>
  </scstep>
  <scstep>
   <time name="dav">    5.95    5.96</time>
   <time name="total">    6.47    6.49</time>
   <energy>
    <i name="e_fr_energy">   -171.52641730 </i>
    <i name="e_wo_entrp">   -171.50377411 </i>
    <i name="e_0_energy">   -171.51509571 </i>
   </energy>
  </scstep>
  <scstep>
   <time name="dav">    5.58    5.59</time>
   <time name="total">    6.11    6.12</time>
   <energy>
    <i name="e_fr_energy">   -171.52839506 </i>
    <i name="e_wo_entrp">   -171.50529648 </i>
    <i name="e_0_energy">   -171.51684577 </i>
   </energy>
  </scstep>
  <scstep>
   <time name="dav">    5.69    5.69</time>
   <time name="total">    6.21    6.23</time>
   <energy>
    <i name="e_fr_energy">   -171.52535142 </i>
    <i name="e_wo_entrp">   -171.50300852 </i>
    <i name="e_0_energy">   -171.51417997 </i>
   </energy>
  </scstep>
  <scstep>
   <time name="dav">    6.14    6.14</time>
   <time name="total">    6.66    6.68</time>
   <energy>
    <i name="e_fr_energy">   -171.51801462 </i>
    <i name="e_wo_entrp">   -171.49728264 </i>
    <i name="e_0_energy">   -171.50764863 </i>
   </energy>
  </scstep>
  <scstep>
   <time name="dav">    6.01    6.01</time>
   <time name="total">    6.53    6.55</time>
   <energy>
    <i name="e_fr_energy">   -171.50730008 </i>
    <i name="e_wo_entrp">   -171.48897859 </i>
    <i name="e_0_energy">   -171.49813933 </i>
   </energy>
  </scstep>
  <scstep>
   <time name="dav">    6.28    6.28</time>
   <time name="total">    6.80    6.82</time>
   <energy>
    <i name="e_fr_energy">   -171.49935371 </i>
    <i name="e_wo_entrp">   -171.48304035 </i>
    <i name="e_0_energy">   -171.49119703 </i>
   </energy>
  </scstep>
  <scstep>
   <time name="dav">    6.08    6.09</time>
   <time name="total">    6.60    6.63</time>
   <energy>
    <i name="e_fr_energy">   -171.48995482 </i>
    <i name="e_wo_entrp">   -171.47544429 </i>
    <i name="e_0_energy">   -171.48269956 </i>
   </energy>
  </scstep>
  <scstep>
   <time name="dav">    5.45    5.45</time>
   <time name="total">    5.98    5.99</time>
   <energy>
    <i name="e_fr_energy">   -171.50197269 </i>
    <i name="e_wo_entrp">   -171.48640037 </i>
    <i name="e_0_energy">   -171.49418653 </i>
   </energy>
  </scstep>
  <scstep>
   <time name="dav">    5.87    5.87</time>
   <time name="total">    6.39    6.41</time>
   <energy>
    <i name="e_fr_energy">   -171.51782612 </i>
    <i name="e_wo_entrp">   -171.49763112 </i>
    <i name="e_0_energy">   -171.50772862 </i>
   </energy>
  </scstep>
  <scstep>
   <time name="dav">    6.12    6.13</time>
   <time name="total">    6.65    6.66</time>
   <energy>
    <i name="e_fr_energy">   -171.52905888 </i>
    <i name="e_wo_entrp">   -171.50585829 </i>
    <i name="e_0_energy">   -171.51745859 </i>
   </energy>
  </scstep>
  <scstep>
   <time name="dav">    6.07    6.08</time>
   <time name="total">    6.60    6.61</time>
   <energy>
    <i name="e_fr_energy">   -171.53825007 </i>
    <i name="e_wo_entrp">   -171.51495343 </i>
    <i name="e_0_energy">   -171.52660175 </i>
   </energy>
  </scstep>
  <scstep>
   <time name="dav">    6.16    6.16</time>
   <time name="total">    6.68    6.70</time>
   <energy>
    <i name="e_fr_energy">   -171.54598047 </i>
    <i name="e_wo_entrp">   -171.52321541 </i>
    <i name="e_0_energy">   -171.53459794 </i>
   </energy>
  </scstep>
  <scstep>
   <time name="dav">    5.73    5.73</time>
   <time name="total">    6.26    6.27</time>
   <energy>
    <i name="e_fr_energy">   -171.54790248 </i>
    <i name="e_wo_entrp">   -171.52542950 </i>
    <i name="e_0_energy">   -171.53666599 </i>
   </energy>
  </scstep>
  <scstep>
   <time name="dav">    5.12    5.12</time>
   <time name="total">    5.64    5.65</time>
   <energy>
    <i name="e_fr_energy">   -171.54743844 </i>
    <i name="e_wo_entrp">   -171.52492067 </i>
    <i name="e_0_energy">   -171.53617956 </i>
   </energy>
  </scstep>
  <scstep>
   <time name="dav">    5.45    5.46</time>
   <time name="total">    5.98    5.99</time>
   <energy>
    <i name="e_fr_energy">   -171.54804417 </i>
    <i name="e_wo_entrp">   -171.52609539 </i>
    <i name="e_0_energy">   -171.53706978 </i>
   </energy>
  </scstep>
  <scstep>
   <time name="dav">    5.71    5.71</time>
   <time name="total">    6.23    6.25</time>
   <energy>
    <i name="e_fr_energy">   -171.54879675 </i>
    <i name="e_wo_entrp">   -171.52689898 </i>
    <i name="e_0_energy">   -171.53784786 </i>
   </energy>
  </scstep>
  <scstep>
   <time name="dav">    5.76    5.76</time>
   <time name="total">    6.28    6.29</time>
   <energy>
    <i name="e_fr_energy">   -171.54876188 </i>
    <i name="e_wo_entrp">   -171.52665705 </i>
    <i name="e_0_energy">   -171.53770946 </i>
   </energy>
  </scstep>
  <scstep>
   <time name="dav">    5.98    5.98</time>
   <time name="total">    6.50    6.51</time>
   <energy>
    <i name="e_fr_energy">   -171.54860975 </i>
    <i name="e_wo_entrp">   -171.52639019 </i>
    <i name="e_0_energy">   -171.53749997 </i>
   </energy>
  </scstep>
  <scstep>
   <time name="dav">    5.60    5.61</time>
   <time name="total">    6.13    6.15</time>
   <energy>
    <i name="e_fr_energy">   -171.54873974 </i>
    <i name="e_wo_entrp">   -171.52659359 </i>
    <i name="e_0_energy">   -171.53766667 </i>
   </energy>
  </scstep>
  <scstep>
   <time name="dav">    5.40    5.40</time>
   <time name="total">    5.92    5.94</time>
   <energy>
    <i name="e_fr_energy">   -171.54873962 </i>
    <i name="e_wo_entrp">   -171.52662339 </i>
    <i name="e_0_energy">   -171.53768151 </i>
   </energy>
  </scstep>
  <scstep>
   <time name="dav">    5.41    5.42</time>
   <time name="total">    5.94    5.95</time>
   <energy>
    <i name="e_fr_energy">   -171.54873982 </i>
    <i name="e_wo_entrp">   -171.52673229 </i>
    <i name="e_0_energy">   -171.53773605 </i>
   </energy>
  </scstep>
  <scstep>
   <time name="dav">    5.80    5.82</time>
   <time name="total">    6.32    6.36</time>
   <energy>
    <i name="e_fr_energy">   -171.54777451 </i>
    <i name="e_wo_entrp">   -171.52641848 </i>
    <i name="e_0_energy">   -171.53709650 </i>
   </energy>
  </scstep>
  <scstep>
   <time name="dav">    5.93    5.94</time>
   <time name="total">    6.46    6.47</time>
   <energy>
    <i name="e_fr_energy">   -171.54699060 </i>
    <i name="e_wo_entrp">   -171.52613934 </i>
    <i name="e_0_energy">   -171.53656497 </i>
   </energy>
  </scstep>
  <scstep>
   <time name="dav">    5.67    5.68</time>
   <time name="total">    6.19    6.22</time>
   <energy>
    <i name="e_fr_energy">   -171.54727768 </i>
    <i name="e_wo_entrp">   -171.52648399 </i>
    <i name="e_0_energy">   -171.53688083 </i>
   </energy>
  </scstep>
  <scstep>
   <time name="dav">    5.33    5.33</time>
   <time name="total">    5.86    5.87</time>
   <energy>
    <i name="e_fr_energy">   -171.54748259 </i>
    <i name="e_wo_entrp">   -171.52663710 </i>
    <i name="e_0_energy">   -171.53705985 </i>
   </energy>
  </scstep>
  <scstep>
   <time name="dav">    4.07    4.07</time>
   <time name="total">    4.59    4.61</time>
   <energy>
    <i name="e_fr_energy">   -171.54745013 </i>
    <i name="e_wo_entrp">   -171.52661825 </i>
    <i name="e_0_energy">   -171.53703419 </i>
   </energy>
  </scstep>
  <scstep>
   <time name="dav">    4.76    4.77</time>
   <time name="total">    5.29    5.31</time>
   <energy>
    <i name="e_fr_energy">   -171.54762012 </i>
    <i name="e_wo_entrp">   -171.52672232 </i>
    <i name="e_0_energy">   -171.53717122 </i>
   </energy>
  </scstep>
  <scstep>
   <time name="dav">    5.91    5.91</time>
   <time name="total">    6.43    6.45</time>
   <energy>
    <i name="e_fr_energy">   -171.54798167 </i>
    <i name="e_wo_entrp">   -171.52690515 </i>
    <i name="e_0_energy">   -171.53744341 </i>
   </energy>
  </scstep>
  <scstep>
   <time name="dav">    5.80    5.81</time>
   <time name="total">    6.33    6.35</time>
   <energy>
    <i name="e_fr_energy">   -171.54833946 </i>
    <i name="e_wo_entrp">   -171.52692652 </i>
    <i name="e_0_energy">   -171.53763299 </i>
   </energy>
  </scstep>
  <scstep>
   <time name="dav">    6.09    6.09</time>
   <time name="total">    6.61    6.64</time>
   <energy>
    <i name="e_fr_energy">   -171.54851610 </i>
    <i name="e_wo_entrp">   -171.52687423 </i>
    <i name="e_0_energy">   -171.53769516 </i>
   </energy>
  </scstep>
  <scstep>
   <time name="dav">    6.22    6.22</time>
   <time name="total">    6.75    6.77</time>
   <energy>
    <i name="e_fr_energy">   -171.54858656 </i>
    <i name="e_wo_entrp">   -171.52685731 </i>
    <i name="e_0_energy">   -171.53772193 </i>
   </energy>
  </scstep>
  <scstep>
   <time name="dav">    5.02    5.02</time>
   <time name="total">    5.54    5.56</time>
   <energy>
    <i name="e_fr_energy">   -171.54862267 </i>
    <i name="e_wo_entrp">   -171.52692563 </i>
    <i name="e_0_energy">   -171.53777415 </i>
   </energy>
  </scstep>
  <scstep>
   <time name="dav">    5.27    5.27</time>
   <time name="total">    5.86    5.88</time>
   <energy>
    <i name="e_fr_energy">   -171.54861786 </i>
    <i name="e_wo_entrp">   -171.52682246 </i>
    <i name="e_0_energy">   -171.53772016 </i>
   </energy>
  </scstep>
  <scstep>
   <time name="dav">    5.88    5.88</time>
   <time name="total">    6.41    6.42</time>
   <energy>
    <i name="e_fr_energy">   -171.54860045 </i>
    <i name="e_wo_entrp">   -171.52673366 </i>
    <i name="e_0_energy">   -171.53766706 </i>
   </energy>
  </scstep>
  <scstep>
   <time name="dav">    4.60    4.60</time>
   <time name="total">    5.13    5.14</time>
   <energy>
    <i name="e_fr_energy">   -171.54861429 </i>
    <i name="e_wo_entrp">   -171.52675136 </i>
    <i name="e_0_energy">   -171.53768283 </i>
   </energy>
  </scstep>
  <scstep>
   <time name="dav">    3.35    3.36</time>
   <time name="total">    3.88    3.90</time>
   <energy>
    <i name="e_fr_energy">   -171.54861246 </i>
    <i name="e_wo_entrp">   -171.52675230 </i>
    <i name="e_0_energy">   -171.53768238 </i>
   </energy>
  </scstep>
  <scstep>
   <time name="dav">    4.73    4.73</time>
   <time name="total">    5.26    5.28</time>
   <energy>
    <i name="e_fr_energy">   -171.54860205 </i>
    <i name="e_wo_entrp">   -171.52677522 </i>
    <i name="e_0_energy">   -171.53768864 </i>
   </energy>
  </scstep>
  <scstep>
   <time name="dav">    5.55    5.55</time>
   <time name="total">    6.08    6.09</time>
   <energy>
    <i name="e_fr_energy">   -171.54860995 </i>
    <i name="e_wo_entrp">   -171.52688379 </i>
    <i name="e_0_energy">   -171.53774687 </i>
   </energy>
  </scstep>
  <scstep>
   <time name="dav">    4.90    4.90</time>
   <time name="total">    5.43    5.44</time>
   <energy>
    <i name="e_fr_energy">   -171.54861670 </i>
    <i name="e_wo_entrp">   -171.52689200 </i>
    <i name="e_0_energy">   -171.53775435 </i>
   </energy>
  </scstep>
  <scstep>
   <time name="dav">    3.11    3.11</time>
   <time name="total">    3.64    3.66</time>
   <energy>
    <i name="e_fr_energy">   -171.54861395 </i>
    <i name="e_wo_entrp">   -171.52689020 </i>
    <i name="e_0_energy">   -171.53775208 </i>
   </energy>
  </scstep>
  <scstep>
   <time name="dav">    2.92    2.92</time>
   <time name="total">    3.45    3.46</time>
   <energy>
    <i name="e_fr_energy">   -171.54861263 </i>
    <i name="e_wo_entrp">   -171.52688859 </i>
    <i name="e_0_energy">   -171.53775061 </i>
   </energy>
  </scstep>
  <scstep>
   <time name="dav">    4.18    4.18</time>
   <time name="total">    4.70    4.72</time>
   <energy>
    <i name="e_fr_energy">   -171.54861722 </i>
    <i name="e_wo_entrp">   -171.52685718 </i>
    <i name="e_0_energy">   -171.53773720 </i>
   </energy>
  </scstep>
  <scstep>
   <time name="dav">    5.02    5.03</time>
   <time name="total">    5.55    5.57</time>
   <energy>
    <i name="e_fr_energy">   -171.54860018 </i>
    <i name="e_wo_entrp">   -171.52679535 </i>
    <i name="e_0_energy">   -171.53769777 </i>
   </energy>
  </scstep>
  <scstep>
   <time name="dav">    3.57    3.57</time>
   <time name="total">    4.10    4.11</time>
   <energy>
    <i name="e_fr_energy">   -171.54860386 </i>
    <i name="e_wo_entrp">   -171.52680830 </i>
    <i name="e_0_energy">   -171.53770608 </i>
   </energy>
  </scstep>
  <scstep>
   <time name="dav">    4.33    4.33</time>
   <time name="total">    4.86    4.88</time>
   <energy>
    <i name="e_fr_energy">   -171.54860580 </i>
    <i name="e_wo_entrp">   -171.52683410 </i>
    <i name="e_0_energy">   -171.53771995 </i>
   </energy>
  </scstep>
  <scstep>
   <time name="dav">    3.98    3.98</time>
   <time name="total">    4.51    4.52</time>
   <energy>
    <i name="e_fr_energy">   -171.54861052 </i>
    <i name="e_wo_entrp">   -171.52686474 </i>
    <i name="e_0_energy">   -171.53773763 </i>
   </energy>
  </scstep>
  <scstep>
   <time name="dav">    4.68    4.68</time>
   <time name="total">    5.21    5.23</time>
   <energy>
    <i name="e_fr_energy">   -171.54861295 </i>
    <i name="e_wo_entrp">   -171.52689527 </i>
    <i name="e_0_energy">   -171.53775411 </i>
   </energy>
  </scstep>
  <scstep>
   <time name="dav">    3.87    3.87</time>
   <time name="total">    4.07    4.09</time>
   <energy>
    <i name="alphaZ">   1271.29833366 </i>
    <i name="ewald"> -18328.27684434 </i>
    <i name="hartreedc">  -7510.88842452 </i>
    <i name="XCdc">   1143.21813905 </i>
    <i name="pawpsdc">  32750.46015010 </i>
    <i name="pawaedc"> -33494.29342713 </i>
    <i name="eentropy">     -0.02171716 </i>
    <i name="bandstr">  -1657.80394960 </i>
    <i name="atom">  25654.75912617 </i>
    <i name="e_fr_energy">   -171.54861378 </i>
    <i name="e_wo_entrp">   -171.52689662 </i>
    <i name="e_0_energy">   -171.53775520 </i>
   </energy>
  </scstep>
  <structure>
   <crystal>
    <varray name="basis" >
     <v>       8.00000000       0.00000000       0.00000000 </v>
     <v>       0.00000000       8.00000000       0.00000000 </v>
     <v>       0.00000000       0.00000000       8.00000000 </v>
    </varray>
    <i name="volume">    512.00000000 </i>
    <varray name="rec_basis" >
     <v>       0.12500000       0.00000000       0.00000000 </v>
     <v>       0.00000000       0.12500000       0.00000000 </v>
     <v>       0.00000000       0.00000000       0.12500000 </v>
    </varray>
   </crystal>
   <varray name="positions" >
    <v>       0.25000000       0.75000000       0.00000000 </v>
    <v>       0.25000000       0.25000000       0.00000000 </v>
    <v>       0.25000000       0.75000000       0.50000000 </v>
    <v>       0.75000000       0.75000000       0.00000000 </v>
    <v>       0.75000000       0.25000000       0.50000000 </v>
    <v>       0.75000000       0.75000000       0.50000000 </v>
    <v>       0.75000000       0.25000000       0.00000000 </v>
    <v>       0.25000000       0.25000000       0.50000000 </v>
    <v>       0.50000000       0.00000000       0.25000000 </v>
    <v>       0.00000000       0.00000000       0.75000000 </v>
    <v>       0.00000000       0.50000000       0.25000000 </v>
    <v>       0.00000000       0.00000000       0.25000000 </v>
    <v>       0.00000000       0.50000000       0.75000000 </v>
    <v>       0.50000000       0.50000000       0.25000000 </v>
    <v>       0.50000000       0.00000000       0.75000000 </v>
    <v>       0.50000000       0.50000000       0.75000000 </v>
    <v>       0.00000000       0.00000000       0.00000000 </v>
    <v>       0.25000000       0.00000000       0.25000000 </v>
    <v>       0.75000000       0.00000000       0.75000000 </v>
    <v>       0.75000000       0.50000000       0.25000000 </v>
    <v>       0.75000000       0.00000000       0.25000000 </v>
    <v>       0.00000000       0.25000000       0.75000000 </v>
    <v>       0.50000000       0.25000000       0.25000000 </v>
    <v>       0.00000000       0.25000000       0.25000000 </v>
    <v>       0.00000000       0.75000000       0.25000000 </v>
    <v>       0.50000000       0.50000000       0.50000000 </v>
    <v>       0.75000000       0.50000000       0.75000000 </v>
    <v>       0.25000000       0.50000000       0.25000000 </v>
    <v>       0.25000000       0.00000000       0.75000000 </v>
    <v>       0.25000000       0.50000000       0.75000000 </v>
    <v>       0.50000000       0.75000000       0.25000000 </v>
    <v>       0.00000000       0.75000000       0.75000000 </v>
    <v>       0.50000000       0.75000000       0.75000000 </v>
    <v>       0.50000000       0.25000000       0.75000000 </v>
   </varray>
  </structure>
  <varray name="forces" >
   <v>      -0.69639746       0.69639746       0.00000000 </v>
   <v>      -0.69639746      -0.69639746       0.00000000 </v>
   <v>       0.69639746      -0.69639746       0.00000000 </v>
   <v>       0.69639746       0.69639746       0.00000000 </v>
   <v>      -0.69639746       0.69639746       0.00000000 </v>
   <v>      -0.69639746      -0.69639746       0.00000000 </v>
   <v>       0.69639746      -0.69639746       0.00000000 </v>
   <v>       0.69639746       0.69639746       0.00000000 </v>
   <v>       0.00000000       0.00000000       0.00000000 </v>
   <v>       0.00000000       0.00000000       1.09335001 </v>
   <v>       0.00000000       0.00000000       0.00000000 </v>
   <v>       0.00000000       0.00000000      -1.09335001 </v>
   <v>       0.00000000       0.00000000       0.00000000 </v>
   <v>       0.00000000       0.00000000       1.09335001 </v>
   <v>       0.00000000       0.00000000       0.00000000 </v>
   <v>       0.00000000       0.00000000      -1.09335001 </v>
   <v>       0.00000000       0.00000000       0.00000000 </v>
   <v>       0.71708229       0.00000000       0.51240020 </v>
   <v>      -0.71708229       0.00000000      -0.51240020 </v>
   <v>       0.71708229       0.00000000      -0.51240020 </v>
   <v>      -0.71708229       0.00000000       0.51240020 </v>
   <v>       0.00000000       0.71708229      -0.51240020 </v>
   <v>       0.00000000      -0.71708229      -0.51240020 </v>
   <v>       0.00000000       0.71708229       0.51240020 </v>
   <v>       0.00000000      -0.71708229       0.51240020 </v>
   <v>       0.00000000       0.00000000       0.00000000 </v>
   <v>       0.71708229       0.00000000       0.51240020 </v>
   <v>      -0.71708229       0.00000000      -0.51240020 </v>
   <v>       0.71708229       0.00000000      -0.51240020 </v>
   <v>      -0.71708229       0.00000000       0.51240020 </v>
   <v>       0.00000000       0.71708229      -0.51240020 </v>
   <v>       0.00000000      -0.71708229      -0.51240020 </v>
   <v>       0.00000000       0.71708229       0.51240020 </v>
   <v>       0.00000000      -0.71708229       0.51240020 </v>
  </varray>
  <varray name="stress" >
   <v>     -79.50565651       0.00000000       0.00000000 </v>
   <v>       0.00000000     -79.50565651       0.00000000 </v>
   <v>       0.00000000       0.00000000    -121.99131210 </v>
  </varray>
  <energy>
   <i name="e_fr_energy">   -171.54861378 </i>
   <i name="e_wo_entrp">   -171.53775520 </i>
   <i name="e_0_energy">     -0.02171716 </i>
  </energy>
  <time name="totalsc">  398.62  399.87</time>
  <eigenvalues>
   <array>
    <dimension dim="1">band</dimension>
    <dimension dim="2">kpoint</dimension>
    <dimension dim="3">spin</dimension>
    <field>eigene</field>
    <field>occ</field>
    <set>
     <set comment="spin 1">
      <set comment="kpoint 1">
       <r>  -31.0345    1.0000 </r>
       <r>  -31.0205    1.0000 </r>
       <r>  -31.0205    1.0000 </r>
       <r>  -31.0201    1.0000 </r>
       <r>  -31.0075    1.0000 </r>
       <r>  -31.0075    1.0000 </r>
       <r>  -31.0072    1.0000 </r>
       <r>  -30.9954    1.0000 </r>
       <r>  -15.0656    1.0000 </r>
       <r>  -14.8286    1.0000 </r>
       <r>  -14.7193    1.0000 </r>
       <r>  -14.6026    1.0000 </r>
       <r>  -14.3947    1.0000 </r>
       <r>  -14.3947    1.0000 </r>
       <r>  -14.3489    1.0000 </r>
       <r>  -14.3489    1.0000 </r>
       <r>  -14.1467    1.0000 </r>
       <r>  -14.1107    1.0000 </r>
       <r>  -14.0675    1.0000 </r>
       <r>  -13.9377    1.0000 </r>
       <r>  -13.9377    1.0000 </r>
       <r>  -13.9040    1.0000 </r>
       <r>  -13.9040    1.0000 </r>
       <r>  -13.6646    1.0000 </r>
       <r>  -13.6490    1.0000 </r>
       <r>  -13.6150    1.0000 </r>
       <r>  -13.2859    1.0000 </r>
       <r>  -13.2185    1.0000 </r>
       <r>  -13.2185    1.0000 </r>
       <r>  -13.0662    1.0000 </r>
       <r>  -13.0344    1.0000 </r>
       <r>  -13.0344    1.0000 </r>
       <r>  -13.0314    1.0000 </r>
       <r>  -13.0249    1.0000 </r>
       <r>  -12.9795    1.0000 </r>
       <r>  -12.9795    1.0000 </r>
       <r>  -12.9433    1.0000 </r>
       <r>  -12.9082    1.0000 </r>
       <r>  -12.8499    1.0000 </r>
       <r>  -12.8224    1.0000 </r>
       <r>  -12.8135    1.0000 </r>
       <r>  -12.8135    1.0000 </r>
       <r>  -12.7766    1.0000 </r>
       <r>  -12.7209    1.0000 </r>
       <r>  -12.5946    1.0000 </r>
       <r>  -12.5946    1.0000 </r>
       <r>  -12.5227    1.0000 </r>
       <r>  -12.4655    1.0000 </r>
       <r>  -12.4655    1.0000 </r>
       <r>  -12.3249    1.0000 </r>
       <r>   -3.4035    1.0000 </r>
       <r>   -3.3981    1.0000 </r>
       <r>   -3.3202    1.0000 </r>
       <r>   -3.2230    1.0000 </r>
       <r>   -2.9590    1.0000 </r>
       <r>   -2.9530    1.0000 </r>
       <r>   -2.5542    1.0000 </r>
       <r>   -2.5306    1.0000 </r>
       <r>   -2.5273    1.0000 </r>
       <r>   -2.4967    1.0000 </r>
       <r>   -2.4821    1.0000 </r>
       <r>   -2.1560    1.0000 </r>
       <r>   -2.0421    1.0000 </r>
       <r>   -2.0421    1.0000 </r>
       <r>   -1.8757    1.0000 </r>
       <r>   -1.7957    1.0000 </r>
       <r>   -1.7957    1.0000 </r>
       <r>   -1.7826    1.0000 </r>
       <r>   -1.6372    1.0000 </r>
       <r>   -1.6372    1.0000 </r>
       <r>   -1.5753    1.0000 </r>
       <r>   -1.5309    1.0000 </r>
       <r>   -1.5309    1.0000 </r>
       <r>   -1.4559    1.0000 </r>
       <r>   -1.2133    1.0000 </r>
       <r>   -1.1861    1.0000 </r>
       <r>   -1.0907    1.0000 </r>
       <r>   -1.0742    1.0000 </r>
       <r>   -1.0742    1.0000 </r>
       <r>   -1.0061    1.0000 </r>
       <r>   -1.0061    1.0000 </r>
       <r>   -0.9887    1.0000 </r>
       <r>   -0.9887    1.0000 </r>
       <r>   -0.9583    1.0000 </r>
       <r>   -0.9583    1.0000 </r>
       <r>   -0.9272    1.0000 </r>
       <r>   -0.9272    1.0000 </r>
       <r>   -0.8941    1.0000 </r>
       <r>   -0.8553    1.0000 </r>
       <r>   -0.8553    1.0000 </r>
       <r>   -0.6990    1.0000 </r>
       <r>   -0.6211    1.0000 </r>
       <r>   -0.5372    1.0000 </r>
       <r>   -0.5372    1.0000 </r>
       <r>   -0.5185    1.0000 </r>
       <r>   -0.3650    1.0000 </r>
       <r>   -0.2867    1.0000 </r>
       <r>   -0.2867    1.0000 </r>
       <r>   -0.2762    1.0000 </r>
       <r>    0.2169    1.0000 </r>
       <r>    0.2210    1.0000 </r>
       <r>    0.2476    1.0000 </r>
       <r>    0.2808    1.0000 </r>
       <r>    0.4066    1.0000 </r>
       <r>    0.4452    1.0000 </r>
       <r>    0.4545    1.0000 </r>
       <r>    0.4545    1.0000 </r>
       <r>    0.6530    1.0000 </r>
       <r>    0.7159    1.0000 </r>
       <r>    0.7218    1.0000 </r>
       <r>    0.7730    1.0000 </r>
       <r>    0.9347    1.0000 </r>
       <r>    0.9347    1.0000 </r>
       <r>    1.0288    1.0000 </r>
       <r>    1.0288    1.0000 </r>
       <r>    1.0483    1.0000 </r>
       <r>    1.1905    1.0000 </r>
       <r>    1.3319    1.0000 </r>
       <r>    1.3319    1.0000 </r>
       <r>    1.3924    1.0000 </r>
       <r>    1.4076    1.0000 </r>
       <r>    1.4258    1.0000 </r>
       <r>    1.4258    1.0000 </r>
       <r>    1.4737    1.0000 </r>
       <r>    1.4986    1.0000 </r>
       <r>    1.6097    1.0000 </r>
       <r>    1.6097    1.0000 </r>
       <r>    1.7378    1.0000 </r>
       <r>    1.7399    1.0000 </r>
       <r>    1.7399    1.0000 </r>
       <r>    1.7465    1.0000 </r>
       <r>    1.7465    1.0000 </r>
       <r>    1.8253    1.0000 </r>
       <r>    1.8809    1.0000 </r>
       <r>    1.8809    1.0000 </r>
       <r>    1.9681    1.0000 </r>
       <r>    1.9681    1.0000 </r>
       <r>    2.1260    1.0000 </r>
       <r>    2.3903    0.9935 </r>
       <r>    2.4403    0.8579 </r>
       <r>    2.4778    0.5043 </r>
       <r>    3.2600    0.0000 </r>
       <r>    3.9684    0.0000 </r>
       <r>    4.4008    0.0000 </r>
       <r>    4.4084    0.0000 </r>
       <r>    4.6090    0.0000 </r>
       <r>    6.2861    0.0000 </r>
       <r>    6.4593    0.0000 </r>
       <r>    6.5297    0.0000 </r>
       <r>    6.9224    0.0000 </r>
       <r>    6.9616    0.0000 </r>
       <r>    6.9616    0.0000 </r>
       <r>    7.4159    0.0000 </r>
       <r>    7.8148    0.0000 </r>
       <r>    7.8460    0.0000 </r>
       <r>    8.4070    0.0000 </r>
       <r>    8.4070    0.0000 </r>
       <r>    8.8358    0.0000 </r>
       <r>    8.9236    0.0000 </r>
       <r>    8.9236    0.0000 </r>
       <r>    8.9529    0.0000 </r>
       <r>    8.9529    0.0000 </r>
       <r>    9.0997    0.0000 </r>
       <r>    9.1069    0.0000 </r>
       <r>    9.2037    0.0000 </r>
       <r>    9.2037    0.0000 </r>
       <r>    9.4487    0.0000 </r>
       <r>    9.4487    0.0000 </r>
       <r>    9.8600    0.0000 </r>
       <r>    9.9011    0.0000 </r>
       <r>    9.9011    0.0000 </r>
       <r>   10.0068    0.0000 </r>
       <r>   10.0382    0.0000 </r>
       <r>   10.0769    0.0000 </r>
       <r>   10.1662    0.0000 </r>
       <r>   10.1809    0.0000 </r>
       <r>   10.2183    0.0000 </r>
       <r>   10.6932    0.0000 </r>
       <r>   10.7524    0.0000 </r>
       <r>   10.7524    0.0000 </r>
       <r>   10.7893    0.0000 </r>
       <r>   10.9089    0.0000 </r>
       <r>   11.1662    0.0000 </r>
       <r>   11.2307    0.0000 </r>
      </set>
      <set comment="kpoint 2">
       <r>  -31.0310    1.0000 </r>
       <r>  -31.0240    1.0000 </r>
       <r>  -31.0172    1.0000 </r>
       <r>  -31.0169    1.0000 </r>
       <r>  -31.0107    1.0000 </r>
       <r>  -31.0105    1.0000 </r>
       <r>  -31.0045    1.0000 </r>
       <r>  -30.9984    1.0000 </r>
       <r>  -14.9561    1.0000 </r>
       <r>  -14.7820    1.0000 </r>
       <r>  -14.7228    1.0000 </r>
       <r>  -14.6598    1.0000 </r>
       <r>  -14.5649    1.0000 </r>
       <r>  -14.4742    1.0000 </r>
       <r>  -14.3018    1.0000 </r>
       <r>  -14.2651    1.0000 </r>
       <r>  -14.0809    1.0000 </r>
       <r>  -14.0759    1.0000 </r>
       <r>  -14.0541    1.0000 </r>
       <r>  -13.9660    1.0000 </r>
       <r>  -13.9628    1.0000 </r>
       <r>  -13.9253    1.0000 </r>
       <r>  -13.8559    1.0000 </r>
       <r>  -13.7766    1.0000 </r>
       <r>  -13.7596    1.0000 </r>
       <r>  -13.6627    1.0000 </r>
       <r>  -13.2558    1.0000 </r>
       <r>  -13.2125    1.0000 </r>
       <r>  -13.1660    1.0000 </r>
       <r>  -13.0690    1.0000 </r>
       <r>  -13.0310    1.0000 </r>
       <r>  -13.0301    1.0000 </r>
       <r>  -12.9691    1.0000 </r>
       <r>  -12.9623    1.0000 </r>
       <r>  -12.9382    1.0000 </r>
       <r>  -12.9368    1.0000 </r>
       <r>  -12.8549    1.0000 </r>
       <r>  -12.8468    1.0000 </r>
       <r>  -12.8408    1.0000 </r>
       <r>  -12.8304    1.0000 </r>
       <r>  -12.8227    1.0000 </r>
       <r>  -12.8039    1.0000 </r>
       <r>  -12.7859    1.0000 </r>
       <r>  -12.7472    1.0000 </r>
       <r>  -12.6732    1.0000 </r>
       <r>  -12.5839    1.0000 </r>
       <r>  -12.5781    1.0000 </r>
       <r>  -12.5479    1.0000 </r>
       <r>  -12.4435    1.0000 </r>
       <r>  -12.3722    1.0000 </r>
       <r>   -3.2673    1.0000 </r>
       <r>   -3.2565    1.0000 </r>
       <r>   -3.1600    1.0000 </r>
       <r>   -3.1048    1.0000 </r>
       <r>   -2.8111    1.0000 </r>
       <r>   -2.7655    1.0000 </r>
       <r>   -2.5408    1.0000 </r>
       <r>   -2.5281    1.0000 </r>
       <r>   -2.4573    1.0000 </r>
       <r>   -2.4016    1.0000 </r>
       <r>   -2.3244    1.0000 </r>
       <r>   -2.0781    1.0000 </r>
       <r>   -1.9726    1.0000 </r>
       <r>   -1.9609    1.0000 </r>
       <r>   -1.9423    1.0000 </r>
       <r>   -1.9230    1.0000 </r>
       <r>   -1.8493    1.0000 </r>
       <r>   -1.8238    1.0000 </r>
       <r>   -1.6097    1.0000 </r>
       <r>   -1.5733    1.0000 </r>
       <r>   -1.5562    1.0000 </r>
       <r>   -1.5537    1.0000 </r>
       <r>   -1.5028    1.0000 </r>
       <r>   -1.4967    1.0000 </r>
       <r>   -1.4943    1.0000 </r>
       <r>   -1.4889    1.0000 </r>
       <r>   -1.4572    1.0000 </r>
       <r>   -1.4092    1.0000 </r>
       <r>   -1.4048    1.0000 </r>
       <r>   -1.3560    1.0000 </r>
       <r>   -1.2920    1.0000 </r>
       <r>   -1.2085    1.0000 </r>
       <r>   -1.0832    1.0000 </r>
       <r>   -1.0731    1.0000 </r>
       <r>   -1.0554    1.0000 </r>
       <r>   -1.0223    1.0000 </r>
       <r>   -0.9512    1.0000 </r>
       <r>   -0.9367    1.0000 </r>
       <r>   -0.8035    1.0000 </r>
       <r>   -0.7623    1.0000 </r>
       <r>   -0.7235    1.0000 </r>
       <r>   -0.7152    1.0000 </r>
       <r>   -0.6011    1.0000 </r>
       <r>   -0.5813    1.0000 </r>
       <r>   -0.5812    1.0000 </r>
       <r>   -0.4140    1.0000 </r>
       <r>   -0.2380    1.0000 </r>
       <r>   -0.2328    1.0000 </r>
       <r>   -0.1413    1.0000 </r>
       <r>    0.2596    1.0000 </r>
       <r>    0.3464    1.0000 </r>
       <r>    0.3755    1.0000 </r>
       <r>    0.4787    1.0000 </r>
       <r>    0.5299    1.0000 </r>
       <r>    0.5675    1.0000 </r>
       <r>    0.5928    1.0000 </r>
       <r>    0.6444    1.0000 </r>
       <r>    0.7028    1.0000 </r>
       <r>    0.7844    1.0000 </r>
       <r>    0.7996    1.0000 </r>
       <r>    0.8987    1.0000 </r>
       <r>    0.9662    1.0000 </r>
       <r>    1.0352    1.0000 </r>
       <r>    1.0848    1.0000 </r>
       <r>    1.1261    1.0000 </r>
       <r>    1.1591    1.0000 </r>
       <r>    1.1891    1.0000 </r>
       <r>    1.2365    1.0000 </r>
       <r>    1.2435    1.0000 </r>
       <r>    1.4002    1.0000 </r>
       <r>    1.4414    1.0000 </r>
       <r>    1.4924    1.0000 </r>
       <r>    1.5009    1.0000 </r>
       <r>    1.5201    1.0000 </r>
       <r>    1.5765    1.0000 </r>
       <r>    1.5818    1.0000 </r>
       <r>    1.6205    1.0000 </r>
       <r>    1.6588    1.0000 </r>
       <r>    1.6894    1.0000 </r>
       <r>    1.7113    1.0000 </r>
       <r>    1.7142    1.0000 </r>
       <r>    1.7425    1.0000 </r>
       <r>    1.7625    1.0000 </r>
       <r>    1.8735    1.0000 </r>
       <r>    1.9322    1.0000 </r>
       <r>    1.9475    1.0000 </r>
       <r>    2.1041    1.0000 </r>
       <r>    2.2059    1.0000 </r>
       <r>    2.2168    1.0000 </r>
       <r>    2.3432    0.9999 </r>
       <r>    2.9834    0.0000 </r>
       <r>    3.3711    0.0000 </r>
       <r>    3.9813    0.0000 </r>
       <r>    4.0068    0.0000 </r>
       <r>    4.5519    0.0000 </r>
       <r>    4.9539    0.0000 </r>
       <r>    5.7793    0.0000 </r>
       <r>    5.8820    0.0000 </r>
       <r>    6.4824    0.0000 </r>
       <r>    6.5172    0.0000 </r>
       <r>    7.3977    0.0000 </r>
       <r>    7.5825    0.0000 </r>
       <r>    7.5918    0.0000 </r>
       <r>    8.1972    0.0000 </r>
       <r>    8.2034    0.0000 </r>
       <r>    8.4622    0.0000 </r>
       <r>    8.7256    0.0000 </r>
       <r>    8.7401    0.0000 </r>
       <r>    8.7462    0.0000 </r>
       <r>    8.9186    0.0000 </r>
       <r>    8.9804    0.0000 </r>
       <r>    9.0013    0.0000 </r>
       <r>    9.0578    0.0000 </r>
       <r>    9.1209    0.0000 </r>
       <r>    9.1598    0.0000 </r>
       <r>    9.2896    0.0000 </r>
       <r>    9.3309    0.0000 </r>
       <r>    9.3963    0.0000 </r>
       <r>    9.6470    0.0000 </r>
       <r>    9.6722    0.0000 </r>
       <r>    9.9472    0.0000 </r>
       <r>    9.9961    0.0000 </r>
       <r>   10.0310    0.0000 </r>
       <r>   10.0387    0.0000 </r>
       <r>   10.0564    0.0000 </r>
       <r>   10.0803    0.0000 </r>
       <r>   10.2304    0.0000 </r>
       <r>   10.3890    0.0000 </r>
       <r>   10.4454    0.0000 </r>
       <r>   10.4472    0.0000 </r>
       <r>   10.5487    0.0000 </r>
       <r>   10.6066    0.0000 </r>
       <r>   10.6886    0.0000 </r>
       <r>   10.7481    0.0000 </r>
      </set>
      <set comment="kpoint 3">
       <r>  -31.0275    1.0000 </r>
       <r>  -31.0207    1.0000 </r>
       <r>  -31.0206    1.0000 </r>
       <r>  -31.0139    1.0000 </r>
       <r>  -31.0138    1.0000 </r>
       <r>  -31.0076    1.0000 </r>
       <r>  -31.0076    1.0000 </r>
       <r>  -31.0015    1.0000 </r>
       <r>  -14.8500    1.0000 </r>
       <r>  -14.7455    1.0000 </r>
       <r>  -14.7134    1.0000 </r>
       <r>  -14.5655    1.0000 </r>
       <r>  -14.5631    1.0000 </r>
       <r>  -14.5327    1.0000 </r>
       <r>  -14.4810    1.0000 </r>
       <r>  -14.3125    1.0000 </r>
       <r>  -14.2579    1.0000 </r>
       <r>  -14.0750    1.0000 </r>
       <r>  -14.0381    1.0000 </r>
       <r>  -13.9091    1.0000 </r>
       <r>  -13.9071    1.0000 </r>
       <r>  -13.8526    1.0000 </r>
       <r>  -13.8365    1.0000 </r>
       <r>  -13.8158    1.0000 </r>
       <r>  -13.8102    1.0000 </r>
       <r>  -13.6882    1.0000 </r>
       <r>  -13.2229    1.0000 </r>
       <r>  -13.1770    1.0000 </r>
       <r>  -13.1698    1.0000 </r>
       <r>  -13.0954    1.0000 </r>
       <r>  -13.0228    1.0000 </r>
       <r>  -13.0083    1.0000 </r>
       <r>  -12.9623    1.0000 </r>
       <r>  -12.9463    1.0000 </r>
       <r>  -12.9241    1.0000 </r>
       <r>  -12.8588    1.0000 </r>
       <r>  -12.8539    1.0000 </r>
       <r>  -12.8318    1.0000 </r>
       <r>  -12.8140    1.0000 </r>
       <r>  -12.8134    1.0000 </r>
       <r>  -12.8070    1.0000 </r>
       <r>  -12.7952    1.0000 </r>
       <r>  -12.7604    1.0000 </r>
       <r>  -12.7422    1.0000 </r>
       <r>  -12.6582    1.0000 </r>
       <r>  -12.6477    1.0000 </r>
       <r>  -12.5890    1.0000 </r>
       <r>  -12.5401    1.0000 </r>
       <r>  -12.5392    1.0000 </r>
       <r>  -12.4347    1.0000 </r>
       <r>   -3.0779    1.0000 </r>
       <r>   -3.0709    1.0000 </r>
       <r>   -2.8848    1.0000 </r>
       <r>   -2.8799    1.0000 </r>
       <r>   -2.8003    1.0000 </r>
       <r>   -2.6955    1.0000 </r>
       <r>   -2.5386    1.0000 </r>
       <r>   -2.5265    1.0000 </r>
       <r>   -2.3903    1.0000 </r>
       <r>   -2.3185    1.0000 </r>
       <r>   -2.1561    1.0000 </r>
       <r>   -1.9922    1.0000 </r>
       <r>   -1.9556    1.0000 </r>
       <r>   -1.9040    1.0000 </r>
       <r>   -1.8926    1.0000 </r>
       <r>   -1.8907    1.0000 </r>
       <r>   -1.8768    1.0000 </r>
       <r>   -1.8734    1.0000 </r>
       <r>   -1.8079    1.0000 </r>
       <r>   -1.7237    1.0000 </r>
       <r>   -1.7231    1.0000 </r>
       <r>   -1.7204    1.0000 </r>
       <r>   -1.5358    1.0000 </r>
       <r>   -1.5307    1.0000 </r>
       <r>   -1.5283    1.0000 </r>
       <r>   -1.4989    1.0000 </r>
       <r>   -1.4970    1.0000 </r>
       <r>   -1.4703    1.0000 </r>
       <r>   -1.3640    1.0000 </r>
       <r>   -1.3412    1.0000 </r>
       <r>   -1.3017    1.0000 </r>
       <r>   -1.2954    1.0000 </r>
       <r>   -1.2678    1.0000 </r>
       <r>   -1.2652    1.0000 </r>
       <r>   -1.2150    1.0000 </r>
       <r>   -1.1457    1.0000 </r>
       <r>   -1.1357    1.0000 </r>
       <r>   -1.1209    1.0000 </r>
       <r>   -1.0827    1.0000 </r>
       <r>   -1.0782    1.0000 </r>
       <r>   -1.0738    1.0000 </r>
       <r>   -1.0542    1.0000 </r>
       <r>   -0.5946    1.0000 </r>
       <r>   -0.5941    1.0000 </r>
       <r>   -0.5712    1.0000 </r>
       <r>   -0.5645    1.0000 </r>
       <r>   -0.1278    1.0000 </r>
       <r>   -0.0954    1.0000 </r>
       <r>    0.0857    1.0000 </r>
       <r>    0.3292    1.0000 </r>
       <r>    0.5335    1.0000 </r>
       <r>    0.5637    1.0000 </r>
       <r>    0.7051    1.0000 </r>
       <r>    0.7187    1.0000 </r>
       <r>    0.7191    1.0000 </r>
       <r>    0.7641    1.0000 </r>
       <r>    0.7972    1.0000 </r>
       <r>    0.8047    1.0000 </r>
       <r>    0.8962    1.0000 </r>
       <r>    0.9558    1.0000 </r>
       <r>    0.9915    1.0000 </r>
       <r>    0.9985    1.0000 </r>
       <r>    1.0295    1.0000 </r>
       <r>    1.0669    1.0000 </r>
       <r>    1.1041    1.0000 </r>
       <r>    1.1067    1.0000 </r>
       <r>    1.1421    1.0000 </r>
       <r>    1.1806    1.0000 </r>
       <r>    1.2325    1.0000 </r>
       <r>    1.2488    1.0000 </r>
       <r>    1.3076    1.0000 </r>
       <r>    1.3790    1.0000 </r>
       <r>    1.3922    1.0000 </r>
       <r>    1.4493    1.0000 </r>
       <r>    1.4973    1.0000 </r>
       <r>    1.4994    1.0000 </r>
       <r>    1.5527    1.0000 </r>
       <r>    1.6021    1.0000 </r>
       <r>    1.6722    1.0000 </r>
       <r>    1.7356    1.0000 </r>
       <r>    1.7422    1.0000 </r>
       <r>    1.7768    1.0000 </r>
       <r>    1.9094    1.0000 </r>
       <r>    2.0044    1.0000 </r>
       <r>    2.1811    1.0000 </r>
       <r>    2.1952    1.0000 </r>
       <r>    2.2277    1.0000 </r>
       <r>    2.2370    1.0000 </r>
       <r>    2.2544    1.0000 </r>
       <r>    2.3775    0.9978 </r>
       <r>    3.2028    0.0000 </r>
       <r>    3.3741    0.0000 </r>
       <r>    3.7447    0.0000 </r>
       <r>    3.7662    0.0000 </r>
       <r>    4.9116    0.0000 </r>
       <r>    5.2136    0.0000 </r>
       <r>    5.8177    0.0000 </r>
       <r>    5.8798    0.0000 </r>
       <r>    5.9582    0.0000 </r>
       <r>    6.1897    0.0000 </r>
       <r>    7.5337    0.0000 </r>
       <r>    7.8504    0.0000 </r>
       <r>    8.0250    0.0000 </r>
       <r>    8.2879    0.0000 </r>
       <r>    8.4256    0.0000 </r>
       <r>    8.5583    0.0000 </r>
       <r>    8.6015    0.0000 </r>
       <r>    8.7036    0.0000 </r>
       <r>    8.7312    0.0000 </r>
       <r>    8.7367    0.0000 </r>
       <r>    8.9275    0.0000 </r>
       <r>    9.0222    0.0000 </r>
       <r>    9.0427    0.0000 </r>
       <r>    9.0792    0.0000 </r>
       <r>    9.1184    0.0000 </r>
       <r>    9.2505    0.0000 </r>
       <r>    9.2850    0.0000 </r>
       <r>    9.5504    0.0000 </r>
       <r>    9.5544    0.0000 </r>
       <r>    9.6440    0.0000 </r>
       <r>    9.7495    0.0000 </r>
       <r>    9.8061    0.0000 </r>
       <r>    9.9122    0.0000 </r>
       <r>    9.9482    0.0000 </r>
       <r>   10.2200    0.0000 </r>
       <r>   10.2463    0.0000 </r>
       <r>   10.2469    0.0000 </r>
       <r>   10.3008    0.0000 </r>
       <r>   10.3735    0.0000 </r>
       <r>   10.3773    0.0000 </r>
       <r>   10.3879    0.0000 </r>
       <r>   10.3965    0.0000 </r>
       <r>   10.4305    0.0000 </r>
       <r>   10.5245    0.0000 </r>
      </set>
      <set comment="kpoint 4">
       <r>  -31.0309    1.0000 </r>
       <r>  -31.0237    1.0000 </r>
       <r>  -31.0172    1.0000 </r>
       <r>  -31.0172    1.0000 </r>
       <r>  -31.0108    1.0000 </r>
       <r>  -31.0108    1.0000 </r>
       <r>  -31.0043    1.0000 </r>
       <r>  -30.9983    1.0000 </r>
       <r>  -14.9885    1.0000 </r>
       <r>  -14.8180    1.0000 </r>
       <r>  -14.7211    1.0000 </r>
       <r>  -14.5173    1.0000 </r>
       <r>  -14.4345    1.0000 </r>
       <r>  -14.3072    1.0000 </r>
       <r>  -14.3072    1.0000 </r>
       <r>  -14.3016    1.0000 </r>
       <r>  -14.2615    1.0000 </r>
       <r>  -14.2615    1.0000 </r>
       <r>  -14.0800    1.0000 </r>
       <r>  -14.0800    1.0000 </r>
       <r>  -14.0601    1.0000 </r>
       <r>  -14.0601    1.0000 </r>
       <r>  -13.8313    1.0000 </r>
       <r>  -13.7020    1.0000 </r>
       <r>  -13.6403    1.0000 </r>
       <r>  -13.6234    1.0000 </r>
       <r>  -13.1043    1.0000 </r>
       <r>  -13.0576    1.0000 </r>
       <r>  -13.0530    1.0000 </r>
       <r>  -13.0530    1.0000 </r>
       <r>  -13.0402    1.0000 </r>
       <r>  -13.0277    1.0000 </r>
       <r>  -13.0277    1.0000 </r>
       <r>  -12.9646    1.0000 </r>
       <r>  -12.9498    1.0000 </r>
       <r>  -12.9498    1.0000 </r>
       <r>  -12.9346    1.0000 </r>
       <r>  -12.9170    1.0000 </r>
       <r>  -12.8405    1.0000 </r>
       <r>  -12.8340    1.0000 </r>
       <r>  -12.7765    1.0000 </r>
       <r>  -12.7087    1.0000 </r>
       <r>  -12.7087    1.0000 </r>
       <r>  -12.7074    1.0000 </r>
       <r>  -12.7074    1.0000 </r>
       <r>  -12.6695    1.0000 </r>
       <r>  -12.6065    1.0000 </r>
       <r>  -12.5376    1.0000 </r>
       <r>  -12.5376    1.0000 </r>
       <r>  -12.4299    1.0000 </r>
       <r>   -3.4021    1.0000 </r>
       <r>   -3.3995    1.0000 </r>
       <r>   -3.3011    1.0000 </r>
       <r>   -3.2526    1.0000 </r>
       <r>   -2.9575    1.0000 </r>
       <r>   -2.9545    1.0000 </r>
       <r>   -2.5648    1.0000 </r>
       <r>   -2.5625    1.0000 </r>
       <r>   -2.5273    1.0000 </r>
       <r>   -2.5150    1.0000 </r>
       <r>   -2.4030    1.0000 </r>
       <r>   -2.2327    1.0000 </r>
       <r>   -1.9490    1.0000 </r>
       <r>   -1.9490    1.0000 </r>
       <r>   -1.8515    1.0000 </r>
       <r>   -1.8136    1.0000 </r>
       <r>   -1.8136    1.0000 </r>
       <r>   -1.8050    1.0000 </r>
       <r>   -1.6481    1.0000 </r>
       <r>   -1.6481    1.0000 </r>
       <r>   -1.6076    1.0000 </r>
       <r>   -1.6076    1.0000 </r>
       <r>   -1.5443    1.0000 </r>
       <r>   -1.4846    1.0000 </r>
       <r>   -1.2068    1.0000 </r>
       <r>   -1.1932    1.0000 </r>
       <r>   -1.0431    1.0000 </r>
       <r>   -1.0431    1.0000 </r>
       <r>   -1.0014    1.0000 </r>
       <r>   -1.0014    1.0000 </r>
       <r>   -0.9681    1.0000 </r>
       <r>   -0.9681    1.0000 </r>
       <r>   -0.9627    1.0000 </r>
       <r>   -0.9627    1.0000 </r>
       <r>   -0.9518    1.0000 </r>
       <r>   -0.9518    1.0000 </r>
       <r>   -0.8856    1.0000 </r>
       <r>   -0.8856    1.0000 </r>
       <r>   -0.8454    1.0000 </r>
       <r>   -0.7760    1.0000 </r>
       <r>   -0.6552    1.0000 </r>
       <r>   -0.5769    1.0000 </r>
       <r>   -0.5648    1.0000 </r>
       <r>   -0.5301    1.0000 </r>
       <r>   -0.4658    1.0000 </r>
       <r>   -0.4658    1.0000 </r>
       <r>   -0.3427    1.0000 </r>
       <r>   -0.3427    1.0000 </r>
       <r>   -0.0740    1.0000 </r>
       <r>   -0.0439    1.0000 </r>
       <r>    0.2177    1.0000 </r>
       <r>    0.2197    1.0000 </r>
       <r>    0.3106    1.0000 </r>
       <r>    0.4124    1.0000 </r>
       <r>    0.4321    1.0000 </r>
       <r>    0.5854    1.0000 </r>
       <r>    0.5854    1.0000 </r>
       <r>    0.6832    1.0000 </r>
       <r>    0.7894    1.0000 </r>
       <r>    0.8217    1.0000 </r>
       <r>    0.8317    1.0000 </r>
       <r>    0.8404    1.0000 </r>
       <r>    0.8404    1.0000 </r>
       <r>    0.9613    1.0000 </r>
       <r>    1.0587    1.0000 </r>
       <r>    1.0785    1.0000 </r>
       <r>    1.0785    1.0000 </r>
       <r>    1.1954    1.0000 </r>
       <r>    1.2587    1.0000 </r>
       <r>    1.2587    1.0000 </r>
       <r>    1.4383    1.0000 </r>
       <r>    1.4383    1.0000 </r>
       <r>    1.4720    1.0000 </r>
       <r>    1.5143    1.0000 </r>
       <r>    1.5377    1.0000 </r>
       <r>    1.5377    1.0000 </r>
       <r>    1.5730    1.0000 </r>
       <r>    1.6442    1.0000 </r>
       <r>    1.6481    1.0000 </r>
       <r>    1.6481    1.0000 </r>
       <r>    1.7175    1.0000 </r>
       <r>    1.7175    1.0000 </r>
       <r>    1.7359    1.0000 </r>
       <r>    1.8339    1.0000 </r>
       <r>    1.9845    1.0000 </r>
       <r>    1.9845    1.0000 </r>
       <r>    1.9920    1.0000 </r>
       <r>    1.9920    1.0000 </r>
       <r>    2.4118    0.9697 </r>
       <r>    2.4556    0.7380 </r>
       <r>    2.6136    0.0001 </r>
       <r>    3.0118    0.0000 </r>
       <r>    4.4027    0.0000 </r>
       <r>    4.4066    0.0000 </r>
       <r>    4.4556    0.0000 </r>
       <r>    5.0365    0.0000 </r>
       <r>    5.6473    0.0000 </r>
       <r>    6.0892    0.0000 </r>
       <r>    6.6108    0.0000 </r>
       <r>    6.8405    0.0000 </r>
       <r>    7.3136    0.0000 </r>
       <r>    7.3136    0.0000 </r>
       <r>    7.8404    0.0000 </r>
       <r>    8.0462    0.0000 </r>
       <r>    8.0462    0.0000 </r>
       <r>    8.1971    0.0000 </r>
       <r>    8.3391    0.0000 </r>
       <r>    8.6796    0.0000 </r>
       <r>    8.9141    0.0000 </r>
       <r>    8.9141    0.0000 </r>
       <r>    8.9724    0.0000 </r>
       <r>    8.9724    0.0000 </r>
       <r>    9.0589    0.0000 </r>
       <r>    9.3380    0.0000 </r>
       <r>    9.4435    0.0000 </r>
       <r>    9.4435    0.0000 </r>
       <r>    9.6356    0.0000 </r>
       <r>    9.8267    0.0000 </r>
       <r>    9.8466    0.0000 </r>
       <r>    9.8466    0.0000 </r>
       <r>    9.9121    0.0000 </r>
       <r>   10.0200    0.0000 </r>
       <r>   10.1502    0.0000 </r>
       <r>   10.1502    0.0000 </r>
       <r>   10.2190    0.0000 </r>
       <r>   10.2190    0.0000 </r>
       <r>   10.3151    0.0000 </r>
       <r>   10.4281    0.0000 </r>
       <r>   10.4382    0.0000 </r>
       <r>   10.4752    0.0000 </r>
       <r>   10.5995    0.0000 </r>
       <r>   10.8198    0.0000 </r>
       <r>   10.8725    0.0000 </r>
       <r>   10.8760    0.0000 </r>
      </set>
      <set comment="kpoint 5">
       <r>  -31.0275    1.0000 </r>
       <r>  -31.0207    1.0000 </r>
       <r>  -31.0204    1.0000 </r>
       <r>  -31.0140    1.0000 </r>
       <r>  -31.0140    1.0000 </r>
       <r>  -31.0078    1.0000 </r>
       <r>  -31.0074    1.0000 </r>
       <r>  -31.0014    1.0000 </r>
       <r>  -14.9008    1.0000 </r>
       <r>  -14.7888    1.0000 </r>
       <r>  -14.7052    1.0000 </r>
       <r>  -14.6240    1.0000 </r>
       <r>  -14.5083    1.0000 </r>
       <r>  -14.4184    1.0000 </r>
       <r>  -14.2805    1.0000 </r>
       <r>  -14.2465    1.0000 </r>
       <r>  -14.2156    1.0000 </r>
       <r>  -14.1551    1.0000 </r>
       <r>  -14.1239    1.0000 </r>
       <r>  -14.1222    1.0000 </r>
       <r>  -14.0129    1.0000 </r>
       <r>  -13.9958    1.0000 </r>
       <r>  -13.8093    1.0000 </r>
       <r>  -13.7646    1.0000 </r>
       <r>  -13.7225    1.0000 </r>
       <r>  -13.6690    1.0000 </r>
       <r>  -13.1082    1.0000 </r>
       <r>  -13.0917    1.0000 </r>
       <r>  -13.0719    1.0000 </r>
       <r>  -13.0677    1.0000 </r>
       <r>  -13.0481    1.0000 </r>
       <r>  -13.0290    1.0000 </r>
       <r>  -12.9777    1.0000 </r>
       <r>  -12.9666    1.0000 </r>
       <r>  -12.9472    1.0000 </r>
       <r>  -12.9432    1.0000 </r>
       <r>  -12.9227    1.0000 </r>
       <r>  -12.9063    1.0000 </r>
       <r>  -12.8556    1.0000 </r>
       <r>  -12.8160    1.0000 </r>
       <r>  -12.7662    1.0000 </r>
       <r>  -12.6951    1.0000 </r>
       <r>  -12.6787    1.0000 </r>
       <r>  -12.6769    1.0000 </r>
       <r>  -12.6713    1.0000 </r>
       <r>  -12.6628    1.0000 </r>
       <r>  -12.6143    1.0000 </r>
       <r>  -12.5952    1.0000 </r>
       <r>  -12.5161    1.0000 </r>
       <r>  -12.4613    1.0000 </r>
       <r>   -3.2649    1.0000 </r>
       <r>   -3.2596    1.0000 </r>
       <r>   -3.1476    1.0000 </r>
       <r>   -3.1197    1.0000 </r>
       <r>   -2.8031    1.0000 </r>
       <r>   -2.7803    1.0000 </r>
       <r>   -2.5637    1.0000 </r>
       <r>   -2.5627    1.0000 </r>
       <r>   -2.4522    1.0000 </r>
       <r>   -2.4302    1.0000 </r>
       <r>   -2.2629    1.0000 </r>
       <r>   -2.1425    1.0000 </r>
       <r>   -1.9678    1.0000 </r>
       <r>   -1.9491    1.0000 </r>
       <r>   -1.8843    1.0000 </r>
       <r>   -1.8678    1.0000 </r>
       <r>   -1.8269    1.0000 </r>
       <r>   -1.8086    1.0000 </r>
       <r>   -1.6366    1.0000 </r>
       <r>   -1.6176    1.0000 </r>
       <r>   -1.5781    1.0000 </r>
       <r>   -1.5557    1.0000 </r>
       <r>   -1.5490    1.0000 </r>
       <r>   -1.5079    1.0000 </r>
       <r>   -1.4869    1.0000 </r>
       <r>   -1.4856    1.0000 </r>
       <r>   -1.4478    1.0000 </r>
       <r>   -1.4212    1.0000 </r>
       <r>   -1.3930    1.0000 </r>
       <r>   -1.3663    1.0000 </r>
       <r>   -1.2231    1.0000 </r>
       <r>   -1.1726    1.0000 </r>
       <r>   -1.1165    1.0000 </r>
       <r>   -1.1122    1.0000 </r>
       <r>   -1.0302    1.0000 </r>
       <r>   -1.0097    1.0000 </r>
       <r>   -0.9666    1.0000 </r>
       <r>   -0.9636    1.0000 </r>
       <r>   -0.7221    1.0000 </r>
       <r>   -0.7204    1.0000 </r>
       <r>   -0.6540    1.0000 </r>
       <r>   -0.6506    1.0000 </r>
       <r>   -0.5272    1.0000 </r>
       <r>   -0.4974    1.0000 </r>
       <r>   -0.4862    1.0000 </r>
       <r>   -0.4465    1.0000 </r>
       <r>   -0.4443    1.0000 </r>
       <r>   -0.3289    1.0000 </r>
       <r>   -0.0019    1.0000 </r>
       <r>    0.0389    1.0000 </r>
       <r>    0.3062    1.0000 </r>
       <r>    0.3548    1.0000 </r>
       <r>    0.4933    1.0000 </r>
       <r>    0.5290    1.0000 </r>
       <r>    0.6149    1.0000 </r>
       <r>    0.7007    1.0000 </r>
       <r>    0.7061    1.0000 </r>
       <r>    0.7377    1.0000 </r>
       <r>    0.7983    1.0000 </r>
       <r>    0.8624    1.0000 </r>
       <r>    0.9092    1.0000 </r>
       <r>    0.9175    1.0000 </r>
       <r>    1.0152    1.0000 </r>
       <r>    1.0287    1.0000 </r>
       <r>    1.1436    1.0000 </r>
       <r>    1.1576    1.0000 </r>
       <r>    1.2056    1.0000 </r>
       <r>    1.2436    1.0000 </r>
       <r>    1.2499    1.0000 </r>
       <r>    1.2623    1.0000 </r>
       <r>    1.3306    1.0000 </r>
       <r>    1.3523    1.0000 </r>
       <r>    1.4586    1.0000 </r>
       <r>    1.4968    1.0000 </r>
       <r>    1.5561    1.0000 </r>
       <r>    1.5565    1.0000 </r>
       <r>    1.5886    1.0000 </r>
       <r>    1.6186    1.0000 </r>
       <r>    1.6914    1.0000 </r>
       <r>    1.6996    1.0000 </r>
       <r>    1.7439    1.0000 </r>
       <r>    1.7981    1.0000 </r>
       <r>    1.8219    1.0000 </r>
       <r>    1.8246    1.0000 </r>
       <r>    1.9847    1.0000 </r>
       <r>    2.0034    1.0000 </r>
       <r>    2.1181    1.0000 </r>
       <r>    2.2230    1.0000 </r>
       <r>    2.2311    1.0000 </r>
       <r>    2.2345    1.0000 </r>
       <r>    3.0527    0.0000 </r>
       <r>    3.2362    0.0000 </r>
       <r>    3.9917    0.0000 </r>
       <r>    3.9981    0.0000 </r>
       <r>    4.8912    0.0000 </r>
       <r>    5.2916    0.0000 </r>
       <r>    5.6982    0.0000 </r>
       <r>    6.0317    0.0000 </r>
       <r>    6.1258    0.0000 </r>
       <r>    6.1729    0.0000 </r>
       <r>    7.6657    0.0000 </r>
       <r>    7.7899    0.0000 </r>
       <r>    7.9242    0.0000 </r>
       <r>    8.2769    0.0000 </r>
       <r>    8.3696    0.0000 </r>
       <r>    8.5013    0.0000 </r>
       <r>    8.5202    0.0000 </r>
       <r>    8.6104    0.0000 </r>
       <r>    8.6745    0.0000 </r>
       <r>    8.6773    0.0000 </r>
       <r>    8.9264    0.0000 </r>
       <r>    8.9305    0.0000 </r>
       <r>    9.1004    0.0000 </r>
       <r>    9.2448    0.0000 </r>
       <r>    9.2487    0.0000 </r>
       <r>    9.2611    0.0000 </r>
       <r>    9.3733    0.0000 </r>
       <r>    9.3792    0.0000 </r>
       <r>    9.8052    0.0000 </r>
       <r>    9.8163    0.0000 </r>
       <r>    9.8888    0.0000 </r>
       <r>    9.9111    0.0000 </r>
       <r>    9.9290    0.0000 </r>
       <r>   10.0712    0.0000 </r>
       <r>   10.2091    0.0000 </r>
       <r>   10.2205    0.0000 </r>
       <r>   10.2645    0.0000 </r>
       <r>   10.3332    0.0000 </r>
       <r>   10.3472    0.0000 </r>
       <r>   10.3704    0.0000 </r>
       <r>   10.5402    0.0000 </r>
       <r>   10.6550    0.0000 </r>
       <r>   10.7377    0.0000 </r>
       <r>   10.9036    0.0000 </r>
      </set>
      <set comment="kpoint 6">
       <r>  -31.0241    1.0000 </r>
       <r>  -31.0175    1.0000 </r>
       <r>  -31.0173    1.0000 </r>
       <r>  -31.0172    1.0000 </r>
       <r>  -31.0111    1.0000 </r>
       <r>  -31.0108    1.0000 </r>
       <r>  -31.0107    1.0000 </r>
       <r>  -31.0046    1.0000 </r>
       <r>  -14.8229    1.0000 </r>
       <r>  -14.7575    1.0000 </r>
       <r>  -14.6725    1.0000 </r>
       <r>  -14.5628    1.0000 </r>
       <r>  -14.5382    1.0000 </r>
       <r>  -14.5203    1.0000 </r>
       <r>  -14.4464    1.0000 </r>
       <r>  -14.3537    1.0000 </r>
       <r>  -14.1803    1.0000 </r>
       <r>  -14.0610    1.0000 </r>
       <r>  -14.0428    1.0000 </r>
       <r>  -14.0122    1.0000 </r>
       <r>  -13.9824    1.0000 </r>
       <r>  -13.9597    1.0000 </r>
       <r>  -13.8625    1.0000 </r>
       <r>  -13.8111    1.0000 </r>
       <r>  -13.7894    1.0000 </r>
       <r>  -13.7549    1.0000 </r>
       <r>  -13.1426    1.0000 </r>
       <r>  -13.1258    1.0000 </r>
       <r>  -13.0540    1.0000 </r>
       <r>  -13.0471    1.0000 </r>
       <r>  -13.0459    1.0000 </r>
       <r>  -13.0394    1.0000 </r>
       <r>  -12.9899    1.0000 </r>
       <r>  -12.9699    1.0000 </r>
       <r>  -12.9432    1.0000 </r>
       <r>  -12.9347    1.0000 </r>
       <r>  -12.9041    1.0000 </r>
       <r>  -12.8731    1.0000 </r>
       <r>  -12.8565    1.0000 </r>
       <r>  -12.7712    1.0000 </r>
       <r>  -12.7388    1.0000 </r>
       <r>  -12.7129    1.0000 </r>
       <r>  -12.6813    1.0000 </r>
       <r>  -12.6734    1.0000 </r>
       <r>  -12.6710    1.0000 </r>
       <r>  -12.6280    1.0000 </r>
       <r>  -12.6109    1.0000 </r>
       <r>  -12.5688    1.0000 </r>
[...]
       <r>     6.0599     7.3227   148.5256 </r>
       <r>     6.2149     5.2308   149.3363 </r>
       <r>     6.3698     0.6979   149.4444 </r>
       <r>     6.5248     1.7465   149.7151 </r>
       <r>     6.6798     1.1091   149.8870 </r>
       <r>     6.8348     0.2221   149.9214 </r>
       <r>     6.9898     0.8765   150.0573 </r>
       <r>     7.1448     0.1084   150.0741 </r>
       <r>     7.2998     0.3353   150.1260 </r>
       <r>     7.4547     1.7446   150.3964 </r>
       <r>     7.6097     3.9760   151.0126 </r>
       <r>     7.7647     3.2730   151.5199 </r>
       <r>     7.9197     4.1619   152.1649 </r>
       <r>     8.0747     2.9880   152.6280 </r>
       <r>     8.2297     6.8348   153.6873 </r>
       <r>     8.3846     8.0657   154.9373 </r>
       <r>     8.5396     8.6483   156.2777 </r>
       <r>     8.6946    13.7346   158.4063 </r>
       <r>     8.8496    13.3393   160.4737 </r>
       <r>     9.0046    10.8647   162.1575 </r>
       <r>     9.1596    10.6369   163.8061 </r>
       <r>     9.3145    12.3338   165.7176 </r>
       <r>     9.4695    12.8737   167.7128 </r>
       <r>     9.6245     5.0323   168.4927 </r>
       <r>     9.7795     9.5895   169.9789 </r>
       <r>     9.9345    12.1267   171.8584 </r>
       <r>    10.0895    14.8455   174.1592 </r>
       <r>    10.2444    10.5771   175.7985 </r>
       <r>    10.3994    19.8922   178.8814 </r>
       <r>    10.5544    13.5335   180.9789 </r>
       <r>    10.7094    10.7086   182.6386 </r>
       <r>    10.8644     5.7976   183.5371 </r>
       <r>    11.0194     2.5074   183.9257 </r>
       <r>    11.1743     0.1556   183.9499 </r>
       <r>    11.3293     0.3229   183.9999 </r>
       <r>    11.4843     0.0006   184.0000 </r>
       <r>    11.6393     0.0000   184.0000 </r>
       <r>    11.7943     0.0000   184.0000 </r>
       <r>    11.9493     0.0000   184.0000 </r>
       <r>    12.1042     0.0000   184.0000 </r>
       <r>    12.2592     0.0000   184.0000 </r>
       <r>    12.4142     0.0000   184.0000 </r>
       <r>    12.5692     0.0000   184.0000 </r>
       <r>    12.7242     0.0000   184.0000 </r>
       <r>    12.8792     0.0000   184.0000 </r>
       <r>    13.0341     0.0000   184.0000 </r>
       <r>    13.1891     0.0000   184.0000 </r>
       <r>    13.3441     0.0000   184.0000 </r>
      </set>
      <set comment="spin 2">
       <r>   -33.1510     0.0000     0.0000 </r>
       <r>   -32.9960     0.0000     0.0000 </r>
       <r>   -32.8410     0.0000     0.0000 </r>
       <r>   -32.6860     0.0000     0.0000 </r>
       <r>   -32.5310     0.0000     0.0000 </r>
       <r>   -32.3760     0.0000     0.0000 </r>
       <r>   -32.2211     0.0000     0.0000 </r>
       <r>   -32.0661     0.0000     0.0000 </r>
       <r>   -31.9111     0.0000     0.0000 </r>
       <r>   -31.7561     0.0000     0.0000 </r>
       <r>   -31.6011     0.0000     0.0000 </r>
       <r>   -31.4461     0.0000     0.0000 </r>
       <r>   -31.2912     0.0000     0.0000 </r>
       <r>   -31.1362     0.0267     0.0041 </r>
       <r>   -30.9812    43.3458     6.7220 </r>
       <r>   -30.8262     8.2459     8.0000 </r>
       <r>   -30.6712     0.0000     8.0000 </r>
       <r>   -30.5162     0.0000     8.0000 </r>
       <r>   -30.3613     0.0000     8.0000 </r>
       <r>   -30.2063     0.0000     8.0000 </r>
       <r>   -30.0513     0.0000     8.0000 </r>
       <r>   -29.8963     0.0000     8.0000 </r>
       <r>   -29.7413     0.0000     8.0000 </r>
       <r>   -29.5863     0.0000     8.0000 </r>
       <r>   -29.4314     0.0000     8.0000 </r>
       <r>   -29.2764     0.0000     8.0000 </r>
       <r>   -29.1214     0.0000     8.0000 </r>
       <r>   -28.9664     0.0000     8.0000 </r>
       <r>   -28.8114     0.0000     8.0000 </r>
       <r>   -28.6564     0.0000     8.0000 </r>
       <r>   -28.5015     0.0000     8.0000 </r>
       <r>   -28.3465     0.0000     8.0000 </r>
       <r>   -28.1915     0.0000     8.0000 </r>
       <r>   -28.0365     0.0000     8.0000 </r>
       <r>   -27.8815     0.0000     8.0000 </r>
       <r>   -27.7265     0.0000     8.0000 </r>
       <r>   -27.5716     0.0000     8.0000 </r>
       <r>   -27.4166     0.0000     8.0000 </r>
       <r>   -27.2616     0.0000     8.0000 </r>
       <r>   -27.1066     0.0000     8.0000 </r>
       <r>   -26.9516     0.0000     8.0000 </r>
       <r>   -26.7966     0.0000     8.0000 </r>
       <r>   -26.6417     0.0000     8.0000 </r>
       <r>   -26.4867     0.0000     8.0000 </r>
       <r>   -26.3317     0.0000     8.0000 </r>
       <r>   -26.1767     0.0000     8.0000 </r>
       <r>   -26.0217     0.0000     8.0000 </r>
       <r>   -25.8667     0.0000     8.0000 </r>
       <r>   -25.7117     0.0000     8.0000 </r>
       <r>   -25.5568     0.0000     8.0000 </r>
       <r>   -25.4018     0.0000     8.0000 </r>
       <r>   -25.2468     0.0000     8.0000 </r>
       <r>   -25.0918     0.0000     8.0000 </r>
       <r>   -24.9368     0.0000     8.0000 </r>
       <r>   -24.7818     0.0000     8.0000 </r>
       <r>   -24.6269     0.0000     8.0000 </r>
       <r>   -24.4719     0.0000     8.0000 </r>
       <r>   -24.3169     0.0000     8.0000 </r>
       <r>   -24.1619     0.0000     8.0000 </r>
       <r>   -24.0069     0.0000     8.0000 </r>
       <r>   -23.8519     0.0000     8.0000 </r>
       <r>   -23.6970     0.0000     8.0000 </r>
       <r>   -23.5420     0.0000     8.0000 </r>
       <r>   -23.3870     0.0000     8.0000 </r>
       <r>   -23.2320     0.0000     8.0000 </r>
       <r>   -23.0770     0.0000     8.0000 </r>
       <r>   -22.9220     0.0000     8.0000 </r>
       <r>   -22.7671     0.0000     8.0000 </r>
       <r>   -22.6121     0.0000     8.0000 </r>
       <r>   -22.4571     0.0000     8.0000 </r>
       <r>   -22.3021     0.0000     8.0000 </r>
       <r>   -22.1471     0.0000     8.0000 </r>
       <r>   -21.9921     0.0000     8.0000 </r>
       <r>   -21.8372     0.0000     8.0000 </r>
       <r>   -21.6822     0.0000     8.0000 </r>
       <r>   -21.5272     0.0000     8.0000 </r>
       <r>   -21.3722     0.0000     8.0000 </r>
       <r>   -21.2172     0.0000     8.0000 </r>
       <r>   -21.0622     0.0000     8.0000 </r>
       <r>   -20.9073     0.0000     8.0000 </r>
       <r>   -20.7523     0.0000     8.0000 </r>
       <r>   -20.5973     0.0000     8.0000 </r>
       <r>   -20.4423     0.0000     8.0000 </r>
       <r>   -20.2873     0.0000     8.0000 </r>
       <r>   -20.1323     0.0000     8.0000 </r>
       <r>   -19.9774     0.0000     8.0000 </r>
       <r>   -19.8224     0.0000     8.0000 </r>
       <r>   -19.6674     0.0000     8.0000 </r>
       <r>   -19.5124     0.0000     8.0000 </r>
       <r>   -19.3574     0.0000     8.0000 </r>
       <r>   -19.2024     0.0000     8.0000 </r>
       <r>   -19.0475     0.0000     8.0000 </r>
       <r>   -18.8925     0.0000     8.0000 </r>
       <r>   -18.7375     0.0000     8.0000 </r>
       <r>   -18.5825     0.0000     8.0000 </r>
       <r>   -18.4275     0.0000     8.0000 </r>
       <r>   -18.2725     0.0000     8.0000 </r>
       <r>   -18.1176     0.0000     8.0000 </r>
       <r>   -17.9626     0.0000     8.0000 </r>
       <r>   -17.8076     0.0000     8.0000 </r>
       <r>   -17.6526     0.0000     8.0000 </r>
       <r>   -17.4976     0.0000     8.0000 </r>
       <r>   -17.3426     0.0000     8.0000 </r>
       <r>   -17.1877     0.0000     8.0000 </r>
       <r>   -17.0327     0.0000     8.0000 </r>
       <r>   -16.8777     0.0000     8.0000 </r>
       <r>   -16.7227     0.0000     8.0000 </r>
       <r>   -16.5677     0.0000     8.0000 </r>
       <r>   -16.4127     0.0000     8.0000 </r>
       <r>   -16.2578     0.0000     8.0000 </r>
       <r>   -16.1028     0.0000     8.0000 </r>
       <r>   -15.9478     0.0000     8.0000 </r>
       <r>   -15.7928     0.0000     8.0000 </r>
       <r>   -15.6378     0.0000     8.0000 </r>
       <r>   -15.4828     0.0000     8.0000 </r>
       <r>   -15.3278     0.0000     8.0000 </r>
       <r>   -15.1729     0.0000     8.0000 </r>
       <r>   -15.0179     0.0005     8.0001 </r>
       <r>   -14.8629     0.3295     8.0511 </r>
       <r>   -14.7079     3.1282     8.5360 </r>
       <r>   -14.5529     6.2075     9.4980 </r>
       <r>   -14.3979    16.4069    12.0408 </r>
       <r>   -14.2430    13.5686    14.1437 </r>
       <r>   -14.0880    12.1151    16.0214 </r>
       <r>   -13.9330    11.7907    17.8487 </r>
       <r>   -13.7780    17.8917    20.6216 </r>
       <r>   -13.6230    11.2476    22.3648 </r>
       <r>   -13.4680    10.0721    23.9258 </r>
       <r>   -13.3131    10.5527    25.5613 </r>
       <r>   -13.1581     8.6601    26.9035 </r>
       <r>   -13.0031    30.5838    31.6435 </r>
       <r>   -12.8481    34.6250    37.0098 </r>
       <r>   -12.6931    27.4290    41.2608 </r>
       <r>   -12.5381    27.8743    45.5809 </r>
       <r>   -12.3832    25.3108    49.5037 </r>
       <r>   -12.2282     3.1819    49.9968 </r>
       <r>   -12.0732     0.0206    50.0000 </r>
       <r>   -11.9182     0.0000    50.0000 </r>
       <r>   -11.7632     0.0000    50.0000 </r>
       <r>   -11.6082     0.0000    50.0000 </r>
       <r>   -11.4533     0.0000    50.0000 </r>
       <r>   -11.2983     0.0000    50.0000 </r>
       <r>   -11.1433     0.0000    50.0000 </r>
       <r>   -10.9883     0.0000    50.0000 </r>
       <r>   -10.8333     0.0000    50.0000 </r>
       <r>   -10.6783     0.0000    50.0000 </r>
       <r>   -10.5234     0.0000    50.0000 </r>
       <r>   -10.3684     0.0000    50.0000 </r>
       <r>   -10.2134     0.0000    50.0000 </r>
       <r>   -10.0584     0.0000    50.0000 </r>
       <r>    -9.9034     0.0000    50.0000 </r>
       <r>    -9.7484     0.0000    50.0000 </r>
       <r>    -9.5935     0.0000    50.0000 </r>
       <r>    -9.4385     0.0000    50.0000 </r>
       <r>    -9.2835     0.0000    50.0000 </r>
       <r>    -9.1285     0.0000    50.0000 </r>
       <r>    -8.9735     0.0000    50.0000 </r>
       <r>    -8.8185     0.0000    50.0000 </r>
       <r>    -8.6636     0.0000    50.0000 </r>
       <r>    -8.5086     0.0000    50.0000 </r>
       <r>    -8.3536     0.0000    50.0000 </r>
       <r>    -8.1986     0.0000    50.0000 </r>
       <r>    -8.0436     0.0000    50.0000 </r>
       <r>    -7.8886     0.0000    50.0000 </r>
       <r>    -7.7337     0.0000    50.0000 </r>
       <r>    -7.5787     0.0000    50.0000 </r>
       <r>    -7.4237     0.0000    50.0000 </r>
       <r>    -7.2687     0.0000    50.0000 </r>
       <r>    -7.1137     0.0000    50.0000 </r>
       <r>    -6.9587     0.0000    50.0000 </r>
       <r>    -6.8038     0.0000    50.0000 </r>
       <r>    -6.6488     0.0000    50.0000 </r>
       <r>    -6.4938     0.0000    50.0000 </r>
       <r>    -6.3388     0.0000    50.0000 </r>
       <r>    -6.1838     0.0000    50.0000 </r>
       <r>    -6.0288     0.0000    50.0000 </r>
       <r>    -5.8739     0.0000    50.0000 </r>
       <r>    -5.7189     0.0000    50.0000 </r>
       <r>    -5.5639     0.0000    50.0000 </r>
       <r>    -5.4089     0.0000    50.0000 </r>
       <r>    -5.2539     0.0000    50.0000 </r>
       <r>    -5.0989     0.0000    50.0000 </r>
       <r>    -4.9440     0.0000    50.0000 </r>
       <r>    -4.7890     0.0000    50.0000 </r>
       <r>    -4.6340     0.0000    50.0000 </r>
       <r>    -4.4790     0.0000    50.0000 </r>
       <r>    -4.3240     0.0000    50.0000 </r>
       <r>    -4.1690     0.0000    50.0000 </r>
       <r>    -4.0140     0.0000    50.0000 </r>
       <r>    -3.8591     0.0000    50.0000 </r>
       <r>    -3.7041     0.0000    50.0000 </r>
       <r>    -3.5491     0.0000    50.0000 </r>
       <r>    -3.3941     0.0000    50.0000 </r>
       <r>    -3.2391     0.0002    50.0000 </r>
       <r>    -3.0841     1.0478    50.1624 </r>
       <r>    -2.9292     4.6973    50.8904 </r>
       <r>    -2.7742     8.7590    52.2479 </r>
       <r>    -2.6192     5.8846    53.1600 </r>
       <r>    -2.4642    11.3920    54.9255 </r>
       <r>    -2.3092     7.4248    56.0762 </r>
       <r>    -2.1542    10.8040    57.7507 </r>
       <r>    -1.9993     8.0626    59.0003 </r>
       <r>    -1.8443     6.6340    60.0284 </r>
       <r>    -1.6893    18.0675    62.8286 </r>
       <r>    -1.5343    31.4884    67.7088 </r>
       <r>    -1.3793    39.6871    73.8596 </r>
       <r>    -1.2243    35.6323    79.3820 </r>
       <r>    -1.0694    29.5379    83.9599 </r>
       <r>    -0.9144    27.7108    88.2547 </r>
       <r>    -0.7594    12.7329    90.2280 </r>
       <r>    -0.6044    11.1003    91.9484 </r>
       <r>    -0.4494    11.6998    93.7617 </r>
       <r>    -0.2944    10.4933    95.3880 </r>
       <r>    -0.1395     7.2223    96.5073 </r>
       <r>     0.0155     2.5959    96.9096 </r>
       <r>     0.1705     5.5655    97.7722 </r>
       <r>     0.3255     4.4410    98.4605 </r>
       <r>     0.4805     6.0909    99.4045 </r>
       <r>     0.6355    14.6806   101.6797 </r>
       <r>     0.7904    11.5896   103.4759 </r>
       <r>     0.9454    19.7052   106.5299 </r>
       <r>     1.1004    19.1857   109.5034 </r>
       <r>     1.2554    25.8347   113.5073 </r>
       <r>     1.4104    28.6119   117.9417 </r>
       <r>     1.5654    26.4339   122.0385 </r>
       <r>     1.7203    17.4804   124.7477 </r>
       <r>     1.8753    14.8455   127.0485 </r>
       <r>     2.0303    21.4671   130.3755 </r>
       <r>     2.1853    15.9479   132.8472 </r>
       <r>     2.3403    13.5263   134.9436 </r>
       <r>     2.4953     8.6294   136.2810 </r>
       <r>     2.6502    10.0176   137.8335 </r>
       <r>     2.8052     2.4251   138.2094 </r>
       <r>     2.9602     0.5571   138.2957 </r>
       <r>     3.1152     1.6819   138.5564 </r>
       <r>     3.2702     9.4678   140.0237 </r>
       <r>     3.4252     7.2703   141.1505 </r>
       <r>     3.5801     4.9341   141.9152 </r>
       <r>     3.7351     0.5469   142.0000 </r>
       <r>     3.8901     0.0007   142.0001 </r>
       <r>     4.0451     3.5041   142.5432 </r>
       <r>     4.2001     2.5150   142.9330 </r>
       <r>     4.3551     5.5321   143.7903 </r>
       <r>     4.5100     0.4784   143.8645 </r>
       <r>     4.6650     1.2768   144.0624 </r>
       <r>     4.8200     1.5052   144.2957 </r>
       <r>     4.9750     2.2055   144.6375 </r>
       <r>     5.1300     1.6764   144.8973 </r>
       <r>     5.2850     2.6573   145.3091 </r>
       <r>     5.4399     2.2441   145.6569 </r>
       <r>     5.5949     1.6257   145.9089 </r>
       <r>     5.7499     1.9430   146.2100 </r>
       <r>     5.9049     4.4862   146.9053 </r>
       <r>     6.0599     6.5345   147.9180 </r>
       <r>     6.2149     5.4786   148.7671 </r>
       <r>     6.3698     4.3282   149.4379 </r>
       <r>     6.5248     0.2956   149.4837 </r>
       <r>     6.6798     2.1691   149.8199 </r>
       <r>     6.8348     0.4446   149.8888 </r>
       <r>     6.9898     0.4614   149.9603 </r>
       <r>     7.1448     0.7188   150.0717 </r>
       <r>     7.2998     0.1563   150.0959 </r>
       <r>     7.4547     1.8660   150.3851 </r>
       <r>     7.6097     3.2195   150.8841 </r>
       <r>     7.7647     3.7237   151.4612 </r>
       <r>     7.9197     4.3311   152.1324 </r>
       <r>     8.0747     2.8374   152.5722 </r>
       <r>     8.2297     5.6856   153.4534 </r>
       <r>     8.3846     8.5106   154.7724 </r>
       <r>     8.5396     7.5645   155.9447 </r>
       <r>     8.6946    13.8550   158.0920 </r>
       <r>     8.8496    14.1280   160.2817 </r>
       <r>     9.0046    10.3469   161.8853 </r>
       <r>     9.1596    10.5745   163.5241 </r>
       <r>     9.3145    11.0349   165.2344 </r>
       <r>     9.4695    14.7214   167.5159 </r>
       <r>     9.6245     5.1975   168.3215 </r>
       <r>     9.7795     9.3358   169.7684 </r>
       <r>     9.9345    10.6291   171.4157 </r>
       <r>    10.0895    15.0650   173.7505 </r>
       <r>    10.2444     9.9875   175.2984 </r>
       <r>    10.3994    20.0146   178.4004 </r>
       <r>    10.5544    14.8301   180.6988 </r>
       <r>    10.7094    10.3072   182.2963 </r>
       <r>    10.8644     7.1643   183.4066 </r>
       <r>    11.0194     3.3035   183.9186 </r>
       <r>    11.1743     0.0953   183.9334 </r>
       <r>    11.3293     0.4294   183.9999 </r>
       <r>    11.4843     0.0006   184.0000 </r>
       <r>    11.6393     0.0000   184.0000 </r>
       <r>    11.7943     0.0000   184.0000 </r>
       <r>    11.9493     0.0000   184.0000 </r>
       <r>    12.1042     0.0000   184.0000 </r>
       <r>    12.2592     0.0000   184.0000 </r>
       <r>    12.4142     0.0000   184.0000 </r>
       <r>    12.5692     0.0000   184.0000 </r>
       <r>    12.7242     0.0000   184.0000 </r>
       <r>    12.8792     0.0000   184.0000 </r>
       <r>    13.0341     0.0000   184.0000 </r>
       <r>    13.1891     0.0000   184.0000 </r>
       <r>    13.3441     0.0000   184.0000 </r>
      </set>
     </set>
    </array>
   </total>
  </dos>
 </calculation>
 <structure name="finalpos" >
  <crystal>
   <varray name="basis" >
    <v>       8.00000000       0.00000000       0.00000000 </v>
    <v>       0.00000000       8.00000000       0.00000000 </v>
    <v>       0.00000000       0.00000000       8.00000000 </v>
   </varray>
   <i name="volume">    512.00000000 </i>
   <varray name="rec_basis" >
    <v>       0.12500000       0.00000000       0.00000000 </v>
    <v>       0.00000000       0.12500000       0.00000000 </v>
    <v>       0.00000000       0.00000000       0.12500000 </v>
   </varray>
  </crystal>
  <varray name="positions" >
   <v>       0.25000000       0.75000000       0.00000000 </v>
   <v>       0.25000000       0.25000000       0.00000000 </v>
   <v>       0.25000000       0.75000000       0.50000000 </v>
   <v>       0.75000000       0.75000000       0.00000000 </v>
   <v>       0.75000000       0.25000000       0.50000000 </v>
   <v>       0.75000000       0.75000000       0.50000000 </v>
   <v>       0.75000000       0.25000000       0.00000000 </v>
   <v>       0.25000000       0.25000000       0.50000000 </v>
   <v>       0.50000000       0.00000000       0.25000000 </v>
   <v>       0.00000000       0.00000000       0.75000000 </v>
   <v>       0.00000000       0.50000000       0.25000000 </v>
   <v>       0.00000000       0.00000000       0.25000000 </v>
   <v>       0.00000000       0.50000000       0.75000000 </v>
   <v>       0.50000000       0.50000000       0.25000000 </v>
   <v>       0.50000000       0.00000000       0.75000000 </v>
   <v>       0.50000000       0.50000000       0.75000000 </v>
   <v>       0.00000000       0.00000000       0.00000000 </v>
   <v>       0.25000000       0.00000000       0.25000000 </v>
   <v>       0.75000000       0.00000000       0.75000000 </v>
   <v>       0.75000000       0.50000000       0.25000000 </v>
   <v>       0.75000000       0.00000000       0.25000000 </v>
   <v>       0.00000000       0.25000000       0.75000000 </v>
   <v>       0.50000000       0.25000000       0.25000000 </v>
   <v>       0.00000000       0.25000000       0.25000000 </v>
   <v>       0.00000000       0.75000000       0.25000000 </v>
   <v>       0.50000000       0.50000000       0.50000000 </v>
   <v>       0.75000000       0.50000000       0.75000000 </v>
   <v>       0.25000000       0.50000000       0.25000000 </v>
   <v>       0.25000000       0.00000000       0.75000000 </v>
   <v>       0.25000000       0.50000000       0.75000000 </v>
   <v>       0.50000000       0.75000000       0.25000000 </v>
   <v>       0.00000000       0.75000000       0.75000000 </v>
   <v>       0.50000000       0.75000000       0.75000000 </v>
   <v>       0.50000000       0.25000000       0.75000000 </v>
  </varray>
 </structure>
</modeling>
