<?xml version="1.0" encoding="ISO-8859-1"?>
<modeling>
 <generator>
  <i name="program" type="string">vasp </i>
  <i name="version" type="string">5.3.5  </i>
  <i name="subversion" type="string">31Mar14 (build Jun 20 2014 13:15:13) complex                          parallel </i>
  <i name="platform" type="string">LinuxIFC </i>
  <i name="date" type="string">2025 12 12 </i>
  <i name="time" type="string">11:26:07 </i>
 </generator>
 <incar>
  <i type="string" name="PREC">accurate</i>
  <i type="int" name="IALGO">    38</i>
  <i type="logical" name="ADDGRID"> T  </i>
  <i type="int" name="ISPIN">     2</i>
  <i type="int" name="NELM">   100</i>
  <i type="int" name="NELMIN">     4</i>
  <i name="EDIFF">      0.00000100</i>
  <i name="ENCUT">    500.00000000</i>
  <i type="logical" name="LREAL"> F  </i>
  <i type="int" name="ISMEAR">     0</i>
  <i name="SIGMA">      0.05000000</i>
  <i type="logical" name="LWAVE"> F  </i>
  <i type="logical" name="LCHARG"> F  </i>
  <i type="int" name="NELM">   100</i>
  <i type="logical" name="LDAU"> T  </i>
  <v name="LDAUU">      0.00000000      4.00000000      0.00000000</v>
  <v name="LDAUJ">      0.00000000      0.00000000      0.00000000</v>
 </incar>
 <kpoints>
  <generation param="Auto">
   <i name="subdivisionlength">     20.00000000 </i>
   <v type="int" name="divisions">       5        5        2 </v>
   <v name="usershift">      0.00000000       0.00000000       0.00000000 </v>
   <v name="genvec1">      0.20000000       0.00000000       0.00000000 </v>
   <v name="genvec2">      0.00000000       0.20000000       0.00000000 </v>
   <v name="genvec3">      0.00000000       0.00000000       0.50000000 </v>
   <v name="shift">      0.00000000       0.00000000       0.00000000 </v>
  </generation>
  <varray name="kpointlist" >
   <v>       0.00000000       0.00000000       0.00000000 </v>
   <v>       0.20000000       0.00000000       0.00000000 </v>
   <v>       0.40000000       0.00000000       0.00000000 </v>
   <v>       0.00000000       0.20000000       0.00000000 </v>
   <v>       0.20000000       0.20000000       0.00000000 </v>
   <v>       0.40000000       0.20000000       0.00000000 </v>
   <v>       0.00000000       0.40000000       0.00000000 </v>
   <v>       0.20000000       0.40000000       0.00000000 </v>
   <v>       0.40000000       0.40000000       0.00000000 </v>
   <v>       0.00000000       0.00000000       0.50000000 </v>
   <v>       0.20000000       0.00000000       0.50000000 </v>
   <v>       0.40000000       0.00000000       0.50000000 </v>
   <v>       0.00000000       0.20000000       0.50000000 </v>
   <v>       0.20000000       0.20000000       0.50000000 </v>
   <v>       0.40000000       0.20000000       0.50000000 </v>
   <v>       0.00000000       0.40000000       0.50000000 </v>
   <v>       0.20000000       0.40000000       0.50000000 </v>
   <v>       0.40000000       0.40000000       0.50000000 </v>
  </varray>
  <varray name="weights" >
   <v>       0.02000000 </v>
   <v>       0.04000000 </v>
   <v>       0.04000000 </v>
   <v>       0.04000000 </v>
   <v>       0.08000000 </v>
   <v>       0.08000000 </v>
   <v>       0.04000000 </v>
   <v>       0.08000000 </v>
   <v>       0.08000000 </v>
   <v>       0.02000000 </v>
   <v>       0.04000000 </v>
   <v>       0.04000000 </v>
   <v>       0.04000000 </v>
   <v>       0.08000000 </v>
   <v>       0.08000000 </v>
   <v>       0.04000000 </v>
   <v>       0.08000000 </v>
   <v>       0.08000000 </v>
  </varray>
 </kpoints>
 <parameters>
  <separator name="general" >
   <i type="string" name="SYSTEM">unknown system</i>
   <i type="logical" name="LCOMPAT"> F  </i>
  </separator>
  <separator name="electronic" >
   <i type="string" name="PREC">accura</i>
   <i name="ENMAX">    500.00000000</i>
   <i name="ENAUG">    586.98000000</i>
   <i name="EDIFF">      0.00000100</i>
   <i type="int" name="IALGO">    38</i>
   <i type="int" name="IWAVPR">    10</i>
   <i type="int" name="NBANDS">    68</i>
   <i name="NELECT">     99.00000000</i>
   <i type="int" name="TURBO">     0</i>
   <i type="int" name="IRESTART">     0</i>
   <i type="int" name="NREBOOT">     0</i>
   <i type="int" name="NMIN">     0</i>
   <i name="EREF">      0.00000000</i>
   <separator name="electronic smearing" >
    <i type="int" name="ISMEAR">     0</i>
    <i name="SIGMA">      0.05000000</i>
    <i name="KSPACING">      0.50000000</i>
    <i type="logical" name="KGAMMA"> T  </i>
   </separator>
   <separator name="electronic projectors" >
    <i type="logical" name="LREAL"> F  </i>
    <v name="ROPT">      0.00000000      0.00000000      0.00000000</v>
    <i type="int" name="LMAXPAW">  -100</i>
    <i type="int" name="LMAXMIX">     2</i>
    <i type="logical" name="NLSPLINE"> F  </i>
   </separator>
   <separator name="electronic startup" >
    <i type="int" name="ISTART">     0</i>
    <i type="int" name="ICHARG">     2</i>
    <i type="int" name="INIWAV">     1</i>
   </separator>
   <separator name="electronic spin" >
    <i type="int" name="ISPIN">     2</i>
    <i type="logical" name="LNONCOLLINEAR"> F  </i>
    <v name="MAGMOM">      1.00000000      1.00000000      1.00000000      1.00000000      1.00000000      1.00000000      1.00000000      1.00000000      1.00000000      1.00000000      1.00000000      1.00000000</v>
    <i name="NUPDOWN">     -1.00000000</i>
    <i type="logical" name="LSORBIT"> F  </i>
    <v name="SAXIS">      0.00000000      0.00000000      1.00000000</v>
    <i type="logical" name="LSPIRAL"> F  </i>
    <v name="QSPIRAL">      0.00000000      0.00000000      0.00000000</v>
    <i type="logical" name="LZEROZ"> F  </i>
   </separator>
   <separator name="electronic exchange-correlation" >
    <i type="logical" name="LASPH"> F  </i>
    <i type="logical" name="LMETAGGA"> F  </i>
   </separator>
   <separator name="electronic convergence" >
    <i type="int" name="NELM">   100</i>
    <i type="int" name="NELMDL">    -5</i>
    <i type="int" name="NELMIN">     4</i>
    <i name="ENINI">    500.00000000</i>
    <separator name="electronic convergence detail" >
     <i type="logical" name="LDIAG"> T  </i>
     <i type="logical" name="LSUBROT"> F  </i>
     <i name="WEIMIN">      0.00000000</i>
     <i name="EBREAK">      0.00000000</i>
     <i name="DEPER">      0.30000000</i>
     <i type="int" name="NRMM">     4</i>
     <i name="TIME">      0.40000000</i>
    </separator>
   </separator>
   <separator name="electronic mixer" >
    <i name="AMIX">      0.40000000</i>
    <i name="BMIX">      1.00000000</i>
    <i name="AMIN">      0.10000000</i>
    <i name="AMIX_MAG">      1.60000000</i>
    <i name="BMIX_MAG">      1.00000000</i>
    <separator name="electronic mixer details" >
     <i type="int" name="IMIX">     4</i>
     <i type="int" name="MAXMIX">   -45</i>
     <i name="WC">    100.00000000</i>
     <i type="int" name="INIMIX">     1</i>
     <i type="int" name="MIXPRE">     1</i>
     <i type="int" name="MREMOVE">     5</i>
    </separator>
   </separator>
   <separator name="electronic dipolcorrection" >
    <i type="logical" name="LDIPOL"> F  </i>
    <i type="logical" name="LMONO"> F  </i>
    <i type="int" name="IDIPOL">     0</i>
    <i name="EPSILON">      1.00000000</i>
    <v name="DIPOL">   -100.00000000   -100.00000000   -100.00000000</v>
    <i name="EFIELD">      0.00000000</i>
   </separator>
  </separator>
  <separator name="grids" >
   <i type="int" name="NGX">    30</i>
   <i type="int" name="NGY">    30</i>
   <i type="int" name="NGZ">    90</i>
   <i type="int" name="NGXF">    60</i>
   <i type="int" name="NGYF">    60</i>
   <i type="int" name="NGZF">   180</i>
   <i type="logical" name="ADDGRID"> T  </i>
  </separator>
  <separator name="ionic" >
   <i type="int" name="NSW">     0</i>
   <i type="int" name="IBRION">    -1</i>
   <i type="int" name="ISIF">     2</i>
   <i name="PSTRESS">      0.00000000</i>
   <i name="EDIFFG">      0.00001000</i>
   <i type="int" name="NFREE">     0</i>
   <i name="POTIM">      0.50000000</i>
   <i name="SMASS">     -3.00000000</i>
   <i name="SCALEE">      1.00000000</i>
  </separator>
  <separator name="ionic md" >
   <i name="TEBEG">      0.00010000</i>
   <i name="TEEND">      0.00010000</i>
   <i type="int" name="NBLOCK">     1</i>
   <i type="int" name="KBLOCK">     1</i>
   <i type="int" name="NPACO">   256</i>
   <i name="APACO">     16.00000000</i>
  </separator>
  <separator name="symmetry" >
   <i type="int" name="ISYM">     2</i>
   <i name="SYMPREC">      0.00001000</i>
  </separator>
  <separator name="dos" >
   <i type="logical" name="LORBIT"> F  </i>
   <v name="RWIGS">     -1.00000000     -1.00000000     -1.00000000</v>
   <i type="int" name="NEDOS">   301</i>
   <i name="EMIN">     10.00000000</i>
   <i name="EMAX">    -10.00000000</i>
   <i name="EFERMI">      0.00000000</i>
  </separator>
  <separator name="writing" >
   <i type="int" name="NWRITE">     2</i>
   <i type="logical" name="LWAVE"> F  </i>
   <i type="logical" name="LCHARG"> F  </i>
   <i type="logical" name="LPARD"> F  </i>
   <i type="logical" name="LVTOT"> F  </i>
   <i type="logical" name="LVHAR"> F  </i>
   <i type="logical" name="LELF"> F  </i>
   <i type="logical" name="LOPTICS"> F  </i>
   <v name="STM">      0.00000000      0.00000000      0.00000000      0.00000000      0.00000000      0.00000000      0.00000000</v>
  </separator>
  <separator name="performance" >
   <i type="int" name="NPAR">     4</i>
   <i type="int" name="NSIM">     4</i>
   <i type="int" name="NBLK">    -1</i>
   <i type="logical" name="LPLANE"> T  </i>
   <i type="logical" name="LSCALAPACK"> T  </i>
   <i type="logical" name="LSCAAWARE"> F  </i>
   <i type="logical" name="LSCALU"> F  </i>
   <i type="logical" name="LASYNC"> F  </i>
   <i type="logical" name="LORBITALREAL"> F  </i>
  </separator>
  <separator name="miscellaneous" >
   <i type="int" name="IDIOT">     3</i>
   <i type="logical" name="LMUSIC"> F  </i>
   <v name="POMASS">     87.62000000     63.54600000     16.00000000</v>
   <v name="DARWINR">      0.00000000      0.00000000      0.00000000</v>
   <v name="DARWINV">      1.00000000      1.00000000      1.00000000</v>
   <i type="logical" name="LCORR"> T  </i>
  </separator>
  <i type="logical" name="GGA_COMPAT"> T  </i>
  <i type="logical" name="LBERRY"> F  </i>
  <i type="int" name="ICORELEVEL">     0</i>
  <i type="logical" name="LDAU"> T  </i>
  <v type="int" name="LDAUTYPE">     2</v>
  <v type="int" name="LDAUL">     2</v>
  <v name="LDAUU">      0.00000000</v>
  <v name="LDAUJ">      0.00000000</v>
  <i type="int" name="LDAUPRINT">     0</i>
  <i type="int" name="I_CONSTRAINED_M">     0</i>
  <separator name="electronic exchange-correlation" >
   <i type="string" name="GGA">--</i>
   <i type="int" name="VOSKOWN">     0</i>
   <i type="logical" name="LHFCALC"> F  </i>
   <i type="string" name="PRECFOCK"></i>
   <i type="logical" name="LSYMGRAD"> F  </i>
   <i type="logical" name="LHFONE"> F  </i>
   <i type="logical" name="LRHFCALC"> F  </i>
   <i type="logical" name="LTHOMAS"> F  </i>
   <i type="logical" name="LMODELHF"> F  </i>
   <i name="ENCUT4O">     -1.00000000</i>
   <i type="int" name="EXXOEP">     0</i>
   <i type="int" name="FOURORBIT">     0</i>
   <i name="AEXX">      0.00000000</i>
   <i name="HFALPHA">      0.00000000</i>
   <i name="MCALPHA">      0.00000000</i>
   <i name="ALDAX">      1.00000000</i>
   <i name="AGGAX">      1.00000000</i>
   <i name="ALDAC">      1.00000000</i>
   <i name="AGGAC">      1.00000000</i>
   <i type="int" name="NKREDX">     1</i>
   <i type="int" name="NKREDY">     1</i>
   <i type="int" name="NKREDZ">     1</i>
   <i type="logical" name="SHIFTRED"> F  </i>
   <i type="logical" name="ODDONLY"> F  </i>
   <i type="logical" name="EVENONLY"> F  </i>
   <i type="int" name="LMAXFOCK">     0</i>
   <i type="int" name="NMAXFOCKAE">     0</i>
   <i type="logical" name="LFOCKAEDFT"> F  </i>
   <i name="HFSCREEN">      0.00000000</i>
   <i name="HFSCREENC">      0.00000000</i>
   <i type="int" name="NBANDSGWLOW">     0</i>
  </separator>
  <separator name="vdW DFT" >
   <i type="logical" name="LUSE_VDW"> F  </i>
   <i name="Zab_VDW">     -0.84910000</i>
   <i name="PARAM1">      0.12340000</i>
   <i name="PARAM2">      1.00000000</i>
   <i name="PARAM3">      0.00000000</i>
  </separator>
  <separator name="model GW" >
   <i type="int" name="MODEL_GW">     0</i>
   <i name="MODEL_EPS0">      9.60000000</i>
   <i name="MODEL_ALPHA">      1.00000000</i>
  </separator>
  <separator name="linear response parameters" >
   <i type="logical" name="LEPSILON"> F  </i>
   <i type="logical" name="LRPA"> F  </i>
   <i type="logical" name="LNABLA"> F  </i>
   <i type="logical" name="LVEL"> F  </i>
   <i type="int" name="KINTER">     0</i>
   <i name="CSHIFT">      0.10000000</i>
   <i name="OMEGAMAX">     -1.00000000</i>
   <i name="DEG_THRESHOLD">      0.00200000</i>
  </separator>
  <separator name="orbital magnetization" >
   <i type="logical" name="NUCIND"> F  </i>
   <v name="MAGPOS">      0.00000000      0.00000000      0.00000000</v>
   <i type="logical" name="LNICSALL"> T  </i>
   <i type="logical" name="ORBITALMAG"> F  </i>
   <i type="logical" name="LMAGBLOCH"> F  </i>
   <i type="logical" name="LCHIMAG"> F  </i>
   <i type="logical" name="LGAUGE"> T  </i>
   <i type="int" name="MAGATOM">     0</i>
   <v name="MAGDIPOL">      0.00000000      0.00000000      0.00000000</v>
   <v name="AVECCONST">      0.00000000      0.00000000      0.00000000</v>
  </separator>
  <separator name="response functions" >
   <i type="logical" name="LADDER"> F  </i>
   <i type="logical" name="LFXC"> F  </i>
   <i type="logical" name="LHARTREE"> T  </i>
   <i type="int" name="IBSE">     0</i>
   <i type="logical" name="LTCTE"> F  </i>
   <i type="logical" name="LTETE"> F  </i>
   <i type="logical" name="LTRIPLET"> F  </i>
   <i type="logical" name="LFXCEPS"> F  </i>
   <i type="logical" name="LFXHEG"> F  </i>
   <i type="logical" name="L2ORDER"> F  </i>
   <i type="logical" name="LUSEW"> F  </i>
   <i name="ENCUTGW">     -2.00000000</i>
   <i name="ENCUTGWSOFT">     -2.00000000</i>
   <i name="ENCUTLF">     -1.00000000</i>
   <i type="int" name="LMAXMP2">    -1</i>
   <i name="SCISSOR">      0.00000000</i>
   <i type="int" name="NOMEGA">     0</i>
   <i type="int" name="NOMEGAR">     0</i>
   <i type="int" name="NBANDSGW">    -1</i>
   <i type="int" name="NBANDSO">    -1</i>
   <i type="int" name="NBANDSV">    -1</i>
   <i type="int" name="NELM">   100</i>
   <i type="int" name="DIM">     3</i>
   <i type="int" name="ANTIRES">     0</i>
   <i name="OMEGAMAX">    -30.00000000</i>
   <i name="OMEGAMIN">    -30.00000000</i>
   <i name="OMEGATL">   -200.00000000</i>
   <i type="int" name="OMEGAGRID">     0</i>
   <i name="CSHIFT">     -0.10000000</i>
   <i type="logical" name="SELFENERGY"> F  </i>
   <i type="logical" name="LSPECTRAL"> F  </i>
   <i type="logical" name="ODDONLYGW"> F  </i>
   <i type="logical" name="EVENONLYGW"> F  </i>
   <i type="int" name="NKREDLFX">     1</i>
   <i type="int" name="NKREDLFY">     1</i>
   <i type="int" name="NKREDLFZ">     1</i>
   <i type="int" name="MAXMEM">  1800</i>
   <i type="int" name="TELESCOPE">     0</i>
   <i type="int" name="TAUPAR">     1</i>
  </separator>
  <separator name="External order field" >
   <i name="OFIELD_KAPPA">      0.00000000</i>
   <v name="OFIELD_K">      0.00000000      0.00000000      0.00000000</v>
   <i name="OFIELD_Q6_NEAR">      0.00000000</i>
   <i name="OFIELD_Q6_FAR">      0.00000000</i>
   <i name="OFIELD_A">      0.00000000</i>
  </separator>
 </parameters>
 <atominfo>
  <atoms>      12 </atoms>
  <types>       3 </types>
  <array name="atoms" >
   <dimension dim="1">ion</dimension>
   <field type="string">element</field>
   <field type="int">atomtype</field>
   <set>
    <rc><c>Sr</c><c>   1</c></rc>
    <rc><c>Sr</c><c>   1</c></rc>
    <rc><c>Sr</c><c>   1</c></rc>
    <rc><c>Cu</c><c>   2</c></rc>
    <rc><c>Cu</c><c>   2</c></rc>
    <rc><c>Cu</c><c>   2</c></rc>
    <rc><c>O </c><c>   3</c></rc>
    <rc><c>O </c><c>   3</c></rc>
    <rc><c>O </c><c>   3</c></rc>
    <rc><c>O </c><c>   3</c></rc>
    <rc><c>O </c><c>   3</c></rc>
    <rc><c>O </c><c>   3</c></rc>
   </set>
  </array>
  <array name="atomtypes" >
   <dimension dim="1">type</dimension>
   <field type="int">atomspertype</field>
   <field type="string">element</field>
   <field>mass</field>
   <field>valence</field>
   <field type="string">pseudopotential</field>
   <set>
    <rc><c>   3</c><c>Sr</c><c>     87.62000000</c><c>     10.00000000</c><c>  PAW_PBE Sr_sv 07Sep2000               </c></rc>
    <rc><c>   3</c><c>Cu</c><c>     63.54600000</c><c>     11.00000000</c><c>  PAW_PBE Cu 22Jun2005                  </c></rc>
    <rc><c>   6</c><c>O </c><c>     16.00000000</c><c>      6.00000000</c><c>  PAW_PBE O_s 07Sep2000                 </c></rc>
   </set>
  </array>
 </atominfo>
 <structure name="initialpos" >
  <crystal>
   <varray name="basis" >
    <v>       4.00000000       0.00000000       0.00000000 </v>
    <v>       0.00000000       4.00000000       0.00000000 </v>
    <v>       0.00000000       0.00000000      12.00000000 </v>
   </varray>
   <i name="volume">    192.00000000 </i>
   <varray name="rec_basis" >
    <v>       0.25000000       0.00000000       0.00000000 </v>
    <v>       0.00000000       0.25000000       0.00000000 </v>
    <v>       0.00000000       0.00000000       0.08333333 </v>
   </varray>
  </crystal>
  <varray name="positions" >
   <v>       0.00000000       0.00000000       0.00000000 </v>
   <v>       0.00000000       0.00000000       0.33333333 </v>
   <v>       0.00000000       0.00000000       0.66666667 </v>
   <v>       0.50000000       0.50000000       0.16666667 </v>
   <v>       0.50000000       0.50000000       0.50000000 </v>
   <v>       0.50000000       0.50000000       0.83333333 </v>
   <v>       0.50000000       0.50000000       0.66666667 </v>
   <v>       0.00000000       0.50000000       0.16666667 </v>
   <v>       0.00000000       0.50000000       0.83333333 </v>
   <v>       0.50000000       0.00000000       0.16666667 </v>
   <v>       0.50000000       0.00000000       0.50000000 </v>
   <v>       0.50000000       0.00000000       0.83333333 </v>
  </varray>
 </structure>
 <calculation>
  <scstep>
   <time name="dav">    1.70    1.70</time>
   <time name="total">    1.85    1.86</time>
   <energy>
    <i name="alphaZ">    448.99023108 </i>
    <i name="ewald">  -6430.11641468 </i>
    <i name="hartreedc">  -2903.04551314 </i>
    <i name="XCdc">    407.34981151 </i>
    <i name="pawpsdc">   7641.72729726 </i>
    <i name="pawaedc">  -7888.29957844 </i>
    <i name="eentropy">     -0.00489308 </i>
    <i name="bandstr">    611.70327138 </i>
    <i name="atom">   9296.25546177 </i>
    <i name="e_fr_energy">   1184.55967367 </i>
    <i name="e_wo_entrp">   1184.56456675 </i>
    <i name="e_0_energy">   1184.56212021 </i>
   </energy>
  </scstep>
  <scstep>
   <time name="dav">    1.79    1.79</time>
   <time name="total">    1.80    1.81</time>
   <energy>
    <i name="e_fr_energy">     93.21409662 </i>
    <i name="e_wo_entrp">     93.21844841 </i>
    <i name="e_0_energy">     93.21627252 </i>
   </energy>
  </scstep>
  <scstep>
   <time name="dav">    1.85    1.85</time>
   <time name="total">    1.85    1.87</time>
   <energy>
    <i name="e_fr_energy">    -61.62303355 </i>
    <i name="e_wo_entrp">    -61.61755133 </i>
    <i name="e_0_energy">    -61.62029244 </i>
   </energy>
  </scstep>
  <scstep>
   <time name="dav">    2.49    2.49</time>
   <time name="total">    2.49    2.50</time>
   <energy>
    <i name="e_fr_energy">    -72.55741131 </i>
    <i name="e_wo_entrp">    -72.55310770 </i>
    <i name="e_0_energy">    -72.55525951 </i>
   </energy>
  </scstep>
  <scstep>
   <time name="dav">    2.82    2.82</time>
   <time name="total">    3.05    3.07</time>
   <energy>
    <i name="e_fr_energy">    -73.09009930 </i>
    <i name="e_wo_entrp">    -73.08578634 </i>
    <i name="e_0_energy">    -73.08794282 </i>
   </energy>
  </scstep>
  <scstep>
   <time name="dav">    2.30    2.30</time>
   <time name="total">    2.67    2.69</time>
   <energy>
    <i name="e_fr_energy">    -64.42886931 </i>
    <i name="e_wo_entrp">    -64.42037953 </i>
    <i name="e_0_energy">    -64.42462442 </i>
   </energy>
  </scstep>
  <scstep>
   <time name="dav">    2.29    2.29</time>
   <time name="total">    2.67    2.68</time>
   <energy>
    <i name="e_fr_energy">    -59.71705323 </i>
    <i name="e_wo_entrp">    -59.71234293 </i>
    <i name="e_0_energy">    -59.71469808 </i>
   </energy>
  </scstep>
  <scstep>
   <time name="dav">    2.62    2.62</time>
   <time name="total">    2.99    3.01</time>
   <energy>
    <i name="e_fr_energy">    -62.34068285 </i>
    <i name="e_wo_entrp">    -62.33537752 </i>
    <i name="e_0_energy">    -62.33803018 </i>
   </energy>
  </scstep>
  <scstep>
   <time name="dav">    2.27    2.27</time>
   <time name="total">    2.64    2.65</time>
   <energy>
    <i name="e_fr_energy">    -61.18933817 </i>
    <i name="e_wo_entrp">    -61.18379216 </i>
    <i name="e_0_energy">    -61.18656517 </i>
   </energy>
  </scstep>
  <scstep>
   <time name="dav">    2.34    2.34</time>
   <time name="total">    2.71    2.73</time>
   <energy>
    <i name="e_fr_energy">    -60.42748936 </i>
    <i name="e_wo_entrp">    -60.41807646 </i>
    <i name="e_0_energy">    -60.42278291 </i>
   </energy>
  </scstep>
  <scstep>
   <time name="dav">    2.30    2.30</time>
   <time name="total">    2.67    2.69</time>
   <energy>
    <i name="e_fr_energy">    -59.43096761 </i>
    <i name="e_wo_entrp">    -59.42255072 </i>
    <i name="e_0_energy">    -59.42675916 </i>
   </energy>
  </scstep>
  <scstep>
   <time name="dav">    2.48    2.49</time>
   <time name="total">    2.86    2.87</time>
   <energy>
    <i name="e_fr_energy">    -59.28974743 </i>
    <i name="e_wo_entrp">    -59.28473127 </i>
    <i name="e_0_energy">    -59.28723935 </i>
   </energy>
  </scstep>
  <scstep>
   <time name="dav">    2.36    2.36</time>
   <time name="total">    2.73    2.75</time>
   <energy>
    <i name="e_fr_energy">    -59.28411053 </i>
    <i name="e_wo_entrp">    -59.27776459 </i>
    <i name="e_0_energy">    -59.28093756 </i>
   </energy>
  </scstep>
  <scstep>
   <time name="dav">    2.51    2.51</time>
   <time name="total">    2.88    2.90</time>
   <energy>
    <i name="e_fr_energy">    -59.26451746 </i>
    <i name="e_wo_entrp">    -59.25996462 </i>
    <i name="e_0_energy">    -59.26224104 </i>
   </energy>
  </scstep>
  <scstep>
   <time name="dav">    2.38    2.38</time>
   <time name="total">    2.75    2.77</time>
   <energy>
    <i name="e_fr_energy">    -59.27357631 </i>
    <i name="e_wo_entrp">    -59.26825629 </i>
    <i name="e_0_energy">    -59.27091630 </i>
   </energy>
  </scstep>
  <scstep>
   <time name="dav">    2.43    2.43</time>
   <time name="total">    2.83    2.84</time>
   <energy>
    <i name="e_fr_energy">    -59.27418324 </i>
    <i name="e_wo_entrp">    -59.26839676 </i>
    <i name="e_0_energy">    -59.27129000 </i>
   </energy>
  </scstep>
  <scstep>
   <time name="dav">    2.41    2.41</time>
   <time name="total">    2.78    2.80</time>
   <energy>
    <i name="e_fr_energy">    -59.27381811 </i>
    <i name="e_wo_entrp">    -59.26861968 </i>
    <i name="e_0_energy">    -59.27121890 </i>
   </energy>
  </scstep>
  <scstep>
   <time name="dav">    2.50    2.50</time>
   <time name="total">    2.88    2.89</time>
   <energy>
    <i name="e_fr_energy">    -59.27372921 </i>
    <i name="e_wo_entrp">    -59.26863118 </i>
    <i name="e_0_energy">    -59.27118020 </i>
   </energy>
  </scstep>
  <scstep>
   <time name="dav">    2.36    2.36</time>
   <time name="total">    2.73    2.75</time>
   <energy>
    <i name="e_fr_energy">    -59.27369949 </i>
    <i name="e_wo_entrp">    -59.26846844 </i>
    <i name="e_0_energy">    -59.27108397 </i>
   </energy>
  </scstep>
  <scstep>
   <time name="dav">    2.47    2.47</time>
   <time name="total">    2.84    2.86</time>
   <energy>
    <i name="e_fr_energy">    -59.27371035 </i>
    <i name="e_wo_entrp">    -59.26847061 </i>
    <i name="e_0_energy">    -59.27109048 </i>
   </energy>
  </scstep>
  <scstep>
   <time name="dav">    2.42    2.42</time>
   <time name="total">    2.79    2.81</time>
   <energy>
    <i name="e_fr_energy">    -59.27371506 </i>
    <i name="e_wo_entrp">    -59.26848897 </i>
    <i name="e_0_energy">    -59.27110201 </i>
   </energy>
  </scstep>
  <scstep>
   <time name="dav">    2.42    2.42</time>
   <time name="total">    2.79    2.82</time>
   <energy>
    <i name="e_fr_energy">    -59.27372171 </i>
    <i name="e_wo_entrp">    -59.26844528 </i>
    <i name="e_0_energy">    -59.27108349 </i>
   </energy>
  </scstep>
  <scstep>
   <time name="dav">    2.34    2.34</time>
   <time name="total">    2.71    2.73</time>
   <energy>
    <i name="e_fr_energy">    -59.27372649 </i>
    <i name="e_wo_entrp">    -59.26843079 </i>
    <i name="e_0_energy">    -59.27107864 </i>
   </energy>
  </scstep>
  <scstep>
   <time name="dav">    2.04    2.04</time>
   <time name="total">    2.41    2.43</time>
   <energy>
    <i name="e_fr_energy">    -59.27372832 </i>
    <i name="e_wo_entrp">    -59.26842728 </i>
    <i name="e_0_energy">    -59.27107780 </i>
   </energy>
  </scstep>
  <scstep>
   <time name="dav">    2.01    2.01</time>
   <time name="total">    2.38    2.40</time>
   <energy>
    <i name="e_fr_energy">    -59.27372944 </i>
    <i name="e_wo_entrp">    -59.26841182 </i>
    <i name="e_0_energy">    -59.27107063 </i>
   </energy>
  </scstep>
  <scstep>
   <time name="dav">    2.11    2.12</time>
   <time name="total">    2.49    2.51</time>
   <energy>
    <i name="e_fr_energy">    -59.27373092 </i>
    <i name="e_wo_entrp">    -59.26839394 </i>
    <i name="e_0_energy">    -59.27106243 </i>
   </energy>
  </scstep>
  <scstep>
   <time name="dav">    2.22    2.22</time>
   <time name="total">    2.59    2.61</time>
   <energy>
    <i name="e_fr_energy">    -59.27373316 </i>
    <i name="e_wo_entrp">    -59.26837813 </i>
    <i name="e_0_energy">    -59.27105565 </i>
   </energy>
  </scstep>
  <scstep>
   <time name="dav">    2.21    2.21</time>
   <time name="total">    2.58    2.60</time>
   <energy>
    <i name="e_fr_energy">    -59.27373559 </i>
    <i name="e_wo_entrp">    -59.26837241 </i>
    <i name="e_0_energy">    -59.27105400 </i>
   </energy>
  </scstep>
  <scstep>
   <time name="dav">    1.38    1.38</time>
   <time name="total">    1.75    1.77</time>
   <energy>
    <i name="e_fr_energy">    -59.27373669 </i>
    <i name="e_wo_entrp">    -59.26836688 </i>
    <i name="e_0_energy">    -59.27105179 </i>
   </energy>
  </scstep>
  <scstep>
   <time name="dav">    1.33    1.33</time>
   <time name="total">    1.47    1.48</time>
   <energy>
    <i name="alphaZ">    448.99023108 </i>
    <i name="ewald">  -6430.11641468 </i>
    <i name="hartreedc">  -2908.66723146 </i>
    <i name="XCdc">    407.62244887 </i>
    <i name="pawpsdc">  11661.55503744 </i>
    <i name="pawaedc"> -11935.57673695 </i>
    <i name="eentropy">     -0.00537117 </i>
    <i name="bandstr">   -599.33116199 </i>
    <i name="atom">   9296.25546177 </i>
    <i name="e_fr_energy">    -59.27373710 </i>
    <i name="e_wo_entrp">    -59.26836593 </i>
    <i name="e_0_energy">    -59.27105152 </i>
   </energy>
  </scstep>
  <structure>
   <crystal>
    <varray name="basis" >
     <v>       4.00000000       0.00000000       0.00000000 </v>
     <v>       0.00000000       4.00000000       0.00000000 </v>
     <v>       0.00000000       0.00000000      12.00000000 </v>
    </varray>
    <i name="volume">    192.00000000 </i>
    <varray name="rec_basis" >
     <v>       0.25000000       0.00000000       0.00000000 </v>
     <v>       0.00000000       0.25000000       0.00000000 </v>
     <v>       0.00000000       0.00000000       0.08333333 </v>
    </varray>
   </crystal>
   <varray name="positions" >
    <v>       0.00000000       0.00000000       0.00000000 </v>
    <v>       0.00000000       0.00000000       0.33333333 </v>
    <v>       0.00000000       0.00000000       0.66666667 </v>
    <v>       0.50000000       0.50000000       0.16666667 </v>
    <v>       0.50000000       0.50000000       0.50000000 </v>
    <v>       0.50000000       0.50000000       0.83333333 </v>
    <v>       0.50000000       0.50000000       0.66666667 </v>
    <v>       0.00000000       0.50000000       0.16666667 </v>
    <v>       0.00000000       0.50000000       0.83333333 </v>
    <v>       0.50000000       0.00000000       0.16666667 </v>
    <v>       0.50000000       0.00000000       0.50000000 </v>
    <v>       0.50000000       0.00000000       0.83333333 </v>
   </varray>
  </structure>
  <varray name="forces" >
   <v>       0.00000000       0.00000000      -0.35342756 </v>
   <v>       0.00000000       0.00000000      -1.52679584 </v>
   <v>       0.00000000       0.00000000       1.56408637 </v>
   <v>       0.00000000       0.00000000       0.08732009 </v>
   <v>       0.00000000       0.00000000       0.78592340 </v>
   <v>       0.00000000       0.00000000      -0.83701852 </v>
   <v>       0.00000000       0.00000000      -1.15393737 </v>
   <v>       0.00000000       0.00000000       0.42845808 </v>
   <v>       0.00000000       0.00000000       1.11308947 </v>
   <v>       0.00000000       0.00000000       0.23260665 </v>
   <v>       0.00000000       0.00000000      -1.53203404 </v>
   <v>       0.00000000       0.00000000       1.19172927 </v>
  </varray>
  <varray name="stress" >
   <v>     -85.51755873       0.00000000       0.00000000 </v>
   <v>       0.00000000     -75.24068933       0.00000000 </v>
   <v>       0.00000000       0.00000000    -116.84259022 </v>
  </varray>
  <energy>
   <i name="e_fr_energy">    -59.27373710 </i>
   <i name="e_wo_entrp">    -59.27105152 </i>
   <i name="e_0_energy">     -0.00537117 </i>
  </energy>
  <time name="totalsc">   80.75   81.24</time>
  <eigenvalues>
   <array>
    <dimension dim="1">band</dimension>
    <dimension dim="2">kpoint</dimension>
    <dimension dim="3">spin</dimension>
    <field>eigene</field>
    <field>occ</field>
    <set>
     <set comment="spin 1">
      <set comment="kpoint 1">
       <r>  -32.2889    1.0000 </r>
       <r>  -31.2803    1.0000 </r>
       <r>  -30.5747    1.0000 </r>
       <r>  -15.2171    1.0000 </r>
       <r>  -14.8869    1.0000 </r>
       <r>  -14.6058    1.0000 </r>
       <r>  -14.3344    1.0000 </r>
       <r>  -14.1882    1.0000 </r>
       <r>  -13.7424    1.0000 </r>
       <r>  -13.6823    1.0000 </r>
       <r>  -13.6071    1.0000 </r>
       <r>  -13.3373    1.0000 </r>
       <r>  -13.2861    1.0000 </r>
       <r>  -13.2786    1.0000 </r>
       <r>  -12.7452    1.0000 </r>
       <r>  -12.5208    1.0000 </r>
       <r>  -12.4244    1.0000 </r>
       <r>  -12.3454    1.0000 </r>
       <r>   -2.1590    1.0000 </r>
       <r>   -1.0599    1.0000 </r>
       <r>   -1.0385    1.0000 </r>
       <r>   -0.9809    1.0000 </r>
       <r>   -0.9396    1.0000 </r>
       <r>   -0.8902    1.0000 </r>
       <r>   -0.8185    1.0000 </r>
       <r>   -0.7977    1.0000 </r>
       <r>   -0.7715    1.0000 </r>
       <r>   -0.7092    1.0000 </r>
       <r>   -0.6568    1.0000 </r>
       <r>   -0.6505    1.0000 </r>
       <r>   -0.6196    1.0000 </r>
       <r>   -0.6162    1.0000 </r>
       <r>   -0.5274    1.0000 </r>
       <r>   -0.4826    1.0000 </r>
       <r>   -0.4821    1.0000 </r>
       <r>   -0.4769    1.0000 </r>
       <r>   -0.2399    1.0000 </r>
       <r>   -0.0040    1.0000 </r>
       <r>    0.0610    1.0000 </r>
       <r>    0.1824    1.0000 </r>
       <r>    0.4010    1.0000 </r>
       <r>    0.5418    1.0000 </r>
       <r>    0.7056    1.0000 </r>
       <r>    1.3653    1.0000 </r>
       <r>    1.6424    1.0000 </r>
       <r>    1.6623    1.0000 </r>
       <r>    1.6821    1.0000 </r>
       <r>    1.8784    1.0000 </r>
       <r>    1.9653    1.0000 </r>
       <r>    2.1383    1.0000 </r>
       <r>    2.2523    1.0000 </r>
       <r>    2.6842    0.9997 </r>
       <r>    4.6170    0.0000 </r>
       <r>    5.3584    0.0000 </r>
       <r>    6.6869    0.0000 </r>
       <r>    7.4173    0.0000 </r>
       <r>    7.7266    0.0000 </r>
       <r>    8.4196    0.0000 </r>
       <r>    8.5987    0.0000 </r>
       <r>    8.6804    0.0000 </r>
       <r>    8.8442    0.0000 </r>
       <r>    9.0522    0.0000 </r>
       <r>    9.1662    0.0000 </r>
       <r>    9.7503    0.0000 </r>
       <r>    9.9023    0.0000 </r>
       <r>   10.0693    0.0000 </r>
       <r>   10.2825    0.0000 </r>
       <r>   10.4553    0.0000 </r>
      </set>
      <set comment="kpoint 2">
       <r>  -32.2847    1.0000 </r>
       <r>  -31.2759    1.0000 </r>
       <r>  -30.5698    1.0000 </r>
       <r>  -15.1129    1.0000 </r>
       <r>  -14.9214    1.0000 </r>
       <r>  -14.5679    1.0000 </r>
       <r>  -14.3276    1.0000 </r>
       <r>  -14.2091    1.0000 </r>
       <r>  -13.8433    1.0000 </r>
       <r>  -13.7314    1.0000 </r>
       <r>  -13.6647    1.0000 </r>
       <r>  -13.4867    1.0000 </r>
       <r>  -13.2790    1.0000 </r>
       <r>  -13.1240    1.0000 </r>
       <r>  -12.7745    1.0000 </r>
       <r>  -12.5084    1.0000 </r>
       <r>  -12.3921    1.0000 </r>
       <r>  -12.2670    1.0000 </r>
       <r>   -2.1587    1.0000 </r>
       <r>   -1.7499    1.0000 </r>
       <r>   -1.6342    1.0000 </r>
       <r>   -1.2993    1.0000 </r>
       <r>   -1.1427    1.0000 </r>
       <r>   -1.1199    1.0000 </r>
       <r>   -1.0591    1.0000 </r>
       <r>   -1.0319    1.0000 </r>
       <r>   -0.8092    1.0000 </r>
       <r>   -0.6593    1.0000 </r>
       <r>   -0.6272    1.0000 </r>
       <r>   -0.5797    1.0000 </r>
       <r>   -0.5553    1.0000 </r>
       <r>   -0.5368    1.0000 </r>
       <r>   -0.5356    1.0000 </r>
       <r>   -0.4959    1.0000 </r>
       <r>   -0.3544    1.0000 </r>
       <r>   -0.3343    1.0000 </r>
       <r>   -0.1849    1.0000 </r>
       <r>   -0.1027    1.0000 </r>
       <r>    0.1659    1.0000 </r>
       <r>    0.5147    1.0000 </r>
       <r>    0.7348    1.0000 </r>
       <r>    0.7820    1.0000 </r>
       <r>    0.9008    1.0000 </r>
       <r>    1.3819    1.0000 </r>
       <r>    1.5696    1.0000 </r>
       <r>    1.6442    1.0000 </r>
       <r>    1.6766    1.0000 </r>
       <r>    1.8283    1.0000 </r>
       <r>    1.9369    1.0000 </r>
       <r>    2.1613    1.0000 </r>
       <r>    2.2236    1.0000 </r>
       <r>    3.1534    0.0000 </r>
       <r>    5.1036    0.0000 </r>
       <r>    5.8221    0.0000 </r>
       <r>    6.6389    0.0000 </r>
       <r>    7.8396    0.0000 </r>
       <r>    8.0320    0.0000 </r>
       <r>    8.2695    0.0000 </r>
       <r>    8.3304    0.0000 </r>
       <r>    8.5841    0.0000 </r>
       <r>    8.9748    0.0000 </r>
       <r>    9.1386    0.0000 </r>
       <r>    9.2103    0.0000 </r>
       <r>    9.5786    0.0000 </r>
       <r>    9.8012    0.0000 </r>
       <r>    9.9472    0.0000 </r>
       <r>   10.2967    0.0000 </r>
       <r>   10.6417    0.0000 </r>
      </set>
      <set comment="kpoint 3">
       <r>  -32.2778    1.0000 </r>
       <r>  -31.2687    1.0000 </r>
       <r>  -30.5620    1.0000 </r>
       <r>  -15.1289    1.0000 </r>
       <r>  -14.7412    1.0000 </r>
       <r>  -14.4243    1.0000 </r>
       <r>  -14.3754    1.0000 </r>
       <r>  -14.3167    1.0000 </r>
       <r>  -13.9890    1.0000 </r>
       <r>  -13.7735    1.0000 </r>
       <r>  -13.7044    1.0000 </r>
       <r>  -13.6419    1.0000 </r>
       <r>  -13.2675    1.0000 </r>
       <r>  -13.0306    1.0000 </r>
       <r>  -12.8029    1.0000 </r>
       <r>  -12.4882    1.0000 </r>
       <r>  -12.4564    1.0000 </r>
       <r>  -12.0734    1.0000 </r>
       <r>   -2.5797    1.0000 </r>
       <r>   -2.4985    1.0000 </r>
       <r>   -2.1565    1.0000 </r>
       <r>   -1.6132    1.0000 </r>
       <r>   -1.4001    1.0000 </r>
       <r>   -1.3088    1.0000 </r>
       <r>   -1.2281    1.0000 </r>
       <r>   -1.1005    1.0000 </r>
       <r>   -0.8017    1.0000 </r>
       <r>   -0.6428    1.0000 </r>
       <r>   -0.6408    1.0000 </r>
       <r>   -0.6128    1.0000 </r>
       <r>   -0.5715    1.0000 </r>
       <r>   -0.5331    1.0000 </r>
       <r>   -0.4919    1.0000 </r>
       <r>   -0.3835    1.0000 </r>
       <r>   -0.2415    1.0000 </r>
       <r>   -0.1572    1.0000 </r>
       <r>   -0.1117    1.0000 </r>
       <r>   -0.0464    1.0000 </r>
       <r>    0.2209    1.0000 </r>
       <r>    0.6562    1.0000 </r>
       <r>    0.8154    1.0000 </r>
       <r>    1.0181    1.0000 </r>
       <r>    1.1656    1.0000 </r>
       <r>    1.2970    1.0000 </r>
       <r>    1.3754    1.0000 </r>
       <r>    1.6463    1.0000 </r>
       <r>    1.7906    1.0000 </r>
       <r>    1.9129    1.0000 </r>
       <r>    1.9387    1.0000 </r>
       <r>    2.0173    1.0000 </r>
       <r>    2.6220    1.0000 </r>
       <r>    3.9641    0.0000 </r>
       <r>    5.3051    0.0000 </r>
       <r>    6.2703    0.0000 </r>
       <r>    6.7851    0.0000 </r>
       <r>    7.6347    0.0000 </r>
       <r>    7.6417    0.0000 </r>
       <r>    7.9465    0.0000 </r>
       <r>    8.4711    0.0000 </r>
       <r>    8.5728    0.0000 </r>
       <r>    9.0373    0.0000 </r>
       <r>    9.2244    0.0000 </r>
       <r>    9.7566    0.0000 </r>
       <r>   10.0143    0.0000 </r>
       <r>   10.0282    0.0000 </r>
       <r>   10.4726    0.0000 </r>
       <r>   10.5813    0.0000 </r>
       <r>   10.7797    0.0000 </r>
      </set>
      <set comment="kpoint 4">
       <r>  -32.2847    1.0000 </r>
       <r>  -31.2759    1.0000 </r>
       <r>  -30.5699    1.0000 </r>
       <r>  -15.1266    1.0000 </r>
       <r>  -14.8121    1.0000 </r>
       <r>  -14.5697    1.0000 </r>
       <r>  -14.3953    1.0000 </r>
       <r>  -14.1814    1.0000 </r>
       <r>  -13.8521    1.0000 </r>
       <r>  -13.7474    1.0000 </r>
       <r>  -13.6625    1.0000 </r>
       <r>  -13.4940    1.0000 </r>
       <r>  -13.2715    1.0000 </r>
       <r>  -13.1346    1.0000 </r>
       <r>  -12.7594    1.0000 </r>
       <r>  -12.4118    1.0000 </r>
       <r>  -12.3863    1.0000 </r>
       <r>  -12.3423    1.0000 </r>
       <r>   -2.1951    1.0000 </r>
       <r>   -1.9906    1.0000 </r>
       <r>   -1.7085    1.0000 </r>
       <r>   -1.6473    1.0000 </r>
       <r>   -1.3623    1.0000 </r>
       <r>   -1.2300    1.0000 </r>
       <r>   -1.1444    1.0000 </r>
       <r>   -1.0592    1.0000 </r>
       <r>   -0.9447    1.0000 </r>
       <r>   -0.9011    1.0000 </r>
       <r>   -0.8673    1.0000 </r>
       <r>   -0.6264    1.0000 </r>
       <r>   -0.5693    1.0000 </r>
       <r>   -0.5417    1.0000 </r>
       <r>   -0.5387    1.0000 </r>
       <r>   -0.5018    1.0000 </r>
       <r>   -0.3461    1.0000 </r>
       <r>   -0.2662    1.0000 </r>
       <r>   -0.1100    1.0000 </r>
       <r>    0.4568    1.0000 </r>
       <r>    0.5910    1.0000 </r>
       <r>    0.5962    1.0000 </r>
       <r>    0.7266    1.0000 </r>
       <r>    0.8283    1.0000 </r>
       <r>    0.9842    1.0000 </r>
       <r>    1.4553    1.0000 </r>
       <r>    1.6242    1.0000 </r>
       <r>    1.6855    1.0000 </r>
       <r>    1.7343    1.0000 </r>
       <r>    1.8125    1.0000 </r>
       <r>    1.9807    1.0000 </r>
       <r>    2.0833    1.0000 </r>
       <r>    2.4798    1.0000 </r>
       <r>    3.4884    0.0000 </r>
       <r>    5.0727    0.0000 </r>
       <r>    5.7589    0.0000 </r>
       <r>    6.9555    0.0000 </r>
       <r>    7.5318    0.0000 </r>
       <r>    7.9225    0.0000 </r>
       <r>    7.9733    0.0000 </r>
       <r>    8.5752    0.0000 </r>
       <r>    8.7704    0.0000 </r>
       <r>    9.1207    0.0000 </r>
       <r>    9.1972    0.0000 </r>
       <r>    9.3043    0.0000 </r>
       <r>    9.3465    0.0000 </r>
       <r>   10.0046    0.0000 </r>
       <r>   10.0552    0.0000 </r>
       <r>   10.2725    0.0000 </r>
       <r>   10.6845    0.0000 </r>
      </set>
      <set comment="kpoint 5">
       <r>  -32.2805    1.0000 </r>
       <r>  -31.2715    1.0000 </r>
       <r>  -30.5652    1.0000 </r>
       <r>  -15.0320    1.0000 </r>
       <r>  -14.8544    1.0000 </r>
       <r>  -14.4932    1.0000 </r>
       <r>  -14.4421    1.0000 </r>
       <r>  -14.1594    1.0000 </r>
       <r>  -13.8444    1.0000 </r>
       <r>  -13.8197    1.0000 </r>
       <r>  -13.7101    1.0000 </r>
       <r>  -13.5612    1.0000 </r>
       <r>  -13.2163    1.0000 </r>
       <r>  -13.0947    1.0000 </r>
       <r>  -12.8048    1.0000 </r>
       <r>  -12.4860    1.0000 </r>
       <r>  -12.4069    1.0000 </r>
       <r>  -12.2493    1.0000 </r>
       <r>   -2.1812    1.0000 </r>
       <r>   -1.9850    1.0000 </r>
       <r>   -1.8500    1.0000 </r>
       <r>   -1.6850    1.0000 </r>
       <r>   -1.5997    1.0000 </r>
       <r>   -1.5862    1.0000 </r>
       <r>   -1.3246    1.0000 </r>
       <r>   -1.2757    1.0000 </r>
       <r>   -1.1388    1.0000 </r>
       <r>   -1.1136    1.0000 </r>
       <r>   -1.0935    1.0000 </r>
       <r>   -1.0245    1.0000 </r>
       <r>   -0.9588    1.0000 </r>
       <r>   -0.8963    1.0000 </r>
       <r>   -0.5582    1.0000 </r>
       <r>   -0.4143    1.0000 </r>
       <r>   -0.3484    1.0000 </r>
       <r>    0.1206    1.0000 </r>
       <r>    0.1699    1.0000 </r>
       <r>    0.4928    1.0000 </r>
       <r>    0.5999    1.0000 </r>
       <r>    0.9186    1.0000 </r>
       <r>    1.0522    1.0000 </r>
       <r>    1.1594    1.0000 </r>
       <r>    1.2292    1.0000 </r>
       <r>    1.3443    1.0000 </r>
       <r>    1.4486    1.0000 </r>
       <r>    1.5238    1.0000 </r>
       <r>    1.6054    1.0000 </r>
       <r>    2.0147    1.0000 </r>
       <r>    2.4141    1.0000 </r>
       <r>    2.6138    1.0000 </r>
       <r>    2.7874    0.7039 </r>
       <r>    3.6809    0.0000 </r>
       <r>    5.4005    0.0000 </r>
       <r>    5.8866    0.0000 </r>
       <r>    6.9343    0.0000 </r>
       <r>    7.4670    0.0000 </r>
       <r>    7.8173    0.0000 </r>
       <r>    8.2255    0.0000 </r>
       <r>    8.2835    0.0000 </r>
       <r>    8.5385    0.0000 </r>
       <r>    8.9102    0.0000 </r>
       <r>    9.1256    0.0000 </r>
       <r>    9.6576    0.0000 </r>
       <r>    9.8498    0.0000 </r>
       <r>    9.8887    0.0000 </r>
       <r>   10.3625    0.0000 </r>
       <r>   10.3994    0.0000 </r>
       <r>   10.6195    0.0000 </r>
      </set>
      <set comment="kpoint 6">
       <r>  -32.2736    1.0000 </r>
       <r>  -31.2643    1.0000 </r>
       <r>  -30.5577    1.0000 </r>
       <r>  -15.0596    1.0000 </r>
       <r>  -14.7017    1.0000 </r>
       <r>  -14.4683    1.0000 </r>
       <r>  -14.3250    1.0000 </r>
       <r>  -14.2404    1.0000 </r>
       <r>  -13.9612    1.0000 </r>
       <r>  -13.8423    1.0000 </r>
       <r>  -13.7307    1.0000 </r>
       <r>  -13.6403    1.0000 </r>
       <r>  -13.1672    1.0000 </r>
       <r>  -13.0250    1.0000 </r>
       <r>  -12.8690    1.0000 </r>
       <r>  -12.5866    1.0000 </r>
       <r>  -12.4281    1.0000 </r>
       <r>  -12.1651    1.0000 </r>
       <r>   -2.6518    1.0000 </r>
       <r>   -2.5241    1.0000 </r>
       <r>   -2.1591    1.0000 </r>
       <r>   -1.9741    1.0000 </r>
       <r>   -1.6714    1.0000 </r>
       <r>   -1.6003    1.0000 </r>
       <r>   -1.5270    1.0000 </r>
       <r>   -1.4996    1.0000 </r>
       <r>   -1.4445    1.0000 </r>
       <r>   -1.3554    1.0000 </r>
       <r>   -1.2102    1.0000 </r>
       <r>   -1.1446    1.0000 </r>
       <r>   -0.9807    1.0000 </r>
       <r>   -0.9514    1.0000 </r>
       <r>   -0.6287    1.0000 </r>
       <r>   -0.3634    1.0000 </r>
       <r>   -0.1370    1.0000 </r>
       <r>    0.2173    1.0000 </r>
       <r>    0.3988    1.0000 </r>
       <r>    0.4907    1.0000 </r>
       <r>    0.7195    1.0000 </r>
       <r>    0.9864    1.0000 </r>
       <r>    1.1647    1.0000 </r>
       <r>    1.2510    1.0000 </r>
       <r>    1.2695    1.0000 </r>
       <r>    1.3910    1.0000 </r>
       <r>    1.7089    1.0000 </r>
       <r>    1.7646    1.0000 </r>
       <r>    1.9580    1.0000 </r>
       <r>    2.1243    1.0000 </r>
       <r>    2.3628    1.0000 </r>
       <r>    3.0321    0.0000 </r>
       <r>    3.2104    0.0000 </r>
       <r>    4.2170    0.0000 </r>
       <r>    5.0851    0.0000 </r>
       <r>    6.0631    0.0000 </r>
       <r>    6.9119    0.0000 </r>
       <r>    7.6132    0.0000 </r>
       <r>    7.8818    0.0000 </r>
       <r>    8.1970    0.0000 </r>
       <r>    8.4564    0.0000 </r>
       <r>    9.0913    0.0000 </r>
       <r>    9.1857    0.0000 </r>
       <r>    9.5158    0.0000 </r>
       <r>    9.9332    0.0000 </r>
       <r>   10.0351    0.0000 </r>
       <r>   10.3763    0.0000 </r>
       <r>   10.4243    0.0000 </r>
       <r>   10.6267    0.0000 </r>
       <r>   10.7447    0.0000 </r>
      </set>
      <set comment="kpoint 7">
       <r>  -32.2777    1.0000 </r>
       <r>  -31.2687    1.0000 </r>
       <r>  -30.5622    1.0000 </r>
       <r>  -14.9477    1.0000 </r>
       <r>  -14.8165    1.0000 </r>
       <r>  -14.4617    1.0000 </r>
       <r>  -14.3785    1.0000 </r>
       <r>  -14.1702    1.0000 </r>
       <r>  -14.0719    1.0000 </r>
       <r>  -13.8772    1.0000 </r>
       <r>  -13.6745    1.0000 </r>
       <r>  -13.6062    1.0000 </r>
       <r>  -13.2599    1.0000 </r>
       <r>  -13.0523    1.0000 </r>
       <r>  -12.7701    1.0000 </r>
       <r>  -12.3913    1.0000 </r>
       <r>  -12.3843    1.0000 </r>
       <r>  -12.1820    1.0000 </r>
       <r>   -3.0591    1.0000 </r>
       <r>   -2.5341    1.0000 </r>
       <r>   -2.5034    1.0000 </r>
       <r>   -2.1318    1.0000 </r>
       <r>   -1.7952    1.0000 </r>
       <r>   -1.4805    1.0000 </r>
       <r>   -1.3542    1.0000 </r>
       <r>   -1.2883    1.0000 </r>
       <r>   -1.2003    1.0000 </r>
       <r>   -1.1482    1.0000 </r>
       <r>   -0.9563    1.0000 </r>
       <r>   -0.6380    1.0000 </r>
       <r>   -0.5345    1.0000 </r>
       <r>   -0.4878    1.0000 </r>
       <r>   -0.4574    1.0000 </r>
       <r>   -0.4023    1.0000 </r>
       <r>   -0.1678    1.0000 </r>
       <r>   -0.0667    1.0000 </r>
       <r>    0.0925    1.0000 </r>
       <r>    0.6239    1.0000 </r>
       <r>    0.7805    1.0000 </r>
       <r>    0.9394    1.0000 </r>
       <r>    1.1756    1.0000 </r>
       <r>    1.1928    1.0000 </r>
       <r>    1.2360    1.0000 </r>
       <r>    1.4509    1.0000 </r>
       <r>    1.6272    1.0000 </r>
       <r>    1.6496    1.0000 </r>
       <r>    1.7256    1.0000 </r>
       <r>    1.8546    1.0000 </r>
       <r>    2.0183    1.0000 </r>
       <r>    2.0224    1.0000 </r>
       <r>    2.7681    0.8604 </r>
       <r>    4.8566    0.0000 </r>
       <r>    6.0860    0.0000 </r>
       <r>    6.5238    0.0000 </r>
       <r>    7.0276    0.0000 </r>
       <r>    7.0908    0.0000 </r>
       <r>    7.3214    0.0000 </r>
       <r>    7.8100    0.0000 </r>
       <r>    8.4223    0.0000 </r>
       <r>    8.4732    0.0000 </r>
       <r>    9.2135    0.0000 </r>
       <r>    9.4197    0.0000 </r>
       <r>    9.4877    0.0000 </r>
       <r>   10.0275    0.0000 </r>
       <r>   10.1342    0.0000 </r>
       <r>   10.4778    0.0000 </r>
       <r>   10.7444    0.0000 </r>
       <r>   10.8847    0.0000 </r>
      </set>
      <set comment="kpoint 8">
       <r>  -32.2736    1.0000 </r>
       <r>  -31.2643    1.0000 </r>
       <r>  -30.5578    1.0000 </r>
       <r>  -14.8847    1.0000 </r>
       <r>  -14.8075    1.0000 </r>
       <r>  -14.5241    1.0000 </r>
       <r>  -14.3497    1.0000 </r>
       <r>  -14.0908    1.0000 </r>
       <r>  -13.9784    1.0000 </r>
       <r>  -13.8926    1.0000 </r>
       <r>  -13.7457    1.0000 </r>
       <r>  -13.6547    1.0000 </r>
       <r>  -13.1527    1.0000 </r>
       <r>  -13.0419    1.0000 </r>
       <r>  -12.8579    1.0000 </r>
       <r>  -12.4686    1.0000 </r>
       <r>  -12.3891    1.0000 </r>
       <r>  -12.2650    1.0000 </r>
       <r>   -3.0332    1.0000 </r>
       <r>   -2.6099    1.0000 </r>
       <r>   -2.5282    1.0000 </r>
       <r>   -2.1187    1.0000 </r>
       <r>   -1.7485    1.0000 </r>
       <r>   -1.6518    1.0000 </r>
       <r>   -1.5702    1.0000 </r>
       <r>   -1.5160    1.0000 </r>
       <r>   -1.4794    1.0000 </r>
       <r>   -1.4181    1.0000 </r>
       <r>   -1.3229    1.0000 </r>
       <r>   -1.1982    1.0000 </r>
       <r>   -1.1244    1.0000 </r>
       <r>   -1.0071    1.0000 </r>
       <r>   -0.5644    1.0000 </r>
       <r>   -0.3822    1.0000 </r>
       <r>   -0.2859    1.0000 </r>
       <r>    0.3418    1.0000 </r>
       <r>    0.6040    1.0000 </r>
       <r>    0.9060    1.0000 </r>
       <r>    1.0153    1.0000 </r>
       <r>    1.0866    1.0000 </r>
       <r>    1.1987    1.0000 </r>
       <r>    1.3159    1.0000 </r>
       <r>    1.3627    1.0000 </r>
       <r>    1.5157    1.0000 </r>
       <r>    1.5673    1.0000 </r>
       <r>    1.7754    1.0000 </r>
       <r>    2.0264    1.0000 </r>
       <r>    2.1546    1.0000 </r>
       <r>    2.3729    1.0000 </r>
       <r>    3.0296    0.0000 </r>
       <r>    3.1884    0.0000 </r>
       <r>    4.7736    0.0000 </r>
       <r>    5.5581    0.0000 </r>
       <r>    6.0629    0.0000 </r>
       <r>    6.9974    0.0000 </r>
       <r>    7.5319    0.0000 </r>
       <r>    7.9714    0.0000 </r>
       <r>    8.0546    0.0000 </r>
       <r>    8.4284    0.0000 </r>
       <r>    9.0256    0.0000 </r>
       <r>    9.2326    0.0000 </r>
       <r>    9.4645    0.0000 </r>
       <r>    9.8949    0.0000 </r>
       <r>   10.0118    0.0000 </r>
       <r>   10.0972    0.0000 </r>
       <r>   10.3123    0.0000 </r>
       <r>   10.5639    0.0000 </r>
       <r>   10.9324    0.0000 </r>
      </set>
      <set comment="kpoint 9">
       <r>  -32.2668    1.0000 </r>
       <r>  -31.2573    1.0000 </r>
       <r>  -30.5506    1.0000 </r>
       <r>  -14.9480    1.0000 </r>
       <r>  -14.7496    1.0000 </r>
       <r>  -14.4432    1.0000 </r>
       <r>  -14.1668    1.0000 </r>
       <r>  -14.0981    1.0000 </r>
       <r>  -14.0305    1.0000 </r>
       <r>  -13.8685    1.0000 </r>
       <r>  -13.7001    1.0000 </r>
       <r>  -13.6535    1.0000 </r>
       <r>  -13.0648    1.0000 </r>
       <r>  -13.0351    1.0000 </r>
       <r>  -13.0222    1.0000 </r>
       <r>  -12.6101    1.0000 </r>
       <r>  -12.4733    1.0000 </r>
       <r>  -12.3202    1.0000 </r>
       <r>   -3.0533    1.0000 </r>
       <r>   -2.9820    1.0000 </r>
       <r>   -2.7833    1.0000 </r>
       <r>   -2.2905    1.0000 </r>
       <r>   -2.2238    1.0000 </r>
       <r>   -2.0943    1.0000 </r>
       <r>   -2.0454    1.0000 </r>
       <r>   -1.7962    1.0000 </r>
       <r>   -1.5598    1.0000 </r>
       <r>   -1.5051    1.0000 </r>
       <r>   -1.3778    1.0000 </r>
       <r>   -1.3397    1.0000 </r>
       <r>   -1.2959    1.0000 </r>
       <r>   -1.2688    1.0000 </r>
       <r>   -0.6147    1.0000 </r>
       <r>   -0.3807    1.0000 </r>
       <r>   -0.1194    1.0000 </r>
       <r>    0.6056    1.0000 </r>
       <r>    0.9248    1.0000 </r>
       <r>    1.1526    1.0000 </r>
       <r>    1.1606    1.0000 </r>
       <r>    1.2564    1.0000 </r>
       <r>    1.3543    1.0000 </r>
       <r>    1.4116    1.0000 </r>
       <r>    1.4320    1.0000 </r>
       <r>    1.5484    1.0000 </r>
       <r>    1.7940    1.0000 </r>
       <r>    2.0442    1.0000 </r>
       <r>    2.2592    1.0000 </r>
       <r>    2.2847    1.0000 </r>
       <r>    2.6254    1.0000 </r>
       <r>    4.1354    0.0000 </r>
       <r>    4.1565    0.0000 </r>
       <r>    4.4331    0.0000 </r>
       <r>    4.6114    0.0000 </r>
       <r>    5.7025    0.0000 </r>
       <r>    8.1180    0.0000 </r>
       <r>    8.2538    0.0000 </r>
       <r>    8.4193    0.0000 </r>
       <r>    8.5620    0.0000 </r>
       <r>    8.8306    0.0000 </r>
       <r>    9.3196    0.0000 </r>
       <r>    9.4506    0.0000 </r>
       <r>    9.7309    0.0000 </r>
       <r>    9.9136    0.0000 </r>
       <r>   10.1361    0.0000 </r>
       <r>   10.2411    0.0000 </r>
       <r>   10.6990    0.0000 </r>
       <r>   10.8189    0.0000 </r>
       <r>   11.1087    0.0000 </r>
      </set>
      <set comment="kpoint 10">
       <r>  -32.2889    1.0000 </r>
       <r>  -31.2803    1.0000 </r>
       <r>  -30.5746    1.0000 </r>
       <r>  -15.2278    1.0000 </r>
       <r>  -14.8557    1.0000 </r>
       <r>  -14.6220    1.0000 </r>
       <r>  -14.3344    1.0000 </r>
       <r>  -14.1882    1.0000 </r>
       <r>  -13.8012    1.0000 </r>
       <r>  -13.6886    1.0000 </r>
       <r>  -13.5354    1.0000 </r>
       <r>  -13.3373    1.0000 </r>
       <r>  -13.2861    1.0000 </r>
       <r>  -13.2786    1.0000 </r>
       <r>  -12.7604    1.0000 </r>
       <r>  -12.5208    1.0000 </r>
       <r>  -12.4244    1.0000 </r>
       <r>  -12.3408    1.0000 </r>
       <r>   -2.1577    1.0000 </r>
       <r>   -1.1240    1.0000 </r>
       <r>   -1.0343    1.0000 </r>
       <r>   -0.9834    1.0000 </r>
       <r>   -0.9483    1.0000 </r>
       <r>   -0.8901    1.0000 </r>
       <r>   -0.8153    1.0000 </r>
       <r>   -0.7977    1.0000 </r>
       <r>   -0.7092    1.0000 </r>
       <r>   -0.6780    1.0000 </r>
       <r>   -0.6560    1.0000 </r>
       <r>   -0.6483    1.0000 </r>
       <r>   -0.6180    1.0000 </r>
       <r>   -0.6137    1.0000 </r>
       <r>   -0.5293    1.0000 </r>
       <r>   -0.4956    1.0000 </r>
       <r>   -0.4821    1.0000 </r>
       <r>   -0.4776    1.0000 </r>
       <r>   -0.1177    1.0000 </r>
       <r>   -0.0786    1.0000 </r>
       <r>   -0.0038    1.0000 </r>
       <r>    0.1819    1.0000 </r>
       <r>    0.3876    1.0000 </r>
       <r>    0.5418    1.0000 </r>
       <r>    0.7307    1.0000 </r>
       <r>    1.3516    1.0000 </r>
       <r>    1.6033    1.0000 </r>
       <r>    1.6433    1.0000 </r>
       <r>    1.6885    1.0000 </r>
       <r>    1.8706    1.0000 </r>
       <r>    1.9639    1.0000 </r>
       <r>    2.1381    1.0000 </r>
       <r>    2.2530    1.0000 </r>
       <r>    2.8242    0.3066 </r>
       <r>    4.3462    0.0000 </r>
       <r>    5.6445    0.0000 </r>
       <r>    6.6300    0.0000 </r>
       <r>    7.6096    0.0000 </r>
       <r>    7.7612    0.0000 </r>
       <r>    8.1101    0.0000 </r>
       <r>    8.4298    0.0000 </r>
       <r>    8.5624    0.0000 </r>
       <r>    8.8443    0.0000 </r>
       <r>    9.0124    0.0000 </r>
       <r>    9.1828    0.0000 </r>
       <r>    9.7496    0.0000 </r>
       <r>   10.1259    0.0000 </r>
       <r>   10.2138    0.0000 </r>
       <r>   10.4046    0.0000 </r>
       <r>   10.4656    0.0000 </r>
      </set>
      <set comment="kpoint 11">
       <r>  -32.2847    1.0000 </r>
       <r>  -31.2759    1.0000 </r>
       <r>  -30.5698    1.0000 </r>
       <r>  -15.1149    1.0000 </r>
       <r>  -14.9240    1.0000 </r>
       <r>  -14.5589    1.0000 </r>
       <r>  -14.3276    1.0000 </r>
       <r>  -14.1894    1.0000 </r>
       <r>  -13.8829    1.0000 </r>
       <r>  -13.7835    1.0000 </r>
       <r>  -13.5937    1.0000 </r>
       <r>  -13.4877    1.0000 </r>
       <r>  -13.2790    1.0000 </r>
       <r>  -13.1243    1.0000 </r>
       <r>  -12.7753    1.0000 </r>
       <r>  -12.5084    1.0000 </r>
       <r>  -12.3935    1.0000 </r>
       <r>  -12.2669    1.0000 </r>
       <r>   -2.1587    1.0000 </r>
       <r>   -1.7491    1.0000 </r>
       <r>   -1.6348    1.0000 </r>
       <r>   -1.3065    1.0000 </r>
       <r>   -1.1404    1.0000 </r>
       <r>   -1.1136    1.0000 </r>
       <r>   -1.0695    1.0000 </r>
       <r>   -1.0234    1.0000 </r>
       <r>   -0.8103    1.0000 </r>
       <r>   -0.6456    1.0000 </r>
       <r>   -0.6180    1.0000 </r>
       <r>   -0.5916    1.0000 </r>
       <r>   -0.5492    1.0000 </r>
       <r>   -0.5324    1.0000 </r>
       <r>   -0.5189    1.0000 </r>
       <r>   -0.4960    1.0000 </r>
       <r>   -0.4106    1.0000 </r>
       <r>   -0.3540    1.0000 </r>
       <r>   -0.1031    1.0000 </r>
       <r>   -0.0584    1.0000 </r>
       <r>    0.0409    1.0000 </r>
       <r>    0.5558    1.0000 </r>
       <r>    0.7357    1.0000 </r>
       <r>    0.7785    1.0000 </r>
       <r>    0.9034    1.0000 </r>
       <r>    1.3591    1.0000 </r>
       <r>    1.5296    1.0000 </r>
       <r>    1.6452    1.0000 </r>
       <r>    1.7261    1.0000 </r>
       <r>    1.8425    1.0000 </r>
       <r>    1.9351    1.0000 </r>
       <r>    2.1622    1.0000 </r>
       <r>    2.2243    1.0000 </r>
       <r>    3.1689    0.0000 </r>
       <r>    5.0074    0.0000 </r>
       <r>    5.9287    0.0000 </r>
       <r>    6.6346    0.0000 </r>
       <r>    7.8039    0.0000 </r>
       <r>    8.0823    0.0000 </r>
       <r>    8.2695    0.0000 </r>
       <r>    8.4073    0.0000 </r>
       <r>    8.5505    0.0000 </r>
       <r>    8.8098    0.0000 </r>
       <r>    9.0102    0.0000 </r>
       <r>    9.1323    0.0000 </r>
       <r>    9.4840    0.0000 </r>
       <r>    9.8333    0.0000 </r>
       <r>   10.1821    0.0000 </r>
       <r>   10.3466    0.0000 </r>
       <r>   10.5369    0.0000 </r>
      </set>
      <set comment="kpoint 12">
       <r>  -32.2778    1.0000 </r>
       <r>  -31.2687    1.0000 </r>
       <r>  -30.5620    1.0000 </r>
       <r>  -15.1246    1.0000 </r>
       <r>  -14.7494    1.0000 </r>
       <r>  -14.5184    1.0000 </r>
       <r>  -14.3167    1.0000 </r>
       <r>  -14.1941    1.0000 </r>
       <r>  -14.0002    1.0000 </r>
       <r>  -13.9201    1.0000 </r>
       <r>  -13.7056    1.0000 </r>
       <r>  -13.5649    1.0000 </r>
       <r>  -13.2675    1.0000 </r>
       <r>  -13.0359    1.0000 </r>
       <r>  -12.7946    1.0000 </r>
       <r>  -12.4882    1.0000 </r>
       <r>  -12.4600    1.0000 </r>
       <r>  -12.0739    1.0000 </r>
       <r>   -2.5806    1.0000 </r>
       <r>   -2.4984    1.0000 </r>
       <r>   -2.1561    1.0000 </r>
       <r>   -1.6049    1.0000 </r>
       <r>   -1.4101    1.0000 </r>
       <r>   -1.3095    1.0000 </r>
       <r>   -1.2275    1.0000 </r>
       <r>   -1.1004    1.0000 </r>
       <r>   -0.8033    1.0000 </r>
       <r>   -0.6502    1.0000 </r>
       <r>   -0.6184    1.0000 </r>
       <r>   -0.6038    1.0000 </r>
       <r>   -0.5969    1.0000 </r>
       <r>   -0.5327    1.0000 </r>
       <r>   -0.4252    1.0000 </r>
       <r>   -0.3783    1.0000 </r>
       <r>   -0.3442    1.0000 </r>
       <r>   -0.1582    1.0000 </r>
       <r>   -0.0934    1.0000 </r>
       <r>   -0.0344    1.0000 </r>
       <r>    0.2295    1.0000 </r>
       <r>    0.7029    1.0000 </r>
       <r>    0.7540    1.0000 </r>
       <r>    1.0274    1.0000 </r>
       <r>    1.1978    1.0000 </r>
       <r>    1.2452    1.0000 </r>
       <r>    1.3757    1.0000 </r>
       <r>    1.6463    1.0000 </r>
       <r>    1.7987    1.0000 </r>
       <r>    1.9120    1.0000 </r>
       <r>    1.9673    1.0000 </r>
       <r>    2.0185    1.0000 </r>
       <r>    2.6079    1.0000 </r>
       <r>    3.9652    0.0000 </r>
       <r>    5.3081    0.0000 </r>
       <r>    6.2961    0.0000 </r>
       <r>    6.7132    0.0000 </r>
       <r>    7.6416    0.0000 </r>
       <r>    7.6794    0.0000 </r>
       <r>    7.9677    0.0000 </r>
       <r>    8.4745    0.0000 </r>
       <r>    8.5348    0.0000 </r>
       <r>    9.0026    0.0000 </r>
       <r>    9.2606    0.0000 </r>
       <r>    9.6192    0.0000 </r>
       <r>   10.0027    0.0000 </r>
       <r>   10.2572    0.0000 </r>
       <r>   10.3821    0.0000 </r>
       <r>   10.5668    0.0000 </r>
       <r>   10.7038    0.0000 </r>
      </set>
      <set comment="kpoint 13">
       <r>  -32.2847    1.0000 </r>
       <r>  -31.2759    1.0000 </r>
       <r>  -30.5699    1.0000 </r>
       <r>  -15.1347    1.0000 </r>
       <r>  -14.7948    1.0000 </r>
       <r>  -14.5702    1.0000 </r>
       <r>  -14.3956    1.0000 </r>
       <r>  -14.1814    1.0000 </r>
       <r>  -13.8761    1.0000 </r>
       <r>  -13.7952    1.0000 </r>
       <r>  -13.5905    1.0000 </r>
       <r>  -13.4972    1.0000 </r>
       <r>  -13.2715    1.0000 </r>
       <r>  -13.1311    1.0000 </r>
       <r>  -12.7720    1.0000 </r>
       <r>  -12.4118    1.0000 </r>
       <r>  -12.3850    1.0000 </r>
       <r>  -12.3400    1.0000 </r>
       <r>   -2.1952    1.0000 </r>
       <r>   -1.9905    1.0000 </r>
       <r>   -1.7081    1.0000 </r>
       <r>   -1.6459    1.0000 </r>
       <r>   -1.4491    1.0000 </r>
       <r>   -1.1540    1.0000 </r>
       <r>   -1.0448    1.0000 </r>
       <r>   -1.0428    1.0000 </r>
       <r>   -0.9756    1.0000 </r>
       <r>   -0.9488    1.0000 </r>
       <r>   -0.9017    1.0000 </r>
       <r>   -0.6222    1.0000 </r>
       <r>   -0.5769    1.0000 </r>
       <r>   -0.5388    1.0000 </r>
       <r>   -0.5247    1.0000 </r>
       <r>   -0.4397    1.0000 </r>
       <r>   -0.4013    1.0000 </r>
       <r>   -0.3455    1.0000 </r>
       <r>    0.0597    1.0000 </r>
       <r>    0.3231    1.0000 </r>
       <r>    0.5772    1.0000 </r>
       <r>    0.5909    1.0000 </r>
       <r>    0.7362    1.0000 </r>
       <r>    0.8242    1.0000 </r>
       <r>    1.0160    1.0000 </r>
       <r>    1.4207    1.0000 </r>
       <r>    1.6732    1.0000 </r>
       <r>    1.6998    1.0000 </r>
       <r>    1.7298    1.0000 </r>
       <r>    1.7987    1.0000 </r>
       <r>    1.9870    1.0000 </r>
       <r>    2.0816    1.0000 </r>
       <r>    2.4798    1.0000 </r>
       <r>    3.4860    0.0000 </r>
       <r>    4.9958    0.0000 </r>
       <r>    5.8863    0.0000 </r>
       <r>    6.9441    0.0000 </r>
       <r>    7.6161    0.0000 </r>
       <r>    7.9227    0.0000 </r>
       <r>    8.1286    0.0000 </r>
       <r>    8.2657    0.0000 </r>
       <r>    8.6842    0.0000 </r>
       <r>    8.9248    0.0000 </r>
       <r>    9.1176    0.0000 </r>
       <r>    9.3448    0.0000 </r>
       <r>    9.4311    0.0000 </r>
       <r>   10.0053    0.0000 </r>
       <r>   10.1540    0.0000 </r>
       <r>   10.2674    0.0000 </r>
       <r>   10.5900    0.0000 </r>
      </set>
      <set comment="kpoint 14">
       <r>  -32.2805    1.0000 </r>
       <r>  -31.2715    1.0000 </r>
       <r>  -30.5652    1.0000 </r>
       <r>  -15.0336    1.0000 </r>
       <r>  -14.8554    1.0000 </r>
       <r>  -14.4883    1.0000 </r>
       <r>  -14.4427    1.0000 </r>
       <r>  -14.1465    1.0000 </r>
       <r>  -13.8669    1.0000 </r>
       <r>  -13.8308    1.0000 </r>
       <r>  -13.6908    1.0000 </r>
       <r>  -13.5671    1.0000 </r>
       <r>  -13.2107    1.0000 </r>
       <r>  -13.0943    1.0000 </r>
       <r>  -12.8042    1.0000 </r>
       <r>  -12.4864    1.0000 </r>
       <r>  -12.4075    1.0000 </r>
       <r>  -12.2497    1.0000 </r>
       <r>   -2.1832    1.0000 </r>
       <r>   -1.9845    1.0000 </r>
       <r>   -1.8481    1.0000 </r>
       <r>   -1.6826    1.0000 </r>
       <r>   -1.6008    1.0000 </r>
       <r>   -1.5852    1.0000 </r>
       <r>   -1.3915    1.0000 </r>
       <r>   -1.1774    1.0000 </r>
       <r>   -1.1403    1.0000 </r>
       <r>   -1.1229    1.0000 </r>
       <r>   -1.1067    1.0000 </r>
       <r>   -0.9989    1.0000 </r>
       <r>   -0.9533    1.0000 </r>
       <r>   -0.9403    1.0000 </r>
       <r>   -0.5636    1.0000 </r>
       <r>   -0.3877    1.0000 </r>
       <r>   -0.3004    1.0000 </r>
       <r>   -0.0705    1.0000 </r>
       <r>    0.3930    1.0000 </r>
       <r>    0.4501    1.0000 </r>
       <r>    0.5118    1.0000 </r>
       <r>    0.9096    1.0000 </r>
       <r>    1.0713    1.0000 </r>
       <r>    1.1784    1.0000 </r>
       <r>    1.2336    1.0000 </r>
       <r>    1.3392    1.0000 </r>
       <r>    1.4467    1.0000 </r>
       <r>    1.5210    1.0000 </r>
       <r>    1.6094    1.0000 </r>
       <r>    2.0203    1.0000 </r>
       <r>    2.4204    1.0000 </r>
       <r>    2.6145    1.0000 </r>
       <r>    2.7874    0.7034 </r>
       <r>    3.6735    0.0000 </r>
       <r>    5.4064    0.0000 </r>
       <r>    5.8741    0.0000 </r>
       <r>    6.9543    0.0000 </r>
       <r>    7.4567    0.0000 </r>
       <r>    7.8486    0.0000 </r>
       <r>    8.1770    0.0000 </r>
       <r>    8.4312    0.0000 </r>
       <r>    8.5327    0.0000 </r>
       <r>    8.7936    0.0000 </r>
       <r>    9.0534    0.0000 </r>
       <r>    9.3056    0.0000 </r>
       <r>    9.9354    0.0000 </r>
       <r>    9.9772    0.0000 </r>
       <r>   10.4007    0.0000 </r>
       <r>   10.4668    0.0000 </r>
       <r>   10.5415    0.0000 </r>
      </set>
      <set comment="kpoint 15">
       <r>  -32.2736    1.0000 </r>
       <r>  -31.2643    1.0000 </r>
       <r>  -30.5577    1.0000 </r>
       <r>  -15.0558    1.0000 </r>
       <r>  -14.7065    1.0000 </r>
       <r>  -14.5059    1.0000 </r>
       <r>  -14.3283    1.0000 </r>
       <r>  -14.1390    1.0000 </r>
       <r>  -13.9675    1.0000 </r>
       <r>  -13.8617    1.0000 </r>
       <r>  -13.8297    1.0000 </r>
       <r>  -13.5733    1.0000 </r>
       <r>  -13.1721    1.0000 </r>
       <r>  -13.0249    1.0000 </r>
       <r>  -12.8657    1.0000 </r>
       <r>  -12.5855    1.0000 </r>
       <r>  -12.4287    1.0000 </r>
       <r>  -12.1659    1.0000 </r>
       <r>   -2.6545    1.0000 </r>
       <r>   -2.5229    1.0000 </r>
       <r>   -2.1585    1.0000 </r>
       <r>   -1.9737    1.0000 </r>
       <r>   -1.6736    1.0000 </r>
       <r>   -1.6047    1.0000 </r>
       <r>   -1.5207    1.0000 </r>
       <r>   -1.4838    1.0000 </r>
       <r>   -1.4614    1.0000 </r>
       <r>   -1.3536    1.0000 </r>
       <r>   -1.2108    1.0000 </r>
       <r>   -1.1414    1.0000 </r>
       <r>   -0.9732    1.0000 </r>
       <r>   -0.9608    1.0000 </r>
       <r>   -0.6320    1.0000 </r>
       <r>   -0.2619    1.0000 </r>
       <r>   -0.2088    1.0000 </r>
       <r>    0.1709    1.0000 </r>
       <r>    0.3412    1.0000 </r>
       <r>    0.5423    1.0000 </r>
       <r>    0.7381    1.0000 </r>
       <r>    0.9842    1.0000 </r>
       <r>    1.1645    1.0000 </r>
       <r>    1.2467    1.0000 </r>
       <r>    1.2906    1.0000 </r>
       <r>    1.3691    1.0000 </r>
       <r>    1.7267    1.0000 </r>
       <r>    1.7550    1.0000 </r>
       <r>    1.9545    1.0000 </r>
       <r>    2.1302    1.0000 </r>
       <r>    2.3713    1.0000 </r>
       <r>    3.0277    0.0000 </r>
       <r>    3.2218    0.0000 </r>
       <r>    4.2208    0.0000 </r>
       <r>    5.0653    0.0000 </r>
       <r>    6.0532    0.0000 </r>
       <r>    6.8970    0.0000 </r>
       <r>    7.6565    0.0000 </r>
       <r>    7.9201    0.0000 </r>
       <r>    8.2206    0.0000 </r>
       <r>    8.4171    0.0000 </r>
       <r>    9.0887    0.0000 </r>
       <r>    9.1624    0.0000 </r>
       <r>    9.5887    0.0000 </r>
       <r>    9.7070    0.0000 </r>
       <r>   10.0475    0.0000 </r>
       <r>   10.1067    0.0000 </r>
       <r>   10.4548    0.0000 </r>
       <r>   10.6626    0.0000 </r>
       <r>   10.8143    0.0000 </r>
      </set>
      <set comment="kpoint 16">
       <r>  -32.2777    1.0000 </r>
       <r>  -31.2687    1.0000 </r>
       <r>  -30.5622    1.0000 </r>
       <r>  -14.9523    1.0000 </r>
       <r>  -14.8146    1.0000 </r>
       <r>  -14.4656    1.0000 </r>
       <r>  -14.3577    1.0000 </r>
       <r>  -14.1702    1.0000 </r>
       <r>  -14.0449    1.0000 </r>
       <r>  -13.9519    1.0000 </r>
       <r>  -13.6769    1.0000 </r>
       <r>  -13.5650    1.0000 </r>
       <r>  -13.2599    1.0000 </r>
       <r>  -13.0508    1.0000 </r>
       <r>  -12.7795    1.0000 </r>
       <r>  -12.3913    1.0000 </r>
       <r>  -12.3813    1.0000 </r>
       <r>  -12.1819    1.0000 </r>
       <r>   -3.0593    1.0000 </r>
       <r>   -2.5348    1.0000 </r>
       <r>   -2.5032    1.0000 </r>
       <r>   -2.1318    1.0000 </r>
       <r>   -1.8376    1.0000 </r>
       <r>   -1.3701    1.0000 </r>
       <r>   -1.3347    1.0000 </r>
       <r>   -1.2531    1.0000 </r>
       <r>   -1.2507    1.0000 </r>
       <r>   -1.2220    1.0000 </r>
       <r>   -0.9563    1.0000 </r>
       <r>   -0.6284    1.0000 </r>
       <r>   -0.5597    1.0000 </r>
       <r>   -0.4795    1.0000 </r>
       <r>   -0.4388    1.0000 </r>
       <r>   -0.3622    1.0000 </r>
       <r>   -0.1708    1.0000 </r>
       <r>   -0.1450    1.0000 </r>
       <r>    0.1259    1.0000 </r>
       <r>    0.5889    1.0000 </r>
       <r>    0.8234    1.0000 </r>
       <r>    0.9449    1.0000 </r>
       <r>    1.1149    1.0000 </r>
       <r>    1.1900    1.0000 </r>
       <r>    1.3540    1.0000 </r>
       <r>    1.4269    1.0000 </r>
       <r>    1.5439    1.0000 </r>
       <r>    1.6607    1.0000 </r>
       <r>    1.7268    1.0000 </r>
       <r>    1.8170    1.0000 </r>
       <r>    2.0120    1.0000 </r>
       <r>    2.0688    1.0000 </r>
       <r>    2.8049    0.5165 </r>
       <r>    4.8490    0.0000 </r>
       <r>    6.0969    0.0000 </r>
       <r>    6.4868    0.0000 </r>
       <r>    7.0693    0.0000 </r>
       <r>    7.0907    0.0000 </r>
       <r>    7.3270    0.0000 </r>
       <r>    7.7637    0.0000 </r>
       <r>    8.4441    0.0000 </r>
       <r>    8.4731    0.0000 </r>
       <r>    9.2047    0.0000 </r>
       <r>    9.3931    0.0000 </r>
       <r>    9.4715    0.0000 </r>
       <r>    9.9490    0.0000 </r>
       <r>   10.0622    0.0000 </r>
       <r>   10.3700    0.0000 </r>
       <r>   10.7243    0.0000 </r>
       <r>   10.9633    0.0000 </r>
      </set>
      <set comment="kpoint 17">
       <r>  -32.2736    1.0000 </r>
       <r>  -31.2643    1.0000 </r>
       <r>  -30.5578    1.0000 </r>
       <r>  -14.8863    1.0000 </r>
       <r>  -14.8057    1.0000 </r>
       <r>  -14.5246    1.0000 </r>
       <r>  -14.3539    1.0000 </r>
       <r>  -14.0958    1.0000 </r>
       <r>  -13.9497    1.0000 </r>
       <r>  -13.8919    1.0000 </r>
       <r>  -13.7642    1.0000 </r>
       <r>  -13.6584    1.0000 </r>
       <r>  -13.1540    1.0000 </r>
       <r>  -13.0405    1.0000 </r>
       <r>  -12.8551    1.0000 </r>
       <r>  -12.4692    1.0000 </r>
       <r>  -12.3891    1.0000 </r>
       <r>  -12.2649    1.0000 </r>
       <r>   -3.0340    1.0000 </r>
       <r>   -2.6109    1.0000 </r>
       <r>   -2.5274    1.0000 </r>
       <r>   -2.1187    1.0000 </r>
       <r>   -1.7337    1.0000 </r>
       <r>   -1.6697    1.0000 </r>
       <r>   -1.5810    1.0000 </r>
       <r>   -1.5298    1.0000 </r>
       <r>   -1.4587    1.0000 </r>
       <r>   -1.4094    1.0000 </r>
       <r>   -1.2868    1.0000 </r>
       <r>   -1.2361    1.0000 </r>
       <r>   -1.1248    1.0000 </r>
       <r>   -1.0067    1.0000 </r>
       <r>   -0.5647    1.0000 </r>
       <r>   -0.3539    1.0000 </r>
       <r>   -0.2501    1.0000 </r>
       <r>    0.1998    1.0000 </r>
       <r>    0.6585    1.0000 </r>
       <r>    0.8820    1.0000 </r>
       <r>    1.0585    1.0000 </r>
       <r>    1.1007    1.0000 </r>
       <r>    1.1838    1.0000 </r>
       <r>    1.2898    1.0000 </r>
       <r>    1.4209    1.0000 </r>
       <r>    1.4807    1.0000 </r>
       <r>    1.5301    1.0000 </r>
       <r>    1.8078    1.0000 </r>
       <r>    2.0139    1.0000 </r>
       <r>    2.1763    1.0000 </r>
       <r>    2.3957    1.0000 </r>
       <r>    3.0250    0.0000 </r>
       <r>    3.2073    0.0000 </r>
       <r>    4.7561    0.0000 </r>
       <r>    5.4567    0.0000 </r>
       <r>    6.1499    0.0000 </r>
       <r>    7.0109    0.0000 </r>
       <r>    7.5025    0.0000 </r>
       <r>    7.9819    0.0000 </r>
       <r>    8.0420    0.0000 </r>
       <r>    8.3752    0.0000 </r>
       <r>    9.0692    0.0000 </r>
       <r>    9.2565    0.0000 </r>
       <r>    9.4857    0.0000 </r>
       <r>    9.8076    0.0000 </r>
       <r>    9.9505    0.0000 </r>
       <r>   10.1595    0.0000 </r>
       <r>   10.3677    0.0000 </r>
       <r>   10.6762    0.0000 </r>
       <r>   10.8624    0.0000 </r>
      </set>
      <set comment="kpoint 18">
       <r>  -32.2668    1.0000 </r>
       <r>  -31.2573    1.0000 </r>
       <r>  -30.5506    1.0000 </r>
       <r>  -14.9456    1.0000 </r>
       <r>  -14.7495    1.0000 </r>
       <r>  -14.4589    1.0000 </r>
       <r>  -14.1468    1.0000 </r>
       <r>  -14.1368    1.0000 </r>
       <r>  -13.9535    1.0000 </r>
       <r>  -13.8875    1.0000 </r>
       <r>  -13.7199    1.0000 </r>
       <r>  -13.6653    1.0000 </r>
       <r>  -13.0681    1.0000 </r>
       <r>  -13.0267    1.0000 </r>
       <r>  -13.0219    1.0000 </r>
       <r>  -12.6083    1.0000 </r>
       <r>  -12.4733    1.0000 </r>
       <r>  -12.3219    1.0000 </r>
       <r>   -3.0705    1.0000 </r>
       <r>   -2.9635    1.0000 </r>
       <r>   -2.7846    1.0000 </r>
       <r>   -2.2905    1.0000 </r>
       <r>   -2.2238    1.0000 </r>
       <r>   -2.0937    1.0000 </r>
       <r>   -2.0262    1.0000 </r>
       <r>   -1.8255    1.0000 </r>
       <r>   -1.5598    1.0000 </r>
       <r>   -1.4906    1.0000 </r>
       <r>   -1.3811    1.0000 </r>
       <r>   -1.3410    1.0000 </r>
       <r>   -1.2960    1.0000 </r>
       <r>   -1.2689    1.0000 </r>
       <r>   -0.6147    1.0000 </r>
       <r>   -0.2710    1.0000 </r>
       <r>   -0.1898    1.0000 </r>
       <r>    0.4687    1.0000 </r>
       <r>    0.9547    1.0000 </r>
       <r>    1.0788    1.0000 </r>
       <r>    1.2028    1.0000 </r>
       <r>    1.2686    1.0000 </r>
       <r>    1.3922    1.0000 </r>
       <r>    1.4091    1.0000 </r>
       <r>    1.4285    1.0000 </r>
       <r>    1.5550    1.0000 </r>
       <r>    1.8091    1.0000 </r>
       <r>    2.0585    1.0000 </r>
       <r>    2.2490    1.0000 </r>
       <r>    2.3932    1.0000 </r>
       <r>    2.6248    1.0000 </r>
       <r>    4.1357    0.0000 </r>
       <r>    4.1562    0.0000 </r>
       <r>    4.4039    0.0000 </r>
       <r>    4.4515    0.0000 </r>
       <r>    5.8132    0.0000 </r>
       <r>    8.1527    0.0000 </r>
       <r>    8.2547    0.0000 </r>
       <r>    8.3875    0.0000 </r>
       <r>    8.5792    0.0000 </r>
       <r>    8.8068    0.0000 </r>
       <r>    9.3120    0.0000 </r>
       <r>    9.6228    0.0000 </r>
       <r>    9.7059    0.0000 </r>
       <r>    9.8585    0.0000 </r>
       <r>   10.0927    0.0000 </r>
       <r>   10.1498    0.0000 </r>
       <r>   10.4574    0.0000 </r>
       <r>   10.9272    0.0000 </r>
       <r>   11.3472    0.0000 </r>
      </set>
     </set>
     <set comment="spin 2">
      <set comment="kpoint 1">
       <r>  -32.2873    1.0000 </r>
       <r>  -31.2816    1.0000 </r>
       <r>  -30.5782    1.0000 </r>
       <r>  -15.1950    1.0000 </r>
       <r>  -14.8268    1.0000 </r>
       <r>  -14.4490    1.0000 </r>
       <r>  -14.3303    1.0000 </r>
       <r>  -14.1863    1.0000 </r>
       <r>  -13.7235    1.0000 </r>
       <r>  -13.6784    1.0000 </r>
       <r>  -13.2874    1.0000 </r>
       <r>  -13.2799    1.0000 </r>
       <r>  -13.1697    1.0000 </r>
       <r>  -13.1403    1.0000 </r>
       <r>  -12.7260    1.0000 </r>
       <r>  -12.5259    1.0000 </r>
       <r>  -12.4290    1.0000 </r>
       <r>  -12.3156    1.0000 </r>
       <r>   -1.3958    1.0000 </r>
       <r>   -1.0137    1.0000 </r>
       <r>   -0.9780    1.0000 </r>
       <r>   -0.9625    1.0000 </r>
       <r>   -0.9041    1.0000 </r>
       <r>   -0.7151    1.0000 </r>
       <r>   -0.7074    1.0000 </r>
       <r>   -0.6707    1.0000 </r>
       <r>   -0.6197    1.0000 </r>
       <r>   -0.6163    1.0000 </r>
       <r>   -0.6123    1.0000 </r>
       <r>   -0.6100    1.0000 </r>
       <r>   -0.4922    1.0000 </r>
       <r>   -0.4915    1.0000 </r>
       <r>   -0.3984    1.0000 </r>
       <r>   -0.3859    1.0000 </r>
       <r>   -0.3840    1.0000 </r>
       <r>   -0.3583    1.0000 </r>
       <r>   -0.0327    1.0000 </r>
       <r>    0.0318    1.0000 </r>
       <r>    0.4155    1.0000 </r>
       <r>    0.5458    1.0000 </r>
       <r>    0.7203    1.0000 </r>
       <r>    0.8656    1.0000 </r>
       <r>    0.9488    1.0000 </r>
       <r>    1.5094    1.0000 </r>
       <r>    1.6456    1.0000 </r>
       <r>    1.6893    1.0000 </r>
       <r>    2.0657    1.0000 </r>
       <r>    2.1251    1.0000 </r>
       <r>    2.2214    1.0000 </r>
       <r>    2.3314    1.0000 </r>
       <r>    2.4711    1.0000 </r>
       <r>    2.9380    0.0001 </r>
       <r>    4.6982    0.0000 </r>
       <r>    5.4144    0.0000 </r>
       <r>    6.7027    0.0000 </r>
       <r>    7.4293    0.0000 </r>
       <r>    7.7299    0.0000 </r>
       <r>    8.4424    0.0000 </r>
       <r>    8.6046    0.0000 </r>
       <r>    8.7473    0.0000 </r>
       <r>    8.8575    0.0000 </r>
       <r>    9.0695    0.0000 </r>
       <r>    9.1770    0.0000 </r>
       <r>    9.7513    0.0000 </r>
       <r>    9.9009    0.0000 </r>
       <r>   10.0783    0.0000 </r>
       <r>   10.3173    0.0000 </r>
       <r>   10.4392    0.0000 </r>
      </set>
      <set comment="kpoint 2">
       <r>  -32.2831    1.0000 </r>
       <r>  -31.2772    1.0000 </r>
       <r>  -30.5734    1.0000 </r>
       <r>  -15.0761    1.0000 </r>
       <r>  -14.8861    1.0000 </r>
       <r>  -14.4143    1.0000 </r>
       <r>  -14.3236    1.0000 </r>
       <r>  -14.1787    1.0000 </r>
       <r>  -13.8337    1.0000 </r>
       <r>  -13.6997    1.0000 </r>
       <r>  -13.3939    1.0000 </r>
       <r>  -13.3259    1.0000 </r>
       <r>  -13.2803    1.0000 </r>
       <r>  -13.0208    1.0000 </r>
       <r>  -12.7592    1.0000 </r>
       <r>  -12.5136    1.0000 </r>
       <r>  -12.3668    1.0000 </r>
       <r>  -12.2007    1.0000 </r>
       <r>   -1.7463    1.0000 </r>
       <r>   -1.4280    1.0000 </r>
       <r>   -1.2655    1.0000 </r>
       <r>   -1.2405    1.0000 </r>
       <r>   -1.1319    1.0000 </r>
       <r>   -0.9660    1.0000 </r>
       <r>   -0.9402    1.0000 </r>
       <r>   -0.8776    1.0000 </r>
       <r>   -0.6638    1.0000 </r>
       <r>   -0.6161    1.0000 </r>
       <r>   -0.5797    1.0000 </r>
       <r>   -0.5305    1.0000 </r>
       <r>   -0.4432    1.0000 </r>
       <r>   -0.4378    1.0000 </r>
       <r>   -0.4136    1.0000 </r>
       <r>   -0.4033    1.0000 </r>
       <r>   -0.2739    1.0000 </r>
       <r>   -0.1900    1.0000 </r>
       <r>   -0.0183    1.0000 </r>
       <r>    0.0929    1.0000 </r>
       <r>    0.5205    1.0000 </r>
       <r>    0.7551    1.0000 </r>
       <r>    0.8664    1.0000 </r>
       <r>    0.9778    1.0000 </r>
       <r>    1.1941    1.0000 </r>
       <r>    1.5374    1.0000 </r>
       <r>    1.6490    1.0000 </r>
       <r>    1.6987    1.0000 </r>
       <r>    1.9136    1.0000 </r>
       <r>    2.0974    1.0000 </r>
       <r>    2.1003    1.0000 </r>
       <r>    2.3674    1.0000 </r>
       <r>    2.6276    1.0000 </r>
       <r>    3.4010    0.0000 </r>
       <r>    5.1664    0.0000 </r>
       <r>    5.8816    0.0000 </r>
       <r>    6.6759    0.0000 </r>
       <r>    7.8550    0.0000 </r>
       <r>    8.0433    0.0000 </r>
       <r>    8.2903    0.0000 </r>
       <r>    8.3528    0.0000 </r>
       <r>    8.5878    0.0000 </r>
       <r>    9.0333    0.0000 </r>
[...]
       <r>     1.5492     8.3523    44.4173 </r>
       <r>     1.7093     6.8699    45.5171 </r>
       <r>     1.8694     6.6905    46.5882 </r>
       <r>     2.0295     5.8440    47.5238 </r>
       <r>     2.1896     5.1783    48.3529 </r>
       <r>     2.3497     3.0934    48.8481 </r>
       <r>     2.5098     3.3461    49.3838 </r>
       <r>     2.6699     2.4518    49.7763 </r>
       <r>     2.8300     1.6586    50.0418 </r>
       <r>     2.9901     0.5153    50.1243 </r>
       <r>     3.1501     2.0404    50.4510 </r>
       <r>     3.3102     2.1748    50.7991 </r>
       <r>     3.4703     0.1635    50.8253 </r>
       <r>     3.6304     0.4355    50.8951 </r>
       <r>     3.7905     0.9047    51.0399 </r>
       <r>     3.9506     0.1736    51.0677 </r>
       <r>     4.1107     0.6672    51.1745 </r>
       <r>     4.2708     2.5880    51.5888 </r>
       <r>     4.4309     0.9593    51.7424 </r>
       <r>     4.5910     0.9040    51.8871 </r>
       <r>     4.7511     0.8090    52.0166 </r>
       <r>     4.9112     1.1231    52.1964 </r>
       <r>     5.0713     1.1322    52.3777 </r>
       <r>     5.2314     0.8972    52.5213 </r>
       <r>     5.3915     0.9743    52.6773 </r>
       <r>     5.5516     1.3532    52.8940 </r>
       <r>     5.7117     0.7336    53.0114 </r>
       <r>     5.8718     1.6367    53.2734 </r>
       <r>     6.0318     1.3892    53.4958 </r>
       <r>     6.1919     2.0936    53.8310 </r>
       <r>     6.3520     0.5391    53.9173 </r>
       <r>     6.5121     0.3002    53.9654 </r>
       <r>     6.6722     0.8205    54.0967 </r>
       <r>     6.8323     0.6464    54.2002 </r>
       <r>     6.9924     2.7527    54.6409 </r>
       <r>     7.1525     1.7207    54.9164 </r>
       <r>     7.3126     0.2087    54.9498 </r>
       <r>     7.4727     1.1849    55.1395 </r>
       <r>     7.6328     2.5884    55.5539 </r>
       <r>     7.7929     2.0592    55.8836 </r>
       <r>     7.9530     3.3375    56.4179 </r>
       <r>     8.1131     3.2602    56.9398 </r>
       <r>     8.2732     4.2378    57.6183 </r>
       <r>     8.4333     4.2403    58.2971 </r>
       <r>     8.5934     5.3196    59.1487 </r>
       <r>     8.7535     1.2593    59.3503 </r>
       <r>     8.9135     2.4230    59.7383 </r>
       <r>     9.0736     3.0627    60.2286 </r>
       <r>     9.2337     5.1453    61.0523 </r>
       <r>     9.3938     3.6272    61.6330 </r>
       <r>     9.5539     3.3523    62.1697 </r>
       <r>     9.7140     2.7212    62.6053 </r>
       <r>     9.8741     3.3398    63.1400 </r>
       <r>    10.0342     6.0131    64.1027 </r>
       <r>    10.1943     5.2803    64.9480 </r>
       <r>    10.3544     3.2902    65.4748 </r>
       <r>    10.5145     5.3466    66.3307 </r>
       <r>    10.6746     3.9250    66.9591 </r>
       <r>    10.8347     3.3108    67.4891 </r>
       <r>    10.9948     2.1116    67.8272 </r>
       <r>    11.1549     0.5319    67.9123 </r>
       <r>    11.3150     0.1382    67.9345 </r>
       <r>    11.4751     0.4092    68.0000 </r>
       <r>    11.6352     0.0001    68.0000 </r>
       <r>    11.7952     0.0000    68.0000 </r>
       <r>    11.9553     0.0000    68.0000 </r>
       <r>    12.1154     0.0000    68.0000 </r>
       <r>    12.2755     0.0000    68.0000 </r>
       <r>    12.4356     0.0000    68.0000 </r>
       <r>    12.5957     0.0000    68.0000 </r>
       <r>    12.7558     0.0000    68.0000 </r>
       <r>    12.9159     0.0000    68.0000 </r>
       <r>    13.0760     0.0000    68.0000 </r>
       <r>    13.2361     0.0000    68.0000 </r>
       <r>    13.3962     0.0000    68.0000 </r>
       <r>    13.5563     0.0000    68.0000 </r>
      </set>
      <set comment="spin 2">
       <r>   -34.4721     0.0000     0.0000 </r>
       <r>   -34.3120     0.0000     0.0000 </r>
       <r>   -34.1519     0.0000     0.0000 </r>
       <r>   -33.9918     0.0000     0.0000 </r>
       <r>   -33.8317     0.0000     0.0000 </r>
       <r>   -33.6716     0.0000     0.0000 </r>
       <r>   -33.5115     0.0000     0.0000 </r>
       <r>   -33.3514     0.0000     0.0000 </r>
       <r>   -33.1913     0.0000     0.0000 </r>
       <r>   -33.0312     0.0000     0.0000 </r>
       <r>   -32.8711     0.0000     0.0000 </r>
       <r>   -32.7110     0.0000     0.0000 </r>
       <r>   -32.5509     0.0000     0.0000 </r>
       <r>   -32.3908     0.0039     0.0006 </r>
       <r>   -32.2307     5.5665     0.8918 </r>
       <r>   -32.0706     0.6759     1.0000 </r>
       <r>   -31.9105     0.0000     1.0000 </r>
       <r>   -31.7504     0.0000     1.0000 </r>
       <r>   -31.5904     0.0000     1.0000 </r>
       <r>   -31.4303     0.0000     1.0000 </r>
       <r>   -31.2702     3.0278     1.4847 </r>
       <r>   -31.1101     3.2185     2.0000 </r>
       <r>   -30.9500     0.0000     2.0000 </r>
       <r>   -30.7899     0.0000     2.0000 </r>
       <r>   -30.6298     0.2202     2.0353 </r>
       <r>   -30.4697     6.0005     2.9959 </r>
       <r>   -30.3096     0.0256     3.0000 </r>
       <r>   -30.1495     0.0000     3.0000 </r>
       <r>   -29.9894     0.0000     3.0000 </r>
       <r>   -29.8293     0.0000     3.0000 </r>
       <r>   -29.6692     0.0000     3.0000 </r>
       <r>   -29.5091     0.0000     3.0000 </r>
       <r>   -29.3490     0.0000     3.0000 </r>
       <r>   -29.1889     0.0000     3.0000 </r>
       <r>   -29.0288     0.0000     3.0000 </r>
       <r>   -28.8687     0.0000     3.0000 </r>
       <r>   -28.7087     0.0000     3.0000 </r>
       <r>   -28.5486     0.0000     3.0000 </r>
       <r>   -28.3885     0.0000     3.0000 </r>
       <r>   -28.2284     0.0000     3.0000 </r>
       <r>   -28.0683     0.0000     3.0000 </r>
       <r>   -27.9082     0.0000     3.0000 </r>
       <r>   -27.7481     0.0000     3.0000 </r>
       <r>   -27.5880     0.0000     3.0000 </r>
       <r>   -27.4279     0.0000     3.0000 </r>
       <r>   -27.2678     0.0000     3.0000 </r>
       <r>   -27.1077     0.0000     3.0000 </r>
       <r>   -26.9476     0.0000     3.0000 </r>
       <r>   -26.7875     0.0000     3.0000 </r>
       <r>   -26.6274     0.0000     3.0000 </r>
       <r>   -26.4673     0.0000     3.0000 </r>
       <r>   -26.3072     0.0000     3.0000 </r>
       <r>   -26.1471     0.0000     3.0000 </r>
       <r>   -25.9870     0.0000     3.0000 </r>
       <r>   -25.8270     0.0000     3.0000 </r>
       <r>   -25.6669     0.0000     3.0000 </r>
       <r>   -25.5068     0.0000     3.0000 </r>
       <r>   -25.3467     0.0000     3.0000 </r>
       <r>   -25.1866     0.0000     3.0000 </r>
       <r>   -25.0265     0.0000     3.0000 </r>
       <r>   -24.8664     0.0000     3.0000 </r>
       <r>   -24.7063     0.0000     3.0000 </r>
       <r>   -24.5462     0.0000     3.0000 </r>
       <r>   -24.3861     0.0000     3.0000 </r>
       <r>   -24.2260     0.0000     3.0000 </r>
       <r>   -24.0659     0.0000     3.0000 </r>
       <r>   -23.9058     0.0000     3.0000 </r>
       <r>   -23.7457     0.0000     3.0000 </r>
       <r>   -23.5856     0.0000     3.0000 </r>
       <r>   -23.4255     0.0000     3.0000 </r>
       <r>   -23.2654     0.0000     3.0000 </r>
       <r>   -23.1053     0.0000     3.0000 </r>
       <r>   -22.9453     0.0000     3.0000 </r>
       <r>   -22.7852     0.0000     3.0000 </r>
       <r>   -22.6251     0.0000     3.0000 </r>
       <r>   -22.4650     0.0000     3.0000 </r>
       <r>   -22.3049     0.0000     3.0000 </r>
       <r>   -22.1448     0.0000     3.0000 </r>
       <r>   -21.9847     0.0000     3.0000 </r>
       <r>   -21.8246     0.0000     3.0000 </r>
       <r>   -21.6645     0.0000     3.0000 </r>
       <r>   -21.5044     0.0000     3.0000 </r>
       <r>   -21.3443     0.0000     3.0000 </r>
       <r>   -21.1842     0.0000     3.0000 </r>
       <r>   -21.0241     0.0000     3.0000 </r>
       <r>   -20.8640     0.0000     3.0000 </r>
       <r>   -20.7039     0.0000     3.0000 </r>
       <r>   -20.5438     0.0000     3.0000 </r>
       <r>   -20.3837     0.0000     3.0000 </r>
       <r>   -20.2236     0.0000     3.0000 </r>
       <r>   -20.0636     0.0000     3.0000 </r>
       <r>   -19.9035     0.0000     3.0000 </r>
       <r>   -19.7434     0.0000     3.0000 </r>
       <r>   -19.5833     0.0000     3.0000 </r>
       <r>   -19.4232     0.0000     3.0000 </r>
       <r>   -19.2631     0.0000     3.0000 </r>
       <r>   -19.1030     0.0000     3.0000 </r>
       <r>   -18.9429     0.0000     3.0000 </r>
       <r>   -18.7828     0.0000     3.0000 </r>
       <r>   -18.6227     0.0000     3.0000 </r>
       <r>   -18.4626     0.0000     3.0000 </r>
       <r>   -18.3025     0.0000     3.0000 </r>
       <r>   -18.1424     0.0000     3.0000 </r>
       <r>   -17.9823     0.0000     3.0000 </r>
       <r>   -17.8222     0.0000     3.0000 </r>
       <r>   -17.6621     0.0000     3.0000 </r>
       <r>   -17.5020     0.0000     3.0000 </r>
       <r>   -17.3419     0.0000     3.0000 </r>
       <r>   -17.1819     0.0000     3.0000 </r>
       <r>   -17.0218     0.0000     3.0000 </r>
       <r>   -16.8617     0.0000     3.0000 </r>
       <r>   -16.7016     0.0000     3.0000 </r>
       <r>   -16.5415     0.0000     3.0000 </r>
       <r>   -16.3814     0.0000     3.0000 </r>
       <r>   -16.2213     0.0000     3.0000 </r>
       <r>   -16.0612     0.0000     3.0000 </r>
       <r>   -15.9011     0.0000     3.0000 </r>
       <r>   -15.7410     0.0000     3.0000 </r>
       <r>   -15.5809     0.0000     3.0000 </r>
       <r>   -15.4208     0.0000     3.0000 </r>
       <r>   -15.2607     0.0113     3.0018 </r>
       <r>   -15.1006     0.7395     3.1202 </r>
       <r>   -14.9405     3.2883     3.6466 </r>
       <r>   -14.7804     4.9862     4.4449 </r>
       <r>   -14.6203     3.4541     4.9979 </r>
       <r>   -14.4602     2.3772     5.3785 </r>
       <r>   -14.3002     6.2681     6.3820 </r>
       <r>   -14.1401     5.6879     7.2926 </r>
       <r>   -13.9800     5.1170     8.1118 </r>
       <r>   -13.8199     5.5964     9.0077 </r>
       <r>   -13.6598     7.4353    10.1981 </r>
       <r>   -13.4997     3.2137    10.7126 </r>
       <r>   -13.3396     6.2012    11.7054 </r>
       <r>   -13.1795     4.7794    12.4705 </r>
       <r>   -13.0194     5.1697    13.2982 </r>
       <r>   -12.8593     6.0746    14.2707 </r>
       <r>   -12.6992     4.4359    14.9808 </r>
       <r>   -12.5391     2.2385    15.3392 </r>
       <r>   -12.3790     7.5755    16.5520 </r>
       <r>   -12.2189     4.8153    17.3229 </r>
       <r>   -12.0588     3.1206    17.8225 </r>
       <r>   -11.8987     1.0897    17.9970 </r>
       <r>   -11.7386     0.0190    18.0000 </r>
       <r>   -11.5785     0.0000    18.0000 </r>
       <r>   -11.4185     0.0000    18.0000 </r>
       <r>   -11.2584     0.0000    18.0000 </r>
       <r>   -11.0983     0.0000    18.0000 </r>
       <r>   -10.9382     0.0000    18.0000 </r>
       <r>   -10.7781     0.0000    18.0000 </r>
       <r>   -10.6180     0.0000    18.0000 </r>
       <r>   -10.4579     0.0000    18.0000 </r>
       <r>   -10.2978     0.0000    18.0000 </r>
       <r>   -10.1377     0.0000    18.0000 </r>
       <r>    -9.9776     0.0000    18.0000 </r>
       <r>    -9.8175     0.0000    18.0000 </r>
       <r>    -9.6574     0.0000    18.0000 </r>
       <r>    -9.4973     0.0000    18.0000 </r>
       <r>    -9.3372     0.0000    18.0000 </r>
       <r>    -9.1771     0.0000    18.0000 </r>
       <r>    -9.0170     0.0000    18.0000 </r>
       <r>    -8.8569     0.0000    18.0000 </r>
       <r>    -8.6968     0.0000    18.0000 </r>
       <r>    -8.5368     0.0000    18.0000 </r>
       <r>    -8.3767     0.0000    18.0000 </r>
       <r>    -8.2166     0.0000    18.0000 </r>
       <r>    -8.0565     0.0000    18.0000 </r>
       <r>    -7.8964     0.0000    18.0000 </r>
       <r>    -7.7363     0.0000    18.0000 </r>
       <r>    -7.5762     0.0000    18.0000 </r>
       <r>    -7.4161     0.0000    18.0000 </r>
       <r>    -7.2560     0.0000    18.0000 </r>
       <r>    -7.0959     0.0000    18.0000 </r>
       <r>    -6.9358     0.0000    18.0000 </r>
       <r>    -6.7757     0.0000    18.0000 </r>
       <r>    -6.6156     0.0000    18.0000 </r>
       <r>    -6.4555     0.0000    18.0000 </r>
       <r>    -6.2954     0.0000    18.0000 </r>
       <r>    -6.1353     0.0000    18.0000 </r>
       <r>    -5.9752     0.0000    18.0000 </r>
       <r>    -5.8151     0.0000    18.0000 </r>
       <r>    -5.6551     0.0000    18.0000 </r>
       <r>    -5.4950     0.0000    18.0000 </r>
       <r>    -5.3349     0.0000    18.0000 </r>
       <r>    -5.1748     0.0000    18.0000 </r>
       <r>    -5.0147     0.0000    18.0000 </r>
       <r>    -4.8546     0.0000    18.0000 </r>
       <r>    -4.6945     0.0000    18.0000 </r>
       <r>    -4.5344     0.0000    18.0000 </r>
       <r>    -4.3743     0.0000    18.0000 </r>
       <r>    -4.2142     0.0000    18.0000 </r>
       <r>    -4.0541     0.0000    18.0000 </r>
       <r>    -3.8940     0.0000    18.0000 </r>
       <r>    -3.7339     0.0000    18.0000 </r>
       <r>    -3.5738     0.0000    18.0000 </r>
       <r>    -3.4137     0.0000    18.0000 </r>
       <r>    -3.2536     0.0000    18.0000 </r>
       <r>    -3.0935     0.0653    18.0105 </r>
       <r>    -2.9334     0.9372    18.1605 </r>
       <r>    -2.7733     1.9376    18.4707 </r>
       <r>    -2.6133     1.8870    18.7728 </r>
       <r>    -2.4532     2.5484    19.1808 </r>
       <r>    -2.2931     0.1413    19.2034 </r>
       <r>    -2.1330     2.4302    19.5925 </r>
       <r>    -1.9729     2.4637    19.9869 </r>
       <r>    -1.8128     3.0189    20.4702 </r>
       <r>    -1.6527     5.3480    21.3264 </r>
       <r>    -1.4926     5.3927    22.1898 </r>
       <r>    -1.3325    11.4423    24.0216 </r>
       <r>    -1.1724    12.5804    26.0357 </r>
       <r>    -1.0123    11.5788    27.8894 </r>
       <r>    -0.8522    10.2977    29.5380 </r>
       <r>    -0.6921     4.7649    30.3008 </r>
       <r>    -0.5320     6.5555    31.3503 </r>
       <r>    -0.3719    10.7453    33.0706 </r>
       <r>    -0.2118     8.2385    34.3895 </r>
       <r>    -0.0517     2.7197    34.8249 </r>
       <r>     0.1084     4.9658    35.6199 </r>
       <r>     0.2684     1.9391    35.9304 </r>
       <r>     0.4285     1.4537    36.1631 </r>
       <r>     0.5886     4.8399    36.9379 </r>
       <r>     0.7487     4.8459    37.7137 </r>
       <r>     0.9088     3.9437    38.3451 </r>
       <r>     1.0689     6.7960    39.4331 </r>
       <r>     1.2290     7.9875    40.7119 </r>
       <r>     1.3891     8.0488    42.0004 </r>
       <r>     1.5492     7.3740    43.1810 </r>
       <r>     1.7093     7.9339    44.4511 </r>
       <r>     1.8694     7.7925    45.6987 </r>
       <r>     2.0295     4.1271    46.3594 </r>
       <r>     2.1896     5.7408    47.2785 </r>
       <r>     2.3497     7.1141    48.4174 </r>
       <r>     2.5098     1.1075    48.5947 </r>
       <r>     2.6699     1.4116    48.8207 </r>
       <r>     2.8300     1.3879    49.0429 </r>
       <r>     2.9901     1.8550    49.3399 </r>
       <r>     3.1501     5.1564    50.1654 </r>
       <r>     3.3102     0.9774    50.3219 </r>
       <r>     3.4703     0.9576    50.4752 </r>
       <r>     3.6304     0.5955    50.5705 </r>
       <r>     3.7905     2.3689    50.9498 </r>
       <r>     3.9506     0.5637    51.0400 </r>
       <r>     4.1107     0.5034    51.1206 </r>
       <r>     4.2708     1.2540    51.3214 </r>
       <r>     4.4309     1.2009    51.5136 </r>
       <r>     4.5910     1.2113    51.7075 </r>
       <r>     4.7511     1.0693    51.8787 </r>
       <r>     4.9112     0.6200    51.9780 </r>
       <r>     5.0713     1.5265    52.2224 </r>
       <r>     5.2314     1.8420    52.5173 </r>
       <r>     5.3915     0.3518    52.5736 </r>
       <r>     5.5516     1.7670    52.8565 </r>
       <r>     5.7117     0.5808    52.9495 </r>
       <r>     5.8718     0.9441    53.1006 </r>
       <r>     6.0318     2.0756    53.4329 </r>
       <r>     6.1919     1.9257    53.7412 </r>
       <r>     6.3520     0.9070    53.8864 </r>
       <r>     6.5121     0.2711    53.9298 </r>
       <r>     6.6722     0.8093    54.0594 </r>
       <r>     6.8323     0.7273    54.1758 </r>
       <r>     6.9924     2.2661    54.5386 </r>
       <r>     7.1525     2.2614    54.9006 </r>
       <r>     7.3126     0.2301    54.9375 </r>
       <r>     7.4727     0.9871    55.0955 </r>
       <r>     7.6328     2.3015    55.4639 </r>
       <r>     7.7929     2.3785    55.8447 </r>
       <r>     7.9530     3.1291    56.3457 </r>
       <r>     8.1131     3.4293    56.8947 </r>
       <r>     8.2732     4.0267    57.5394 </r>
       <r>     8.4333     3.9226    58.1673 </r>
       <r>     8.5934     5.7321    59.0850 </r>
       <r>     8.7535     1.5016    59.3254 </r>
       <r>     8.9135     2.3552    59.7025 </r>
       <r>     9.0736     2.3892    60.0850 </r>
       <r>     9.2337     5.0871    60.8994 </r>
       <r>     9.3938     4.3201    61.5910 </r>
       <r>     9.5539     3.3388    62.1255 </r>
       <r>     9.7140     2.5905    62.5403 </r>
       <r>     9.8741     3.2536    63.0612 </r>
       <r>    10.0342     5.7811    63.9867 </r>
       <r>    10.1943     5.7807    64.9121 </r>
       <r>    10.3544     3.0208    65.3957 </r>
       <r>    10.5145     5.4710    66.2716 </r>
       <r>    10.6746     3.6982    66.8637 </r>
       <r>    10.8347     3.4570    67.4171 </r>
       <r>    10.9948     2.3434    67.7923 </r>
       <r>    11.1549     0.6778    67.9008 </r>
       <r>    11.3150     0.1448    67.9240 </r>
       <r>    11.4751     0.4738    67.9998 </r>
       <r>    11.6352     0.0010    68.0000 </r>
       <r>    11.7952     0.0000    68.0000 </r>
       <r>    11.9553     0.0000    68.0000 </r>
       <r>    12.1154     0.0000    68.0000 </r>
       <r>    12.2755     0.0000    68.0000 </r>
       <r>    12.4356     0.0000    68.0000 </r>
       <r>    12.5957     0.0000    68.0000 </r>
       <r>    12.7558     0.0000    68.0000 </r>
       <r>    12.9159     0.0000    68.0000 </r>
       <r>    13.0760     0.0000    68.0000 </r>
       <r>    13.2361     0.0000    68.0000 </r>
       <r>    13.3962     0.0000    68.0000 </r>
       <r>    13.5563     0.0000    68.0000 </r>
      </set>
     </set>
    </array>
   </total>
  </dos>
 </calculation>
 <structure name="finalpos" >
  <crystal>
   <varray name="basis" >
    <v>       4.00000000       0.00000000       0.00000000 </v>
    <v>       0.00000000       4.00000000       0.00000000 </v>
    <v>       0.00000000       0.00000000      12.00000000 </v>
   </varray>
   <i name="volume">    192.00000000 </i>
   <varray name="rec_basis" >
    <v>       0.25000000       0.00000000       0.00000000 </v>
    <v>       0.00000000       0.25000000       0.00000000 </v>
    <v>       0.00000000       0.00000000       0.08333333 </v>
   </varray>
  </crystal>
  <varray name="positions" >
   <v>       0.00000000       0.00000000       0.00000000 </v>
   <v>       0.00000000       0.00000000       0.33333333 </v>
   <v>       0.00000000       0.00000000       0.66666667 </v>
   <v>       0.50000000       0.50000000       0.16666667 </v>
   <v>       0.50000000       0.50000000       0.50000000 </v>
   <v>       0.50000000       0.50000000       0.83333333 </v>
   <v>       0.50000000       0.50000000       0.66666667 </v>
   <v>       0.00000000       0.50000000       0.16666667 </v>
   <v>       0.00000000       0.50000000       0.83333333 </v>
   <v>       0.50000000       0.00000000       0.16666667 </v>
   <v>       0.50000000       0.00000000       0.50000000 </v>
   <v>       0.50000000       0.00000000       0.83333333 </v>
  </varray>
 </structure>
</modeling>
