<?xml version="1.0" encoding="ISO-8859-1"?>
<modeling>
 <generator>
  <i name="program" type="string">vasp </i>
  <i name="version" type="string">5.3.5  </i>
  <i name="subversion" type="string">31Mar14 (build Jun 20 2014 13:15:13) complex                          parallel </i>
  <i name="platform" type="string">LinuxIFC </i>
  <i name="date" type="string">2025 11 26 </i>
  <i name="time" type="string">17:54:08 </i>
 </generator>
 <incar>
  <i type="string" name="PREC">accurate</i>
  <i type="int" name="IALGO">    68</i>
  <i type="logical" name="ADDGRID"> T  </i>
  <i type="int" name="NELM">   200</i>
  <i type="int" name="NELMIN">     4</i>
  <i type="int" name="IBRION">     2</i>
  <i name="EDIFF">      0.00000100</i>
  <i name="EDIFFG">     -0.02000000</i>
  <i type="int" name="NSW">    30</i>
  <i type="int" name="ISIF">     3</i>
  <i name="ENCUT">    500.00000000</i>
  <i type="logical" name="LREAL"> F  </i>
  <i type="int" name="ISMEAR">     1</i>
  <i name="SIGMA">      0.30000000</i>
  <i type="logical" name="LWAVE"> F  </i>
  <i type="logical" name="LCHARG"> F  </i>
  <i type="int" name="NELM">   200</i>
 </incar>
 <kpoints>
  <generation param="Auto">
   <i name="subdivisionlength">     70.00000000 </i>
   <v type="int" name="divisions">      26       20       13 </v>
   <v name="usershift">      0.00000000       0.00000000       0.00000000 </v>
   <v name="genvec1">      0.03846154       0.00000000       0.00000000 </v>
   <v name="genvec2">      0.00000000       0.05000000       0.00000000 </v>
   <v name="genvec3">      0.00000000       0.00000000       0.07692308 </v>
   <v name="shift">      0.00000000       0.00000000       0.00000000 </v>
  </generation>
  <varray name="kpointlist" >
   <v>       0.00000000       0.00000000       0.00000000 </v>
   <v>       0.03846154       0.00000000       0.00000000 </v>
   <v>       0.07692308       0.00000000       0.00000000 </v>
   <v>       0.11538462       0.00000000       0.00000000 </v>
   <v>       0.15384615       0.00000000       0.00000000 </v>
   <v>       0.19230769       0.00000000       0.00000000 </v>
   <v>       0.23076923       0.00000000       0.00000000 </v>
   <v>       0.26923077       0.00000000       0.00000000 </v>
   <v>       0.30769231       0.00000000       0.00000000 </v>
   <v>       0.34615385       0.00000000       0.00000000 </v>
   <v>       0.38461538       0.00000000       0.00000000 </v>
   <v>       0.42307692       0.00000000       0.00000000 </v>
   <v>       0.46153846       0.00000000       0.00000000 </v>
   <v>       0.50000000       0.00000000       0.00000000 </v>
   <v>       0.00000000       0.05000000       0.00000000 </v>
   <v>       0.03846154       0.05000000       0.00000000 </v>
   <v>       0.07692308       0.05000000       0.00000000 </v>
   <v>       0.11538462       0.05000000       0.00000000 </v>
   <v>       0.15384615       0.05000000       0.00000000 </v>
   <v>       0.19230769       0.05000000       0.00000000 </v>
   <v>       0.23076923       0.05000000       0.00000000 </v>
   <v>       0.26923077       0.05000000       0.00000000 </v>
   <v>       0.30769231       0.05000000       0.00000000 </v>
   <v>       0.34615385       0.05000000       0.00000000 </v>
   <v>       0.38461538       0.05000000       0.00000000 </v>
   <v>       0.42307692       0.05000000       0.00000000 </v>
   <v>       0.46153846       0.05000000       0.00000000 </v>
   <v>       0.50000000       0.05000000       0.00000000 </v>
   <v>       0.00000000       0.10000000       0.00000000 </v>
   <v>       0.03846154       0.10000000       0.00000000 </v>
   <v>       0.07692308       0.10000000       0.00000000 </v>
   <v>       0.11538462       0.10000000       0.00000000 </v>
   <v>       0.15384615       0.10000000       0.00000000 </v>
   <v>       0.19230769       0.10000000       0.00000000 </v>
   <v>       0.23076923       0.10000000       0.00000000 </v>
   <v>       0.26923077       0.10000000       0.00000000 </v>
   <v>       0.30769231       0.10000000       0.00000000 </v>
   <v>       0.34615385       0.10000000       0.00000000 </v>
   <v>       0.38461538       0.10000000       0.00000000 </v>
   <v>       0.42307692       0.10000000       0.00000000 </v>
   <v>       0.46153846       0.10000000       0.00000000 </v>
   <v>       0.50000000       0.10000000       0.00000000 </v>
   <v>       0.00000000       0.15000000       0.00000000 </v>
   <v>       0.03846154       0.15000000       0.00000000 </v>
   <v>       0.07692308       0.15000000       0.00000000 </v>
   <v>       0.11538462       0.15000000       0.00000000 </v>
   <v>       0.15384615       0.15000000       0.00000000 </v>
   <v>       0.19230769       0.15000000       0.00000000 </v>
   <v>       0.23076923       0.15000000       0.00000000 </v>
   <v>       0.26923077       0.15000000       0.00000000 </v>
   <v>       0.30769231       0.15000000       0.00000000 </v>
   <v>       0.34615385       0.15000000       0.00000000 </v>
   <v>       0.38461538       0.15000000       0.00000000 </v>
   <v>       0.42307692       0.15000000       0.00000000 </v>
   <v>       0.46153846       0.15000000       0.00000000 </v>
   <v>       0.50000000       0.15000000       0.00000000 </v>
   <v>       0.00000000       0.20000000       0.00000000 </v>
   <v>       0.03846154       0.20000000       0.00000000 </v>
   <v>       0.07692308       0.20000000       0.00000000 </v>
   <v>       0.11538462       0.20000000       0.00000000 </v>
   <v>       0.15384615       0.20000000       0.00000000 </v>
   <v>       0.19230769       0.20000000       0.00000000 </v>
   <v>       0.23076923       0.20000000       0.00000000 </v>
   <v>       0.26923077       0.20000000       0.00000000 </v>
   <v>       0.30769231       0.20000000       0.00000000 </v>
   <v>       0.34615385       0.20000000       0.00000000 </v>
   <v>       0.38461538       0.20000000       0.00000000 </v>
   <v>       0.42307692       0.20000000       0.00000000 </v>
   <v>       0.46153846       0.20000000       0.00000000 </v>
   <v>       0.50000000       0.20000000       0.00000000 </v>
   <v>       0.00000000       0.25000000       0.00000000 </v>
   <v>       0.03846154       0.25000000       0.00000000 </v>
   <v>       0.07692308       0.25000000       0.00000000 </v>
   <v>       0.11538462       0.25000000       0.00000000 </v>
   <v>       0.15384615       0.25000000       0.00000000 </v>
   <v>       0.19230769       0.25000000       0.00000000 </v>
   <v>       0.23076923       0.25000000       0.00000000 </v>
   <v>       0.26923077       0.25000000       0.00000000 </v>
   <v>       0.30769231       0.25000000       0.00000000 </v>
   <v>       0.34615385       0.25000000       0.00000000 </v>
   <v>       0.38461538       0.25000000       0.00000000 </v>
   <v>       0.42307692       0.25000000       0.00000000 </v>
   <v>       0.46153846       0.25000000       0.00000000 </v>
   <v>       0.50000000       0.25000000       0.00000000 </v>
   <v>       0.00000000       0.30000000       0.00000000 </v>
   <v>       0.03846154       0.30000000       0.00000000 </v>
   <v>       0.07692308       0.30000000       0.00000000 </v>
   <v>       0.11538462       0.30000000       0.00000000 </v>
   <v>       0.15384615       0.30000000       0.00000000 </v>
   <v>       0.19230769       0.30000000       0.00000000 </v>
   <v>       0.23076923       0.30000000       0.00000000 </v>
   <v>       0.26923077       0.30000000       0.00000000 </v>
   <v>       0.30769231       0.30000000       0.00000000 </v>
   <v>       0.34615385       0.30000000       0.00000000 </v>
   <v>       0.38461538       0.30000000       0.00000000 </v>
   <v>       0.42307692       0.30000000       0.00000000 </v>
   <v>       0.46153846       0.30000000       0.00000000 </v>
   <v>       0.50000000       0.30000000       0.00000000 </v>
   <v>       0.00000000       0.35000000       0.00000000 </v>
   <v>       0.03846154       0.35000000       0.00000000 </v>
   <v>       0.07692308       0.35000000       0.00000000 </v>
   <v>       0.11538462       0.35000000       0.00000000 </v>
   <v>       0.15384615       0.35000000       0.00000000 </v>
   <v>       0.19230769       0.35000000       0.00000000 </v>
   <v>       0.23076923       0.35000000       0.00000000 </v>
   <v>       0.26923077       0.35000000       0.00000000 </v>
   <v>       0.30769231       0.35000000       0.00000000 </v>
   <v>       0.34615385       0.35000000       0.00000000 </v>
   <v>       0.38461538       0.35000000       0.00000000 </v>
   <v>       0.42307692       0.35000000       0.00000000 </v>
   <v>       0.46153846       0.35000000       0.00000000 </v>
   <v>       0.50000000       0.35000000       0.00000000 </v>
   <v>       0.00000000       0.40000000       0.00000000 </v>
   <v>       0.03846154       0.40000000       0.00000000 </v>
   <v>       0.07692308       0.40000000       0.00000000 </v>
   <v>       0.11538462       0.40000000       0.00000000 </v>
   <v>       0.15384615       0.40000000       0.00000000 </v>
   <v>       0.19230769       0.40000000       0.00000000 </v>
   <v>       0.23076923       0.40000000       0.00000000 </v>
   <v>       0.26923077       0.40000000       0.00000000 </v>
   <v>       0.30769231       0.40000000       0.00000000 </v>
   <v>       0.34615385       0.40000000       0.00000000 </v>
   <v>       0.38461538       0.40000000       0.00000000 </v>
   <v>       0.42307692       0.40000000       0.00000000 </v>
   <v>       0.46153846       0.40000000       0.00000000 </v>
   <v>       0.50000000       0.40000000       0.00000000 </v>
   <v>       0.00000000       0.45000000       0.00000000 </v>
   <v>       0.03846154       0.45000000       0.00000000 </v>
   <v>       0.07692308       0.45000000       0.00000000 </v>
   <v>       0.11538462       0.45000000       0.00000000 </v>
   <v>       0.15384615       0.45000000       0.00000000 </v>
   <v>       0.19230769       0.45000000       0.00000000 </v>
   <v>       0.23076923       0.45000000       0.00000000 </v>
   <v>       0.26923077       0.45000000       0.00000000 </v>
   <v>       0.30769231       0.45000000       0.00000000 </v>
   <v>       0.34615385       0.45000000       0.00000000 </v>
   <v>       0.38461538       0.45000000       0.00000000 </v>
   <v>       0.42307692       0.45000000       0.00000000 </v>
   <v>       0.46153846       0.45000000       0.00000000 </v>
   <v>       0.50000000       0.45000000       0.00000000 </v>
   <v>       0.00000000       0.50000000       0.00000000 </v>
   <v>       0.03846154       0.50000000       0.00000000 </v>
   <v>       0.07692308       0.50000000       0.00000000 </v>
   <v>       0.11538462       0.50000000       0.00000000 </v>
   <v>       0.15384615       0.50000000       0.00000000 </v>
   <v>       0.19230769       0.50000000       0.00000000 </v>
   <v>       0.23076923       0.50000000       0.00000000 </v>
   <v>       0.26923077       0.50000000       0.00000000 </v>
   <v>       0.30769231       0.50000000       0.00000000 </v>
   <v>       0.34615385       0.50000000       0.00000000 </v>
   <v>       0.38461538       0.50000000       0.00000000 </v>
   <v>       0.42307692       0.50000000       0.00000000 </v>
   <v>       0.46153846       0.50000000       0.00000000 </v>
   <v>       0.50000000       0.50000000       0.00000000 </v>
   <v>       0.00000000       0.00000000       0.07692308 </v>
   <v>       0.03846154       0.00000000       0.07692308 </v>
   <v>       0.07692308       0.00000000       0.07692308 </v>
   <v>       0.11538462       0.00000000       0.07692308 </v>
   <v>       0.15384615       0.00000000       0.07692308 </v>
   <v>       0.19230769       0.00000000       0.07692308 </v>
   <v>       0.23076923       0.00000000       0.07692308 </v>
   <v>       0.26923077       0.00000000       0.07692308 </v>
   <v>       0.30769231       0.00000000       0.07692308 </v>
   <v>       0.34615385       0.00000000       0.07692308 </v>
   <v>       0.38461538       0.00000000       0.07692308 </v>
   <v>       0.42307692       0.00000000       0.07692308 </v>
   <v>       0.46153846       0.00000000       0.07692308 </v>
   <v>       0.50000000       0.00000000       0.07692308 </v>
   <v>       0.00000000       0.05000000       0.07692308 </v>
   <v>       0.03846154       0.05000000       0.07692308 </v>
   <v>       0.07692308       0.05000000       0.07692308 </v>
   <v>       0.11538462       0.05000000       0.07692308 </v>
   <v>       0.15384615       0.05000000       0.07692308 </v>
   <v>       0.19230769       0.05000000       0.07692308 </v>
   <v>       0.23076923       0.05000000       0.07692308 </v>
   <v>       0.26923077       0.05000000       0.07692308 </v>
   <v>       0.30769231       0.05000000       0.07692308 </v>
   <v>       0.34615385       0.05000000       0.07692308 </v>
   <v>       0.38461538       0.05000000       0.07692308 </v>
   <v>       0.42307692       0.05000000       0.07692308 </v>
   <v>       0.46153846       0.05000000       0.07692308 </v>
   <v>       0.50000000       0.05000000       0.07692308 </v>
   <v>       0.00000000       0.10000000       0.07692308 </v>
   <v>       0.03846154       0.10000000       0.07692308 </v>
   <v>       0.07692308       0.10000000       0.07692308 </v>
   <v>       0.11538462       0.10000000       0.07692308 </v>
   <v>       0.15384615       0.10000000       0.07692308 </v>
   <v>       0.19230769       0.10000000       0.07692308 </v>
   <v>       0.23076923       0.10000000       0.07692308 </v>
   <v>       0.26923077       0.10000000       0.07692308 </v>
   <v>       0.30769231       0.10000000       0.07692308 </v>
   <v>       0.34615385       0.10000000       0.07692308 </v>
   <v>       0.38461538       0.10000000       0.07692308 </v>
   <v>       0.42307692       0.10000000       0.07692308 </v>
   <v>       0.46153846       0.10000000       0.07692308 </v>
   <v>       0.50000000       0.10000000       0.07692308 </v>
   <v>       0.00000000       0.15000000       0.07692308 </v>
   <v>       0.03846154       0.15000000       0.07692308 </v>
   <v>       0.07692308       0.15000000       0.07692308 </v>
   <v>       0.11538462       0.15000000       0.07692308 </v>
   <v>       0.15384615       0.15000000       0.07692308 </v>
   <v>       0.19230769       0.15000000       0.07692308 </v>
   <v>       0.23076923       0.15000000       0.07692308 </v>
   <v>       0.26923077       0.15000000       0.07692308 </v>
   <v>       0.30769231       0.15000000       0.07692308 </v>
   <v>       0.34615385       0.15000000       0.07692308 </v>
   <v>       0.38461538       0.15000000       0.07692308 </v>
   <v>       0.42307692       0.15000000       0.07692308 </v>
   <v>       0.46153846       0.15000000       0.07692308 </v>
   <v>       0.50000000       0.15000000       0.07692308 </v>
   <v>       0.00000000       0.20000000       0.07692308 </v>
   <v>       0.03846154       0.20000000       0.07692308 </v>
   <v>       0.07692308       0.20000000       0.07692308 </v>
   <v>       0.11538462       0.20000000       0.07692308 </v>
   <v>       0.15384615       0.20000000       0.07692308 </v>
   <v>       0.19230769       0.20000000       0.07692308 </v>
   <v>       0.23076923       0.20000000       0.07692308 </v>
   <v>       0.26923077       0.20000000       0.07692308 </v>
   <v>       0.30769231       0.20000000       0.07692308 </v>
   <v>       0.34615385       0.20000000       0.07692308 </v>
   <v>       0.38461538       0.20000000       0.07692308 </v>
   <v>       0.42307692       0.20000000       0.07692308 </v>
   <v>       0.46153846       0.20000000       0.07692308 </v>
   <v>       0.50000000       0.20000000       0.07692308 </v>
   <v>       0.00000000       0.25000000       0.07692308 </v>
   <v>       0.03846154       0.25000000       0.07692308 </v>
   <v>       0.07692308       0.25000000       0.07692308 </v>
   <v>       0.11538462       0.25000000       0.07692308 </v>
   <v>       0.15384615       0.25000000       0.07692308 </v>
   <v>       0.19230769       0.25000000       0.07692308 </v>
   <v>       0.23076923       0.25000000       0.07692308 </v>
   <v>       0.26923077       0.25000000       0.07692308 </v>
   <v>       0.30769231       0.25000000       0.07692308 </v>
   <v>       0.34615385       0.25000000       0.07692308 </v>
   <v>       0.38461538       0.25000000       0.07692308 </v>
   <v>       0.42307692       0.25000000       0.07692308 </v>
   <v>       0.46153846       0.25000000       0.07692308 </v>
   <v>       0.50000000       0.25000000       0.07692308 </v>
   <v>       0.00000000       0.30000000       0.07692308 </v>
   <v>       0.03846154       0.30000000       0.07692308 </v>
   <v>       0.07692308       0.30000000       0.07692308 </v>
   <v>       0.11538462       0.30000000       0.07692308 </v>
   <v>       0.15384615       0.30000000       0.07692308 </v>
   <v>       0.19230769       0.30000000       0.07692308 </v>
   <v>       0.23076923       0.30000000       0.07692308 </v>
   <v>       0.26923077       0.30000000       0.07692308 </v>
   <v>       0.30769231       0.30000000       0.07692308 </v>
   <v>       0.34615385       0.30000000       0.07692308 </v>
   <v>       0.38461538       0.30000000       0.07692308 </v>
   <v>       0.42307692       0.30000000       0.07692308 </v>
   <v>       0.46153846       0.30000000       0.07692308 </v>
   <v>       0.50000000       0.30000000       0.07692308 </v>
   <v>       0.00000000       0.35000000       0.07692308 </v>
   <v>       0.03846154       0.35000000       0.07692308 </v>
   <v>       0.07692308       0.35000000       0.07692308 </v>
   <v>       0.11538462       0.35000000       0.07692308 </v>
   <v>       0.15384615       0.35000000       0.07692308 </v>
   <v>       0.19230769       0.35000000       0.07692308 </v>
   <v>       0.23076923       0.35000000       0.07692308 </v>
   <v>       0.26923077       0.35000000       0.07692308 </v>
   <v>       0.30769231       0.35000000       0.07692308 </v>
   <v>       0.34615385       0.35000000       0.07692308 </v>
   <v>       0.38461538       0.35000000       0.07692308 </v>
   <v>       0.42307692       0.35000000       0.07692308 </v>
   <v>       0.46153846       0.35000000       0.07692308 </v>
   <v>       0.50000000       0.35000000       0.07692308 </v>
   <v>       0.00000000       0.40000000       0.07692308 </v>
   <v>       0.03846154       0.40000000       0.07692308 </v>
   <v>       0.07692308       0.40000000       0.07692308 </v>
   <v>       0.11538462       0.40000000       0.07692308 </v>
   <v>       0.15384615       0.40000000       0.07692308 </v>
   <v>       0.19230769       0.40000000       0.07692308 </v>
   <v>       0.23076923       0.40000000       0.07692308 </v>
   <v>       0.26923077       0.40000000       0.07692308 </v>
   <v>       0.30769231       0.40000000       0.07692308 </v>
   <v>       0.34615385       0.40000000       0.07692308 </v>
   <v>       0.38461538       0.40000000       0.07692308 </v>
   <v>       0.42307692       0.40000000       0.07692308 </v>
   <v>       0.46153846       0.40000000       0.07692308 </v>
   <v>       0.50000000       0.40000000       0.07692308 </v>
   <v>       0.00000000       0.45000000       0.07692308 </v>
   <v>       0.03846154       0.45000000       0.07692308 </v>
   <v>       0.07692308       0.45000000       0.07692308 </v>
   <v>       0.11538462       0.45000000       0.07692308 </v>
   <v>       0.15384615       0.45000000       0.07692308 </v>
   <v>       0.19230769       0.45000000       0.07692308 </v>
   <v>       0.23076923       0.45000000       0.07692308 </v>
   <v>       0.26923077       0.45000000       0.07692308 </v>
   <v>       0.30769231       0.45000000       0.07692308 </v>
   <v>       0.34615385       0.45000000       0.07692308 </v>
   <v>       0.38461538       0.45000000       0.07692308 </v>
   <v>       0.42307692       0.45000000       0.07692308 </v>
   <v>       0.46153846       0.45000000       0.07692308 </v>
   <v>       0.50000000       0.45000000       0.07692308 </v>
   <v>       0.00000000       0.50000000       0.07692308 </v>
   <v>       0.03846154       0.50000000       0.07692308 </v>
   <v>       0.07692308       0.50000000       0.07692308 </v>
   <v>       0.11538462       0.50000000       0.07692308 </v>
   <v>       0.15384615       0.50000000       0.07692308 </v>
   <v>       0.19230769       0.50000000       0.07692308 </v>
   <v>       0.23076923       0.50000000       0.07692308 </v>
   <v>       0.26923077       0.50000000       0.07692308 </v>
   <v>       0.30769231       0.50000000       0.07692308 </v>
   <v>       0.34615385       0.50000000       0.07692308 </v>
   <v>       0.38461538       0.50000000       0.07692308 </v>
   <v>       0.42307692       0.50000000       0.07692308 </v>
   <v>       0.46153846       0.50000000       0.07692308 </v>
   <v>       0.50000000       0.50000000       0.07692308 </v>
   <v>       0.00000000       0.00000000       0.15384615 </v>
   <v>       0.03846154       0.00000000       0.15384615 </v>
   <v>       0.07692308       0.00000000       0.15384615 </v>
   <v>       0.11538462       0.00000000       0.15384615 </v>
   <v>       0.15384615       0.00000000       0.15384615 </v>
   <v>       0.19230769       0.00000000       0.15384615 </v>
   <v>       0.23076923       0.00000000       0.15384615 </v>
   <v>       0.26923077       0.00000000       0.15384615 </v>
   <v>       0.30769231       0.00000000       0.15384615 </v>
   <v>       0.34615385       0.00000000       0.15384615 </v>
   <v>       0.38461538       0.00000000       0.15384615 </v>
   <v>       0.42307692       0.00000000       0.15384615 </v>
   <v>       0.46153846       0.00000000       0.15384615 </v>
   <v>       0.50000000       0.00000000       0.15384615 </v>
   <v>       0.00000000       0.05000000       0.15384615 </v>
   <v>       0.03846154       0.05000000       0.15384615 </v>
   <v>       0.07692308       0.05000000       0.15384615 </v>
   <v>       0.11538462       0.05000000       0.15384615 </v>
   <v>       0.15384615       0.05000000       0.15384615 </v>
   <v>       0.19230769       0.05000000       0.15384615 </v>
   <v>       0.23076923       0.05000000       0.15384615 </v>
   <v>       0.26923077       0.05000000       0.15384615 </v>
   <v>       0.30769231       0.05000000       0.15384615 </v>
   <v>       0.34615385       0.05000000       0.15384615 </v>
   <v>       0.38461538       0.05000000       0.15384615 </v>
   <v>       0.42307692       0.05000000       0.15384615 </v>
   <v>       0.46153846       0.05000000       0.15384615 </v>
   <v>       0.50000000       0.05000000       0.15384615 </v>
   <v>       0.00000000       0.10000000       0.15384615 </v>
   <v>       0.03846154       0.10000000       0.15384615 </v>
   <v>       0.07692308       0.10000000       0.15384615 </v>
   <v>       0.11538462       0.10000000       0.15384615 </v>
   <v>       0.15384615       0.10000000       0.15384615 </v>
   <v>       0.19230769       0.10000000       0.15384615 </v>
   <v>       0.23076923       0.10000000       0.15384615 </v>
   <v>       0.26923077       0.10000000       0.15384615 </v>
   <v>       0.30769231       0.10000000       0.15384615 </v>
   <v>       0.34615385       0.10000000       0.15384615 </v>
   <v>       0.38461538       0.10000000       0.15384615 </v>
   <v>       0.42307692       0.10000000       0.15384615 </v>
   <v>       0.46153846       0.10000000       0.15384615 </v>
   <v>       0.50000000       0.10000000       0.15384615 </v>
   <v>       0.00000000       0.15000000       0.15384615 </v>
   <v>       0.03846154       0.15000000       0.15384615 </v>
   <v>       0.07692308       0.15000000       0.15384615 </v>
   <v>       0.11538462       0.15000000       0.15384615 </v>
   <v>       0.15384615       0.15000000       0.15384615 </v>
   <v>       0.19230769       0.15000000       0.15384615 </v>
   <v>       0.23076923       0.15000000       0.15384615 </v>
   <v>       0.26923077       0.15000000       0.15384615 </v>
   <v>       0.30769231       0.15000000       0.15384615 </v>
   <v>       0.34615385       0.15000000       0.15384615 </v>
   <v>       0.38461538       0.15000000       0.15384615 </v>
   <v>       0.42307692       0.15000000       0.15384615 </v>
   <v>       0.46153846       0.15000000       0.15384615 </v>
   <v>       0.50000000       0.15000000       0.15384615 </v>
   <v>       0.00000000       0.20000000       0.15384615 </v>
   <v>       0.03846154       0.20000000       0.15384615 </v>
   <v>       0.07692308       0.20000000       0.15384615 </v>
   <v>       0.11538462       0.20000000       0.15384615 </v>
   <v>       0.15384615       0.20000000       0.15384615 </v>
   <v>       0.19230769       0.20000000       0.15384615 </v>
   <v>       0.23076923       0.20000000       0.15384615 </v>
   <v>       0.26923077       0.20000000       0.15384615 </v>
   <v>       0.30769231       0.20000000       0.15384615 </v>
   <v>       0.34615385       0.20000000       0.15384615 </v>
   <v>       0.38461538       0.20000000       0.15384615 </v>
   <v>       0.42307692       0.20000000       0.15384615 </v>
   <v>       0.46153846       0.20000000       0.15384615 </v>
   <v>       0.50000000       0.20000000       0.15384615 </v>
   <v>       0.00000000       0.25000000       0.15384615 </v>
   <v>       0.03846154       0.25000000       0.15384615 </v>
   <v>       0.07692308       0.25000000       0.15384615 </v>
   <v>       0.11538462       0.25000000       0.15384615 </v>
   <v>       0.15384615       0.25000000       0.15384615 </v>
   <v>       0.19230769       0.25000000       0.15384615 </v>
   <v>       0.23076923       0.25000000       0.15384615 </v>
   <v>       0.26923077       0.25000000       0.15384615 </v>
   <v>       0.30769231       0.25000000       0.15384615 </v>
   <v>       0.34615385       0.25000000       0.15384615 </v>
   <v>       0.38461538       0.25000000       0.15384615 </v>
   <v>       0.42307692       0.25000000       0.15384615 </v>
   <v>       0.46153846       0.25000000       0.15384615 </v>
   <v>       0.50000000       0.25000000       0.15384615 </v>
   <v>       0.00000000       0.30000000       0.15384615 </v>
   <v>       0.03846154       0.30000000       0.15384615 </v>
   <v>       0.07692308       0.30000000       0.15384615 </v>
   <v>       0.11538462       0.30000000       0.15384615 </v>
   <v>       0.15384615       0.30000000       0.15384615 </v>
   <v>       0.19230769       0.30000000       0.15384615 </v>
   <v>       0.23076923       0.30000000       0.15384615 </v>
   <v>       0.26923077       0.30000000       0.15384615 </v>
   <v>       0.30769231       0.30000000       0.15384615 </v>
   <v>       0.34615385       0.30000000       0.15384615 </v>
   <v>       0.38461538       0.30000000       0.15384615 </v>
   <v>       0.42307692       0.30000000       0.15384615 </v>
   <v>       0.46153846       0.30000000       0.15384615 </v>
   <v>       0.50000000       0.30000000       0.15384615 </v>
   <v>       0.00000000       0.35000000       0.15384615 </v>
   <v>       0.03846154       0.35000000       0.15384615 </v>
   <v>       0.07692308       0.35000000       0.15384615 </v>
   <v>       0.11538462       0.35000000       0.15384615 </v>
   <v>       0.15384615       0.35000000       0.15384615 </v>
   <v>       0.19230769       0.35000000       0.15384615 </v>
   <v>       0.23076923       0.35000000       0.15384615 </v>
   <v>       0.26923077       0.35000000       0.15384615 </v>
   <v>       0.30769231       0.35000000       0.15384615 </v>
   <v>       0.34615385       0.35000000       0.15384615 </v>
   <v>       0.38461538       0.35000000       0.15384615 </v>
   <v>       0.42307692       0.35000000       0.15384615 </v>
   <v>       0.46153846       0.35000000       0.15384615 </v>
   <v>       0.50000000       0.35000000       0.15384615 </v>
   <v>       0.00000000       0.40000000       0.15384615 </v>
   <v>       0.03846154       0.40000000       0.15384615 </v>
   <v>       0.07692308       0.40000000       0.15384615 </v>
   <v>       0.11538462       0.40000000       0.15384615 </v>
   <v>       0.15384615       0.40000000       0.15384615 </v>
   <v>       0.19230769       0.40000000       0.15384615 </v>
   <v>       0.23076923       0.40000000       0.15384615 </v>
   <v>       0.26923077       0.40000000       0.15384615 </v>
   <v>       0.30769231       0.40000000       0.15384615 </v>
   <v>       0.34615385       0.40000000       0.15384615 </v>
   <v>       0.38461538       0.40000000       0.15384615 </v>
   <v>       0.42307692       0.40000000       0.15384615 </v>
   <v>       0.46153846       0.40000000       0.15384615 </v>
   <v>       0.50000000       0.40000000       0.15384615 </v>
   <v>       0.00000000       0.45000000       0.15384615 </v>
   <v>       0.03846154       0.45000000       0.15384615 </v>
   <v>       0.07692308       0.45000000       0.15384615 </v>
   <v>       0.11538462       0.45000000       0.15384615 </v>
   <v>       0.15384615       0.45000000       0.15384615 </v>
   <v>       0.19230769       0.45000000       0.15384615 </v>
   <v>       0.23076923       0.45000000       0.15384615 </v>
   <v>       0.26923077       0.45000000       0.15384615 </v>
   <v>       0.30769231       0.45000000       0.15384615 </v>
   <v>       0.34615385       0.45000000       0.15384615 </v>
   <v>       0.38461538       0.45000000       0.15384615 </v>
   <v>       0.42307692       0.45000000       0.15384615 </v>
   <v>       0.46153846       0.45000000       0.15384615 </v>
   <v>       0.50000000       0.45000000       0.15384615 </v>
   <v>       0.00000000       0.50000000       0.15384615 </v>
   <v>       0.03846154       0.50000000       0.15384615 </v>
   <v>       0.07692308       0.50000000       0.15384615 </v>
   <v>       0.11538462       0.50000000       0.15384615 </v>
   <v>       0.15384615       0.50000000       0.15384615 </v>
   <v>       0.19230769       0.50000000       0.15384615 </v>
   <v>       0.23076923       0.50000000       0.15384615 </v>
   <v>       0.26923077       0.50000000       0.15384615 </v>
   <v>       0.30769231       0.50000000       0.15384615 </v>
   <v>       0.34615385       0.50000000       0.15384615 </v>
   <v>       0.38461538       0.50000000       0.15384615 </v>
   <v>       0.42307692       0.50000000       0.15384615 </v>
   <v>       0.46153846       0.50000000       0.15384615 </v>
   <v>       0.50000000       0.50000000       0.15384615 </v>
   <v>       0.00000000       0.00000000       0.23076923 </v>
   <v>       0.03846154       0.00000000       0.23076923 </v>
   <v>       0.07692308       0.00000000       0.23076923 </v>
   <v>       0.11538462       0.00000000       0.23076923 </v>
   <v>       0.15384615       0.00000000       0.23076923 </v>
   <v>       0.19230769       0.00000000       0.23076923 </v>
   <v>       0.23076923       0.00000000       0.23076923 </v>
   <v>       0.26923077       0.00000000       0.23076923 </v>
   <v>       0.30769231       0.00000000       0.23076923 </v>
   <v>       0.34615385       0.00000000       0.23076923 </v>
   <v>       0.38461538       0.00000000       0.23076923 </v>
   <v>       0.42307692       0.00000000       0.23076923 </v>
   <v>       0.46153846       0.00000000       0.23076923 </v>
   <v>       0.50000000       0.00000000       0.23076923 </v>
   <v>       0.00000000       0.05000000       0.23076923 </v>
   <v>       0.03846154       0.05000000       0.23076923 </v>
   <v>       0.07692308       0.05000000       0.23076923 </v>
   <v>       0.11538462       0.05000000       0.23076923 </v>
   <v>       0.15384615       0.05000000       0.23076923 </v>
   <v>       0.19230769       0.05000000       0.23076923 </v>
   <v>       0.23076923       0.05000000       0.23076923 </v>
   <v>       0.26923077       0.05000000       0.23076923 </v>
   <v>       0.30769231       0.05000000       0.23076923 </v>
   <v>       0.34615385       0.05000000       0.23076923 </v>
   <v>       0.38461538       0.05000000       0.23076923 </v>
   <v>       0.42307692       0.05000000       0.23076923 </v>
   <v>       0.46153846       0.05000000       0.23076923 </v>
   <v>       0.50000000       0.05000000       0.23076923 </v>
   <v>       0.00000000       0.10000000       0.23076923 </v>
   <v>       0.03846154       0.10000000       0.23076923 </v>
   <v>       0.07692308       0.10000000       0.23076923 </v>
   <v>       0.11538462       0.10000000       0.23076923 </v>
   <v>       0.15384615       0.10000000       0.23076923 </v>
   <v>       0.19230769       0.10000000       0.23076923 </v>
   <v>       0.23076923       0.10000000       0.23076923 </v>
   <v>       0.26923077       0.10000000       0.23076923 </v>
   <v>       0.30769231       0.10000000       0.23076923 </v>
   <v>       0.34615385       0.10000000       0.23076923 </v>
   <v>       0.38461538       0.10000000       0.23076923 </v>
   <v>       0.42307692       0.10000000       0.23076923 </v>
   <v>       0.46153846       0.10000000       0.23076923 </v>
   <v>       0.50000000       0.10000000       0.23076923 </v>
   <v>       0.00000000       0.15000000       0.23076923 </v>
   <v>       0.03846154       0.15000000       0.23076923 </v>
   <v>       0.07692308       0.15000000       0.23076923 </v>
   <v>       0.11538462       0.15000000       0.23076923 </v>
   <v>       0.15384615       0.15000000       0.23076923 </v>
   <v>       0.19230769       0.15000000       0.23076923 </v>
   <v>       0.23076923       0.15000000       0.23076923 </v>
   <v>       0.26923077       0.15000000       0.23076923 </v>
   <v>       0.30769231       0.15000000       0.23076923 </v>
   <v>       0.34615385       0.15000000       0.23076923 </v>
   <v>       0.38461538       0.15000000       0.23076923 </v>
   <v>       0.42307692       0.15000000       0.23076923 </v>
   <v>       0.46153846       0.15000000       0.23076923 </v>
   <v>       0.50000000       0.15000000       0.23076923 </v>
   <v>       0.00000000       0.20000000       0.23076923 </v>
   <v>       0.03846154       0.20000000       0.23076923 </v>
   <v>       0.07692308       0.20000000       0.23076923 </v>
   <v>       0.11538462       0.20000000       0.23076923 </v>
   <v>       0.15384615       0.20000000       0.23076923 </v>
   <v>       0.19230769       0.20000000       0.23076923 </v>
   <v>       0.23076923       0.20000000       0.23076923 </v>
   <v>       0.26923077       0.20000000       0.23076923 </v>
   <v>       0.30769231       0.20000000       0.23076923 </v>
   <v>       0.34615385       0.20000000       0.23076923 </v>
   <v>       0.38461538       0.20000000       0.23076923 </v>
   <v>       0.42307692       0.20000000       0.23076923 </v>
   <v>       0.46153846       0.20000000       0.23076923 </v>
   <v>       0.50000000       0.20000000       0.23076923 </v>
   <v>       0.00000000       0.25000000       0.23076923 </v>
   <v>       0.03846154       0.25000000       0.23076923 </v>
   <v>       0.07692308       0.25000000       0.23076923 </v>
   <v>       0.11538462       0.25000000       0.23076923 </v>
   <v>       0.15384615       0.25000000       0.23076923 </v>
   <v>       0.19230769       0.25000000       0.23076923 </v>
   <v>       0.23076923       0.25000000       0.23076923 </v>
   <v>       0.26923077       0.25000000       0.23076923 </v>
   <v>       0.30769231       0.25000000       0.23076923 </v>
   <v>       0.34615385       0.25000000       0.23076923 </v>
   <v>       0.38461538       0.25000000       0.23076923 </v>
   <v>       0.42307692       0.25000000       0.23076923 </v>
   <v>       0.46153846       0.25000000       0.23076923 </v>
   <v>       0.50000000       0.25000000       0.23076923 </v>
   <v>       0.00000000       0.30000000       0.23076923 </v>
   <v>       0.03846154       0.30000000       0.23076923 </v>
   <v>       0.07692308       0.30000000       0.23076923 </v>
   <v>       0.11538462       0.30000000       0.23076923 </v>
   <v>       0.15384615       0.30000000       0.23076923 </v>
   <v>       0.19230769       0.30000000       0.23076923 </v>
   <v>       0.23076923       0.30000000       0.23076923 </v>
   <v>       0.26923077       0.30000000       0.23076923 </v>
   <v>       0.30769231       0.30000000       0.23076923 </v>
   <v>       0.34615385       0.30000000       0.23076923 </v>
   <v>       0.38461538       0.30000000       0.23076923 </v>
   <v>       0.42307692       0.30000000       0.23076923 </v>
   <v>       0.46153846       0.30000000       0.23076923 </v>
   <v>       0.50000000       0.30000000       0.23076923 </v>
   <v>       0.00000000       0.35000000       0.23076923 </v>
   <v>       0.03846154       0.35000000       0.23076923 </v>
   <v>       0.07692308       0.35000000       0.23076923 </v>
   <v>       0.11538462       0.35000000       0.23076923 </v>
   <v>       0.15384615       0.35000000       0.23076923 </v>
   <v>       0.19230769       0.35000000       0.23076923 </v>
   <v>       0.23076923       0.35000000       0.23076923 </v>
   <v>       0.26923077       0.35000000       0.23076923 </v>
   <v>       0.30769231       0.35000000       0.23076923 </v>
   <v>       0.34615385       0.35000000       0.23076923 </v>
   <v>       0.38461538       0.35000000       0.23076923 </v>
   <v>       0.42307692       0.35000000       0.23076923 </v>
   <v>       0.46153846       0.35000000       0.23076923 </v>
   <v>       0.50000000       0.35000000       0.23076923 </v>
   <v>       0.00000000       0.40000000       0.23076923 </v>
   <v>       0.03846154       0.40000000       0.23076923 </v>
   <v>       0.07692308       0.40000000       0.23076923 </v>
   <v>       0.11538462       0.40000000       0.23076923 </v>
   <v>       0.15384615       0.40000000       0.23076923 </v>
   <v>       0.19230769       0.40000000       0.23076923 </v>
   <v>       0.23076923       0.40000000       0.23076923 </v>
   <v>       0.26923077       0.40000000       0.23076923 </v>
   <v>       0.30769231       0.40000000       0.23076923 </v>
   <v>       0.34615385       0.40000000       0.23076923 </v>
   <v>       0.38461538       0.40000000       0.23076923 </v>
   <v>       0.42307692       0.40000000       0.23076923 </v>
   <v>       0.46153846       0.40000000       0.23076923 </v>
   <v>       0.50000000       0.40000000       0.23076923 </v>
   <v>       0.00000000       0.45000000       0.23076923 </v>
   <v>       0.03846154       0.45000000       0.23076923 </v>
   <v>       0.07692308       0.45000000       0.23076923 </v>
   <v>       0.11538462       0.45000000       0.23076923 </v>
   <v>       0.15384615       0.45000000       0.23076923 </v>
   <v>       0.19230769       0.45000000       0.23076923 </v>
   <v>       0.23076923       0.45000000       0.23076923 </v>
   <v>       0.26923077       0.45000000       0.23076923 </v>
   <v>       0.30769231       0.45000000       0.23076923 </v>
   <v>       0.34615385       0.45000000       0.23076923 </v>
   <v>       0.38461538       0.45000000       0.23076923 </v>
   <v>       0.42307692       0.45000000       0.23076923 </v>
   <v>       0.46153846       0.45000000       0.23076923 </v>
   <v>       0.50000000       0.45000000       0.23076923 </v>
   <v>       0.00000000       0.50000000       0.23076923 </v>
   <v>       0.03846154       0.50000000       0.23076923 </v>
   <v>       0.07692308       0.50000000       0.23076923 </v>
   <v>       0.11538462       0.50000000       0.23076923 </v>
   <v>       0.15384615       0.50000000       0.23076923 </v>
   <v>       0.19230769       0.50000000       0.23076923 </v>
   <v>       0.23076923       0.50000000       0.23076923 </v>
   <v>       0.26923077       0.50000000       0.23076923 </v>
   <v>       0.30769231       0.50000000       0.23076923 </v>
   <v>       0.34615385       0.50000000       0.23076923 </v>
   <v>       0.38461538       0.50000000       0.23076923 </v>
   <v>       0.42307692       0.50000000       0.23076923 </v>
   <v>       0.46153846       0.50000000       0.23076923 </v>
   <v>       0.50000000       0.50000000       0.23076923 </v>
   <v>       0.00000000       0.00000000       0.30769231 </v>
   <v>       0.03846154       0.00000000       0.30769231 </v>
   <v>       0.07692308       0.00000000       0.30769231 </v>
   <v>       0.11538462       0.00000000       0.30769231 </v>
   <v>       0.15384615       0.00000000       0.30769231 </v>
   <v>       0.19230769       0.00000000       0.30769231 </v>
   <v>       0.23076923       0.00000000       0.30769231 </v>
   <v>       0.26923077       0.00000000       0.30769231 </v>
   <v>       0.30769231       0.00000000       0.30769231 </v>
   <v>       0.34615385       0.00000000       0.30769231 </v>
   <v>       0.38461538       0.00000000       0.30769231 </v>
   <v>       0.42307692       0.00000000       0.30769231 </v>
   <v>       0.46153846       0.00000000       0.30769231 </v>
   <v>       0.50000000       0.00000000       0.30769231 </v>
   <v>       0.00000000       0.05000000       0.30769231 </v>
   <v>       0.03846154       0.05000000       0.30769231 </v>
   <v>       0.07692308       0.05000000       0.30769231 </v>
   <v>       0.11538462       0.05000000       0.30769231 </v>
   <v>       0.15384615       0.05000000       0.30769231 </v>
   <v>       0.19230769       0.05000000       0.30769231 </v>
   <v>       0.23076923       0.05000000       0.30769231 </v>
   <v>       0.26923077       0.05000000       0.30769231 </v>
   <v>       0.30769231       0.05000000       0.30769231 </v>
   <v>       0.34615385       0.05000000       0.30769231 </v>
   <v>       0.38461538       0.05000000       0.30769231 </v>
   <v>       0.42307692       0.05000000       0.30769231 </v>
   <v>       0.46153846       0.05000000       0.30769231 </v>
   <v>       0.50000000       0.05000000       0.30769231 </v>
   <v>       0.00000000       0.10000000       0.30769231 </v>
   <v>       0.03846154       0.10000000       0.30769231 </v>
   <v>       0.07692308       0.10000000       0.30769231 </v>
   <v>       0.11538462       0.10000000       0.30769231 </v>
   <v>       0.15384615       0.10000000       0.30769231 </v>
   <v>       0.19230769       0.10000000       0.30769231 </v>
   <v>       0.23076923       0.10000000       0.30769231 </v>
   <v>       0.26923077       0.10000000       0.30769231 </v>
   <v>       0.30769231       0.10000000       0.30769231 </v>
   <v>       0.34615385       0.10000000       0.30769231 </v>
   <v>       0.38461538       0.10000000       0.30769231 </v>
   <v>       0.42307692       0.10000000       0.30769231 </v>
   <v>       0.46153846       0.10000000       0.30769231 </v>
   <v>       0.50000000       0.10000000       0.30769231 </v>
   <v>       0.00000000       0.15000000       0.30769231 </v>
   <v>       0.03846154       0.15000000       0.30769231 </v>
   <v>       0.07692308       0.15000000       0.30769231 </v>
   <v>       0.11538462       0.15000000       0.30769231 </v>
   <v>       0.15384615       0.15000000       0.30769231 </v>
   <v>       0.19230769       0.15000000       0.30769231 </v>
   <v>       0.23076923       0.15000000       0.30769231 </v>
   <v>       0.26923077       0.15000000       0.30769231 </v>
   <v>       0.30769231       0.15000000       0.30769231 </v>
   <v>       0.34615385       0.15000000       0.30769231 </v>
   <v>       0.38461538       0.15000000       0.30769231 </v>
   <v>       0.42307692       0.15000000       0.30769231 </v>
   <v>       0.46153846       0.15000000       0.30769231 </v>
   <v>       0.50000000       0.15000000       0.30769231 </v>
   <v>       0.00000000       0.20000000       0.30769231 </v>
   <v>       0.03846154       0.20000000       0.30769231 </v>
   <v>       0.07692308       0.20000000       0.30769231 </v>
   <v>       0.11538462       0.20000000       0.30769231 </v>
   <v>       0.15384615       0.20000000       0.30769231 </v>
   <v>       0.19230769       0.20000000       0.30769231 </v>
   <v>       0.23076923       0.20000000       0.30769231 </v>
   <v>       0.26923077       0.20000000       0.30769231 </v>
   <v>       0.30769231       0.20000000       0.30769231 </v>
   <v>       0.34615385       0.20000000       0.30769231 </v>
   <v>       0.38461538       0.20000000       0.30769231 </v>
   <v>       0.42307692       0.20000000       0.30769231 </v>
   <v>       0.46153846       0.20000000       0.30769231 </v>
   <v>       0.50000000       0.20000000       0.30769231 </v>
   <v>       0.00000000       0.25000000       0.30769231 </v>
   <v>       0.03846154       0.25000000       0.30769231 </v>
   <v>       0.07692308       0.25000000       0.30769231 </v>
   <v>       0.11538462       0.25000000       0.30769231 </v>
   <v>       0.15384615       0.25000000       0.30769231 </v>
   <v>       0.19230769       0.25000000       0.30769231 </v>
   <v>       0.23076923       0.25000000       0.30769231 </v>
   <v>       0.26923077       0.25000000       0.30769231 </v>
   <v>       0.30769231       0.25000000       0.30769231 </v>
   <v>       0.34615385       0.25000000       0.30769231 </v>
   <v>       0.38461538       0.25000000       0.30769231 </v>
   <v>       0.42307692       0.25000000       0.30769231 </v>
   <v>       0.46153846       0.25000000       0.30769231 </v>
   <v>       0.50000000       0.25000000       0.30769231 </v>
   <v>       0.00000000       0.30000000       0.30769231 </v>
   <v>       0.03846154       0.30000000       0.30769231 </v>
   <v>       0.07692308       0.30000000       0.30769231 </v>
   <v>       0.11538462       0.30000000       0.30769231 </v>
   <v>       0.15384615       0.30000000       0.30769231 </v>
   <v>       0.19230769       0.30000000       0.30769231 </v>
   <v>       0.23076923       0.30000000       0.30769231 </v>
   <v>       0.26923077       0.30000000       0.30769231 </v>
   <v>       0.30769231       0.30000000       0.30769231 </v>
   <v>       0.34615385       0.30000000       0.30769231 </v>
   <v>       0.38461538       0.30000000       0.30769231 </v>
   <v>       0.42307692       0.30000000       0.30769231 </v>
   <v>       0.46153846       0.30000000       0.30769231 </v>
   <v>       0.50000000       0.30000000       0.30769231 </v>
   <v>       0.00000000       0.35000000       0.30769231 </v>
   <v>       0.03846154       0.35000000       0.30769231 </v>
   <v>       0.07692308       0.35000000       0.30769231 </v>
   <v>       0.11538462       0.35000000       0.30769231 </v>
   <v>       0.15384615       0.35000000       0.30769231 </v>
   <v>       0.19230769       0.35000000       0.30769231 </v>
   <v>       0.23076923       0.35000000       0.30769231 </v>
   <v>       0.26923077       0.35000000       0.30769231 </v>
   <v>       0.30769231       0.35000000       0.30769231 </v>
   <v>       0.34615385       0.35000000       0.30769231 </v>
   <v>       0.38461538       0.35000000       0.30769231 </v>
   <v>       0.42307692       0.35000000       0.30769231 </v>
   <v>       0.46153846       0.35000000       0.30769231 </v>
   <v>       0.50000000       0.35000000       0.30769231 </v>
   <v>       0.00000000       0.40000000       0.30769231 </v>
   <v>       0.03846154       0.40000000       0.30769231 </v>
   <v>       0.07692308       0.40000000       0.30769231 </v>
   <v>       0.11538462       0.40000000       0.30769231 </v>
   <v>       0.15384615       0.40000000       0.30769231 </v>
   <v>       0.19230769       0.40000000       0.30769231 </v>
   <v>       0.23076923       0.40000000       0.30769231 </v>
   <v>       0.26923077       0.40000000       0.30769231 </v>
   <v>       0.30769231       0.40000000       0.30769231 </v>
   <v>       0.34615385       0.40000000       0.30769231 </v>
   <v>       0.38461538       0.40000000       0.30769231 </v>
   <v>       0.42307692       0.40000000       0.30769231 </v>
   <v>       0.46153846       0.40000000       0.30769231 </v>
   <v>       0.50000000       0.40000000       0.30769231 </v>
   <v>       0.00000000       0.45000000       0.30769231 </v>
   <v>       0.03846154       0.45000000       0.30769231 </v>
   <v>       0.07692308       0.45000000       0.30769231 </v>
   <v>       0.11538462       0.45000000       0.30769231 </v>
   <v>       0.15384615       0.45000000       0.30769231 </v>
   <v>       0.19230769       0.45000000       0.30769231 </v>
   <v>       0.23076923       0.45000000       0.30769231 </v>
   <v>       0.26923077       0.45000000       0.30769231 </v>
   <v>       0.30769231       0.45000000       0.30769231 </v>
   <v>       0.34615385       0.45000000       0.30769231 </v>
   <v>       0.38461538       0.45000000       0.30769231 </v>
   <v>       0.42307692       0.45000000       0.30769231 </v>
   <v>       0.46153846       0.45000000       0.30769231 </v>
   <v>       0.50000000       0.45000000       0.30769231 </v>
   <v>       0.00000000       0.50000000       0.30769231 </v>
   <v>       0.03846154       0.50000000       0.30769231 </v>
   <v>       0.07692308       0.50000000       0.30769231 </v>
   <v>       0.11538462       0.50000000       0.30769231 </v>
   <v>       0.15384615       0.50000000       0.30769231 </v>
   <v>       0.19230769       0.50000000       0.30769231 </v>
   <v>       0.23076923       0.50000000       0.30769231 </v>
   <v>       0.26923077       0.50000000       0.30769231 </v>
   <v>       0.30769231       0.50000000       0.30769231 </v>
   <v>       0.34615385       0.50000000       0.30769231 </v>
   <v>       0.38461538       0.50000000       0.30769231 </v>
   <v>       0.42307692       0.50000000       0.30769231 </v>
   <v>       0.46153846       0.50000000       0.30769231 </v>
   <v>       0.50000000       0.50000000       0.30769231 </v>
   <v>       0.00000000       0.00000000       0.38461538 </v>
   <v>       0.03846154       0.00000000       0.38461538 </v>
   <v>       0.07692308       0.00000000       0.38461538 </v>
   <v>       0.11538462       0.00000000       0.38461538 </v>
   <v>       0.15384615       0.00000000       0.38461538 </v>
   <v>       0.19230769       0.00000000       0.38461538 </v>
   <v>       0.23076923       0.00000000       0.38461538 </v>
   <v>       0.26923077       0.00000000       0.38461538 </v>
   <v>       0.30769231       0.00000000       0.38461538 </v>
   <v>       0.34615385       0.00000000       0.38461538 </v>
   <v>       0.38461538       0.00000000       0.38461538 </v>
   <v>       0.42307692       0.00000000       0.38461538 </v>
   <v>       0.46153846       0.00000000       0.38461538 </v>
   <v>       0.50000000       0.00000000       0.38461538 </v>
   <v>       0.00000000       0.05000000       0.38461538 </v>
   <v>       0.03846154       0.05000000       0.38461538 </v>
   <v>       0.07692308       0.05000000       0.38461538 </v>
   <v>       0.11538462       0.05000000       0.38461538 </v>
   <v>       0.15384615       0.05000000       0.38461538 </v>
   <v>       0.19230769       0.05000000       0.38461538 </v>
   <v>       0.23076923       0.05000000       0.38461538 </v>
   <v>       0.26923077       0.05000000       0.38461538 </v>
   <v>       0.30769231       0.05000000       0.38461538 </v>
   <v>       0.34615385       0.05000000       0.38461538 </v>
   <v>       0.38461538       0.05000000       0.38461538 </v>
   <v>       0.42307692       0.05000000       0.38461538 </v>
   <v>       0.46153846       0.05000000       0.38461538 </v>
   <v>       0.50000000       0.05000000       0.38461538 </v>
   <v>       0.00000000       0.10000000       0.38461538 </v>
   <v>       0.03846154       0.10000000       0.38461538 </v>
   <v>       0.07692308       0.10000000       0.38461538 </v>
   <v>       0.11538462       0.10000000       0.38461538 </v>
   <v>       0.15384615       0.10000000       0.38461538 </v>
   <v>       0.19230769       0.10000000       0.38461538 </v>
   <v>       0.23076923       0.10000000       0.38461538 </v>
   <v>       0.26923077       0.10000000       0.38461538 </v>
   <v>       0.30769231       0.10000000       0.38461538 </v>
   <v>       0.34615385       0.10000000       0.38461538 </v>
   <v>       0.38461538       0.10000000       0.38461538 </v>
   <v>       0.42307692       0.10000000       0.38461538 </v>
   <v>       0.46153846       0.10000000       0.38461538 </v>
   <v>       0.50000000       0.10000000       0.38461538 </v>
   <v>       0.00000000       0.15000000       0.38461538 </v>
   <v>       0.03846154       0.15000000       0.38461538 </v>
   <v>       0.07692308       0.15000000       0.38461538 </v>
   <v>       0.11538462       0.15000000       0.38461538 </v>
   <v>       0.15384615       0.15000000       0.38461538 </v>
   <v>       0.19230769       0.15000000       0.38461538 </v>
   <v>       0.23076923       0.15000000       0.38461538 </v>
   <v>       0.26923077       0.15000000       0.38461538 </v>
   <v>       0.30769231       0.15000000       0.38461538 </v>
   <v>       0.34615385       0.15000000       0.38461538 </v>
   <v>       0.38461538       0.15000000       0.38461538 </v>
   <v>       0.42307692       0.15000000       0.38461538 </v>
   <v>       0.46153846       0.15000000       0.38461538 </v>
   <v>       0.50000000       0.15000000       0.38461538 </v>
   <v>       0.00000000       0.20000000       0.38461538 </v>
   <v>       0.03846154       0.20000000       0.38461538 </v>
   <v>       0.07692308       0.20000000       0.38461538 </v>
   <v>       0.11538462       0.20000000       0.38461538 </v>
   <v>       0.15384615       0.20000000       0.38461538 </v>
   <v>       0.19230769       0.20000000       0.38461538 </v>
   <v>       0.23076923       0.20000000       0.38461538 </v>
   <v>       0.26923077       0.20000000       0.38461538 </v>
   <v>       0.30769231       0.20000000       0.38461538 </v>
   <v>       0.34615385       0.20000000       0.38461538 </v>
   <v>       0.38461538       0.20000000       0.38461538 </v>
   <v>       0.42307692       0.20000000       0.38461538 </v>
   <v>       0.46153846       0.20000000       0.38461538 </v>
   <v>       0.50000000       0.20000000       0.38461538 </v>
   <v>       0.00000000       0.25000000       0.38461538 </v>
   <v>       0.03846154       0.25000000       0.38461538 </v>
   <v>       0.07692308       0.25000000       0.38461538 </v>
   <v>       0.11538462       0.25000000       0.38461538 </v>
   <v>       0.15384615       0.25000000       0.38461538 </v>
   <v>       0.19230769       0.25000000       0.38461538 </v>
   <v>       0.23076923       0.25000000       0.38461538 </v>
   <v>       0.26923077       0.25000000       0.38461538 </v>
   <v>       0.30769231       0.25000000       0.38461538 </v>
   <v>       0.34615385       0.25000000       0.38461538 </v>
   <v>       0.38461538       0.25000000       0.38461538 </v>
   <v>       0.42307692       0.25000000       0.38461538 </v>
   <v>       0.46153846       0.25000000       0.38461538 </v>
   <v>       0.50000000       0.25000000       0.38461538 </v>
   <v>       0.00000000       0.30000000       0.38461538 </v>
   <v>       0.03846154       0.30000000       0.38461538 </v>
   <v>       0.07692308       0.30000000       0.38461538 </v>
   <v>       0.11538462       0.30000000       0.38461538 </v>
   <v>       0.15384615       0.30000000       0.38461538 </v>
   <v>       0.19230769       0.30000000       0.38461538 </v>
   <v>       0.23076923       0.30000000       0.38461538 </v>
   <v>       0.26923077       0.30000000       0.38461538 </v>
   <v>       0.30769231       0.30000000       0.38461538 </v>
   <v>       0.34615385       0.30000000       0.38461538 </v>
   <v>       0.38461538       0.30000000       0.38461538 </v>
   <v>       0.42307692       0.30000000       0.38461538 </v>
   <v>       0.46153846       0.30000000       0.38461538 </v>
   <v>       0.50000000       0.30000000       0.38461538 </v>
   <v>       0.00000000       0.35000000       0.38461538 </v>
   <v>       0.03846154       0.35000000       0.38461538 </v>
   <v>       0.07692308       0.35000000       0.38461538 </v>
   <v>       0.11538462       0.35000000       0.38461538 </v>
   <v>       0.15384615       0.35000000       0.38461538 </v>
   <v>       0.19230769       0.35000000       0.38461538 </v>
   <v>       0.23076923       0.35000000       0.38461538 </v>
   <v>       0.26923077       0.35000000       0.38461538 </v>
   <v>       0.30769231       0.35000000       0.38461538 </v>
   <v>       0.34615385       0.35000000       0.38461538 </v>
   <v>       0.38461538       0.35000000       0.38461538 </v>
   <v>       0.42307692       0.35000000       0.38461538 </v>
   <v>       0.46153846       0.35000000       0.38461538 </v>
   <v>       0.50000000       0.35000000       0.38461538 </v>
   <v>       0.00000000       0.40000000       0.38461538 </v>
   <v>       0.03846154       0.40000000       0.38461538 </v>
   <v>       0.07692308       0.40000000       0.38461538 </v>
   <v>       0.11538462       0.40000000       0.38461538 </v>
   <v>       0.15384615       0.40000000       0.38461538 </v>
   <v>       0.19230769       0.40000000       0.38461538 </v>
   <v>       0.23076923       0.40000000       0.38461538 </v>
   <v>       0.26923077       0.40000000       0.38461538 </v>
   <v>       0.30769231       0.40000000       0.38461538 </v>
   <v>       0.34615385       0.40000000       0.38461538 </v>
   <v>       0.38461538       0.40000000       0.38461538 </v>
   <v>       0.42307692       0.40000000       0.38461538 </v>
   <v>       0.46153846       0.40000000       0.38461538 </v>
   <v>       0.50000000       0.40000000       0.38461538 </v>
   <v>       0.00000000       0.45000000       0.38461538 </v>
   <v>       0.03846154       0.45000000       0.38461538 </v>
   <v>       0.07692308       0.45000000       0.38461538 </v>
   <v>       0.11538462       0.45000000       0.38461538 </v>
   <v>       0.15384615       0.45000000       0.38461538 </v>
   <v>       0.19230769       0.45000000       0.38461538 </v>
   <v>       0.23076923       0.45000000       0.38461538 </v>
   <v>       0.26923077       0.45000000       0.38461538 </v>
   <v>       0.30769231       0.45000000       0.38461538 </v>
   <v>       0.34615385       0.45000000       0.38461538 </v>
   <v>       0.38461538       0.45000000       0.38461538 </v>
   <v>       0.42307692       0.45000000       0.38461538 </v>
   <v>       0.46153846       0.45000000       0.38461538 </v>
   <v>       0.50000000       0.45000000       0.38461538 </v>
   <v>       0.00000000       0.50000000       0.38461538 </v>
   <v>       0.03846154       0.50000000       0.38461538 </v>
   <v>       0.07692308       0.50000000       0.38461538 </v>
   <v>       0.11538462       0.50000000       0.38461538 </v>
   <v>       0.15384615       0.50000000       0.38461538 </v>
   <v>       0.19230769       0.50000000       0.38461538 </v>
   <v>       0.23076923       0.50000000       0.38461538 </v>
   <v>       0.26923077       0.50000000       0.38461538 </v>
   <v>       0.30769231       0.50000000       0.38461538 </v>
   <v>       0.34615385       0.50000000       0.38461538 </v>
   <v>       0.38461538       0.50000000       0.38461538 </v>
   <v>       0.42307692       0.50000000       0.38461538 </v>
   <v>       0.46153846       0.50000000       0.38461538 </v>
   <v>       0.50000000       0.50000000       0.38461538 </v>
   <v>       0.00000000       0.00000000       0.46153846 </v>
   <v>       0.03846154       0.00000000       0.46153846 </v>
   <v>       0.07692308       0.00000000       0.46153846 </v>
   <v>       0.11538462       0.00000000       0.46153846 </v>
   <v>       0.15384615       0.00000000       0.46153846 </v>
   <v>       0.19230769       0.00000000       0.46153846 </v>
   <v>       0.23076923       0.00000000       0.46153846 </v>
   <v>       0.26923077       0.00000000       0.46153846 </v>
   <v>       0.30769231       0.00000000       0.46153846 </v>
   <v>       0.34615385       0.00000000       0.46153846 </v>
   <v>       0.38461538       0.00000000       0.46153846 </v>
   <v>       0.42307692       0.00000000       0.46153846 </v>
   <v>       0.46153846       0.00000000       0.46153846 </v>
   <v>       0.50000000       0.00000000       0.46153846 </v>
   <v>       0.00000000       0.05000000       0.46153846 </v>
   <v>       0.03846154       0.05000000       0.46153846 </v>
   <v>       0.07692308       0.05000000       0.46153846 </v>
   <v>       0.11538462       0.05000000       0.46153846 </v>
   <v>       0.15384615       0.05000000       0.46153846 </v>
   <v>       0.19230769       0.05000000       0.46153846 </v>
   <v>       0.23076923       0.05000000       0.46153846 </v>
   <v>       0.26923077       0.05000000       0.46153846 </v>
   <v>       0.30769231       0.05000000       0.46153846 </v>
   <v>       0.34615385       0.05000000       0.46153846 </v>
   <v>       0.38461538       0.05000000       0.46153846 </v>
   <v>       0.42307692       0.05000000       0.46153846 </v>
   <v>       0.46153846       0.05000000       0.46153846 </v>
   <v>       0.50000000       0.05000000       0.46153846 </v>
   <v>       0.00000000       0.10000000       0.46153846 </v>
   <v>       0.03846154       0.10000000       0.46153846 </v>
   <v>       0.07692308       0.10000000       0.46153846 </v>
   <v>       0.11538462       0.10000000       0.46153846 </v>
   <v>       0.15384615       0.10000000       0.46153846 </v>
   <v>       0.19230769       0.10000000       0.46153846 </v>
   <v>       0.23076923       0.10000000       0.46153846 </v>
   <v>       0.26923077       0.10000000       0.46153846 </v>
   <v>       0.30769231       0.10000000       0.46153846 </v>
   <v>       0.34615385       0.10000000       0.46153846 </v>
   <v>       0.38461538       0.10000000       0.46153846 </v>
   <v>       0.42307692       0.10000000       0.46153846 </v>
   <v>       0.46153846       0.10000000       0.46153846 </v>
   <v>       0.50000000       0.10000000       0.46153846 </v>
   <v>       0.00000000       0.15000000       0.46153846 </v>
   <v>       0.03846154       0.15000000       0.46153846 </v>
   <v>       0.07692308       0.15000000       0.46153846 </v>
   <v>       0.11538462       0.15000000       0.46153846 </v>
   <v>       0.15384615       0.15000000       0.46153846 </v>
   <v>       0.19230769       0.15000000       0.46153846 </v>
   <v>       0.23076923       0.15000000       0.46153846 </v>
   <v>       0.26923077       0.15000000       0.46153846 </v>
   <v>       0.30769231       0.15000000       0.46153846 </v>
   <v>       0.34615385       0.15000000       0.46153846 </v>
   <v>       0.38461538       0.15000000       0.46153846 </v>
   <v>       0.42307692       0.15000000       0.46153846 </v>
   <v>       0.46153846       0.15000000       0.46153846 </v>
   <v>       0.50000000       0.15000000       0.46153846 </v>
   <v>       0.00000000       0.20000000       0.46153846 </v>
   <v>       0.03846154       0.20000000       0.46153846 </v>
   <v>       0.07692308       0.20000000       0.46153846 </v>
   <v>       0.11538462       0.20000000       0.46153846 </v>
   <v>       0.15384615       0.20000000       0.46153846 </v>
   <v>       0.19230769       0.20000000       0.46153846 </v>
   <v>       0.23076923       0.20000000       0.46153846 </v>
   <v>       0.26923077       0.20000000       0.46153846 </v>
   <v>       0.30769231       0.20000000       0.46153846 </v>
   <v>       0.34615385       0.20000000       0.46153846 </v>
   <v>       0.38461538       0.20000000       0.46153846 </v>
   <v>       0.42307692       0.20000000       0.46153846 </v>
   <v>       0.46153846       0.20000000       0.46153846 </v>
   <v>       0.50000000       0.20000000       0.46153846 </v>
   <v>       0.00000000       0.25000000       0.46153846 </v>
   <v>       0.03846154       0.25000000       0.46153846 </v>
   <v>       0.07692308       0.25000000       0.46153846 </v>
   <v>       0.11538462       0.25000000       0.46153846 </v>
   <v>       0.15384615       0.25000000       0.46153846 </v>
   <v>       0.19230769       0.25000000       0.46153846 </v>
   <v>       0.23076923       0.25000000       0.46153846 </v>
   <v>       0.26923077       0.25000000       0.46153846 </v>
   <v>       0.30769231       0.25000000       0.46153846 </v>
   <v>       0.34615385       0.25000000       0.46153846 </v>
   <v>       0.38461538       0.25000000       0.46153846 </v>
   <v>       0.42307692       0.25000000       0.46153846 </v>
   <v>       0.46153846       0.25000000       0.46153846 </v>
   <v>       0.50000000       0.25000000       0.46153846 </v>
   <v>       0.00000000       0.30000000       0.46153846 </v>
   <v>       0.03846154       0.30000000       0.46153846 </v>
   <v>       0.07692308       0.30000000       0.46153846 </v>
   <v>       0.11538462       0.30000000       0.46153846 </v>
   <v>       0.15384615       0.30000000       0.46153846 </v>
   <v>       0.19230769       0.30000000       0.46153846 </v>
   <v>       0.23076923       0.30000000       0.46153846 </v>
   <v>       0.26923077       0.30000000       0.46153846 </v>
   <v>       0.30769231       0.30000000       0.46153846 </v>
   <v>       0.34615385       0.30000000       0.46153846 </v>
   <v>       0.38461538       0.30000000       0.46153846 </v>
   <v>       0.42307692       0.30000000       0.46153846 </v>
   <v>       0.46153846       0.30000000       0.46153846 </v>
   <v>       0.50000000       0.30000000       0.46153846 </v>
   <v>       0.00000000       0.35000000       0.46153846 </v>
   <v>       0.03846154       0.35000000       0.46153846 </v>
   <v>       0.07692308       0.35000000       0.46153846 </v>
   <v>       0.11538462       0.35000000       0.46153846 </v>
   <v>       0.15384615       0.35000000       0.46153846 </v>
   <v>       0.19230769       0.35000000       0.46153846 </v>
   <v>       0.23076923       0.35000000       0.46153846 </v>
   <v>       0.26923077       0.35000000       0.46153846 </v>
   <v>       0.30769231       0.35000000       0.46153846 </v>
   <v>       0.34615385       0.35000000       0.46153846 </v>
   <v>       0.38461538       0.35000000       0.46153846 </v>
   <v>       0.42307692       0.35000000       0.46153846 </v>
   <v>       0.46153846       0.35000000       0.46153846 </v>
   <v>       0.50000000       0.35000000       0.46153846 </v>
   <v>       0.00000000       0.40000000       0.46153846 </v>
   <v>       0.03846154       0.40000000       0.46153846 </v>
   <v>       0.07692308       0.40000000       0.46153846 </v>
   <v>       0.11538462       0.40000000       0.46153846 </v>
   <v>       0.15384615       0.40000000       0.46153846 </v>
   <v>       0.19230769       0.40000000       0.46153846 </v>
   <v>       0.23076923       0.40000000       0.46153846 </v>
   <v>       0.26923077       0.40000000       0.46153846 </v>
   <v>       0.30769231       0.40000000       0.46153846 </v>
   <v>       0.34615385       0.40000000       0.46153846 </v>
   <v>       0.38461538       0.40000000       0.46153846 </v>
   <v>       0.42307692       0.40000000       0.46153846 </v>
   <v>       0.46153846       0.40000000       0.46153846 </v>
   <v>       0.50000000       0.40000000       0.46153846 </v>
   <v>       0.00000000       0.45000000       0.46153846 </v>
   <v>       0.03846154       0.45000000       0.46153846 </v>
   <v>       0.07692308       0.45000000       0.46153846 </v>
   <v>       0.11538462       0.45000000       0.46153846 </v>
   <v>       0.15384615       0.45000000       0.46153846 </v>
   <v>       0.19230769       0.45000000       0.46153846 </v>
   <v>       0.23076923       0.45000000       0.46153846 </v>
   <v>       0.26923077       0.45000000       0.46153846 </v>
   <v>       0.30769231       0.45000000       0.46153846 </v>
   <v>       0.34615385       0.45000000       0.46153846 </v>
   <v>       0.38461538       0.45000000       0.46153846 </v>
   <v>       0.42307692       0.45000000       0.46153846 </v>
   <v>       0.46153846       0.45000000       0.46153846 </v>
   <v>       0.50000000       0.45000000       0.46153846 </v>
   <v>       0.00000000       0.50000000       0.46153846 </v>
   <v>       0.03846154       0.50000000       0.46153846 </v>
   <v>       0.07692308       0.50000000       0.46153846 </v>
   <v>       0.11538462       0.50000000       0.46153846 </v>
   <v>       0.15384615       0.50000000       0.46153846 </v>
   <v>       0.19230769       0.50000000       0.46153846 </v>
   <v>       0.23076923       0.50000000       0.46153846 </v>
   <v>       0.26923077       0.50000000       0.46153846 </v>
   <v>       0.30769231       0.50000000       0.46153846 </v>
   <v>       0.34615385       0.50000000       0.46153846 </v>
   <v>       0.38461538       0.50000000       0.46153846 </v>
   <v>       0.42307692       0.50000000       0.46153846 </v>
   <v>       0.46153846       0.50000000       0.46153846 </v>
   <v>       0.50000000       0.50000000       0.46153846 </v>
  </varray>
  <varray name="weights" >
   <v>       0.00014793 </v>
   <v>       0.00029586 </v>
   <v>       0.00029586 </v>
   <v>       0.00029586 </v>
   <v>       0.00029586 </v>
   <v>       0.00029586 </v>
   <v>       0.00029586 </v>
   <v>       0.00029586 </v>
   <v>       0.00029586 </v>
   <v>       0.00029586 </v>
   <v>       0.00029586 </v>
   <v>       0.00029586 </v>
   <v>       0.00029586 </v>
   <v>       0.00014793 </v>
   <v>       0.00029586 </v>
   <v>       0.00059172 </v>
   <v>       0.00059172 </v>
   <v>       0.00059172 </v>
   <v>       0.00059172 </v>
   <v>       0.00059172 </v>
   <v>       0.00059172 </v>
   <v>       0.00059172 </v>
   <v>       0.00059172 </v>
   <v>       0.00059172 </v>
   <v>       0.00059172 </v>
   <v>       0.00059172 </v>
   <v>       0.00059172 </v>
   <v>       0.00029586 </v>
   <v>       0.00029586 </v>
   <v>       0.00059172 </v>
   <v>       0.00059172 </v>
   <v>       0.00059172 </v>
   <v>       0.00059172 </v>
   <v>       0.00059172 </v>
   <v>       0.00059172 </v>
   <v>       0.00059172 </v>
   <v>       0.00059172 </v>
   <v>       0.00059172 </v>
   <v>       0.00059172 </v>
   <v>       0.00059172 </v>
   <v>       0.00059172 </v>
   <v>       0.00029586 </v>
   <v>       0.00029586 </v>
   <v>       0.00059172 </v>
   <v>       0.00059172 </v>
   <v>       0.00059172 </v>
   <v>       0.00059172 </v>
   <v>       0.00059172 </v>
   <v>       0.00059172 </v>
   <v>       0.00059172 </v>
   <v>       0.00059172 </v>
   <v>       0.00059172 </v>
   <v>       0.00059172 </v>
   <v>       0.00059172 </v>
   <v>       0.00059172 </v>
   <v>       0.00029586 </v>
   <v>       0.00029586 </v>
   <v>       0.00059172 </v>
   <v>       0.00059172 </v>
   <v>       0.00059172 </v>
   <v>       0.00059172 </v>
   <v>       0.00059172 </v>
   <v>       0.00059172 </v>
   <v>       0.00059172 </v>
   <v>       0.00059172 </v>
   <v>       0.00059172 </v>
   <v>       0.00059172 </v>
   <v>       0.00059172 </v>
   <v>       0.00059172 </v>
   <v>       0.00029586 </v>
   <v>       0.00029586 </v>
   <v>       0.00059172 </v>
   <v>       0.00059172 </v>
   <v>       0.00059172 </v>
   <v>       0.00059172 </v>
   <v>       0.00059172 </v>
   <v>       0.00059172 </v>
   <v>       0.00059172 </v>
   <v>       0.00059172 </v>
   <v>       0.00059172 </v>
   <v>       0.00059172 </v>
   <v>       0.00059172 </v>
   <v>       0.00059172 </v>
   <v>       0.00029586 </v>
   <v>       0.00029586 </v>
   <v>       0.00059172 </v>
   <v>       0.00059172 </v>
   <v>       0.00059172 </v>
   <v>       0.00059172 </v>
   <v>       0.00059172 </v>
   <v>       0.00059172 </v>
   <v>       0.00059172 </v>
   <v>       0.00059172 </v>
   <v>       0.00059172 </v>
   <v>       0.00059172 </v>
   <v>       0.00059172 </v>
   <v>       0.00059172 </v>
   <v>       0.00029586 </v>
   <v>       0.00029586 </v>
   <v>       0.00059172 </v>
   <v>       0.00059172 </v>
   <v>       0.00059172 </v>
   <v>       0.00059172 </v>
   <v>       0.00059172 </v>
   <v>       0.00059172 </v>
   <v>       0.00059172 </v>
   <v>       0.00059172 </v>
   <v>       0.00059172 </v>
   <v>       0.00059172 </v>
   <v>       0.00059172 </v>
   <v>       0.00059172 </v>
   <v>       0.00029586 </v>
   <v>       0.00029586 </v>
   <v>       0.00059172 </v>
   <v>       0.00059172 </v>
   <v>       0.00059172 </v>
   <v>       0.00059172 </v>
   <v>       0.00059172 </v>
   <v>       0.00059172 </v>
   <v>       0.00059172 </v>
   <v>       0.00059172 </v>
   <v>       0.00059172 </v>
   <v>       0.00059172 </v>
   <v>       0.00059172 </v>
   <v>       0.00059172 </v>
   <v>       0.00029586 </v>
   <v>       0.00029586 </v>
   <v>       0.00059172 </v>
   <v>       0.00059172 </v>
   <v>       0.00059172 </v>
   <v>       0.00059172 </v>
   <v>       0.00059172 </v>
   <v>       0.00059172 </v>
   <v>       0.00059172 </v>
   <v>       0.00059172 </v>
   <v>       0.00059172 </v>
   <v>       0.00059172 </v>
   <v>       0.00059172 </v>
   <v>       0.00059172 </v>
   <v>       0.00029586 </v>
   <v>       0.00014793 </v>
   <v>       0.00029586 </v>
   <v>       0.00029586 </v>
   <v>       0.00029586 </v>
   <v>       0.00029586 </v>
   <v>       0.00029586 </v>
   <v>       0.00029586 </v>
   <v>       0.00029586 </v>
   <v>       0.00029586 </v>
   <v>       0.00029586 </v>
   <v>       0.00029586 </v>
   <v>       0.00029586 </v>
   <v>       0.00029586 </v>
   <v>       0.00014793 </v>
   <v>       0.00029586 </v>
   <v>       0.00059172 </v>
   <v>       0.00059172 </v>
   <v>       0.00059172 </v>
   <v>       0.00059172 </v>
   <v>       0.00059172 </v>
   <v>       0.00059172 </v>
   <v>       0.00059172 </v>
   <v>       0.00059172 </v>
   <v>       0.00059172 </v>
   <v>       0.00059172 </v>
   <v>       0.00059172 </v>
   <v>       0.00059172 </v>
   <v>       0.00029586 </v>
   <v>       0.00059172 </v>
   <v>       0.00118343 </v>
   <v>       0.00118343 </v>
   <v>       0.00118343 </v>
   <v>       0.00118343 </v>
   <v>       0.00118343 </v>
   <v>       0.00118343 </v>
   <v>       0.00118343 </v>
   <v>       0.00118343 </v>
   <v>       0.00118343 </v>
   <v>       0.00118343 </v>
   <v>       0.00118343 </v>
   <v>       0.00118343 </v>
   <v>       0.00059172 </v>
   <v>       0.00059172 </v>
   <v>       0.00118343 </v>
   <v>       0.00118343 </v>
   <v>       0.00118343 </v>
   <v>       0.00118343 </v>
   <v>       0.00118343 </v>
   <v>       0.00118343 </v>
   <v>       0.00118343 </v>
   <v>       0.00118343 </v>
   <v>       0.00118343 </v>
   <v>       0.00118343 </v>
   <v>       0.00118343 </v>
   <v>       0.00118343 </v>
   <v>       0.00059172 </v>
   <v>       0.00059172 </v>
   <v>       0.00118343 </v>
   <v>       0.00118343 </v>
   <v>       0.00118343 </v>
   <v>       0.00118343 </v>
   <v>       0.00118343 </v>
   <v>       0.00118343 </v>
   <v>       0.00118343 </v>
   <v>       0.00118343 </v>
   <v>       0.00118343 </v>
   <v>       0.00118343 </v>
   <v>       0.00118343 </v>
   <v>       0.00118343 </v>
   <v>       0.00059172 </v>
   <v>       0.00059172 </v>
   <v>       0.00118343 </v>
   <v>       0.00118343 </v>
   <v>       0.00118343 </v>
   <v>       0.00118343 </v>
   <v>       0.00118343 </v>
   <v>       0.00118343 </v>
   <v>       0.00118343 </v>
   <v>       0.00118343 </v>
   <v>       0.00118343 </v>
   <v>       0.00118343 </v>
   <v>       0.00118343 </v>
   <v>       0.00118343 </v>
   <v>       0.00059172 </v>
   <v>       0.00059172 </v>
   <v>       0.00118343 </v>
   <v>       0.00118343 </v>
   <v>       0.00118343 </v>
   <v>       0.00118343 </v>
   <v>       0.00118343 </v>
   <v>       0.00118343 </v>
   <v>       0.00118343 </v>
   <v>       0.00118343 </v>
   <v>       0.00118343 </v>
   <v>       0.00118343 </v>
   <v>       0.00118343 </v>
   <v>       0.00118343 </v>
   <v>       0.00059172 </v>
   <v>       0.00059172 </v>
   <v>       0.00118343 </v>
   <v>       0.00118343 </v>
   <v>       0.00118343 </v>
   <v>       0.00118343 </v>
   <v>       0.00118343 </v>
   <v>       0.00118343 </v>
   <v>       0.00118343 </v>
   <v>       0.00118343 </v>
   <v>       0.00118343 </v>
   <v>       0.00118343 </v>
   <v>       0.00118343 </v>
   <v>       0.00118343 </v>
   <v>       0.00059172 </v>
   <v>       0.00059172 </v>
   <v>       0.00118343 </v>
   <v>       0.00118343 </v>
   <v>       0.00118343 </v>
   <v>       0.00118343 </v>
   <v>       0.00118343 </v>
   <v>       0.00118343 </v>
   <v>       0.00118343 </v>
   <v>       0.00118343 </v>
   <v>       0.00118343 </v>
   <v>       0.00118343 </v>
   <v>       0.00118343 </v>
   <v>       0.00118343 </v>
   <v>       0.00059172 </v>
   <v>       0.00059172 </v>
   <v>       0.00118343 </v>
   <v>       0.00118343 </v>
   <v>       0.00118343 </v>
   <v>       0.00118343 </v>
   <v>       0.00118343 </v>
   <v>       0.00118343 </v>
   <v>       0.00118343 </v>
   <v>       0.00118343 </v>
   <v>       0.00118343 </v>
   <v>       0.00118343 </v>
   <v>       0.00118343 </v>
   <v>       0.00118343 </v>
   <v>       0.00059172 </v>
   <v>       0.00059172 </v>
   <v>       0.00118343 </v>
   <v>       0.00118343 </v>
   <v>       0.00118343 </v>
   <v>       0.00118343 </v>
   <v>       0.00118343 </v>
   <v>       0.00118343 </v>
   <v>       0.00118343 </v>
   <v>       0.00118343 </v>
   <v>       0.00118343 </v>
   <v>       0.00118343 </v>
   <v>       0.00118343 </v>
   <v>       0.00118343 </v>
   <v>       0.00059172 </v>
   <v>       0.00029586 </v>
   <v>       0.00059172 </v>
   <v>       0.00059172 </v>
   <v>       0.00059172 </v>
   <v>       0.00059172 </v>
   <v>       0.00059172 </v>
   <v>       0.00059172 </v>
   <v>       0.00059172 </v>
   <v>       0.00059172 </v>
   <v>       0.00059172 </v>
   <v>       0.00059172 </v>
   <v>       0.00059172 </v>
   <v>       0.00059172 </v>
   <v>       0.00029586 </v>
   <v>       0.00029586 </v>
   <v>       0.00059172 </v>
   <v>       0.00059172 </v>
   <v>       0.00059172 </v>
   <v>       0.00059172 </v>
   <v>       0.00059172 </v>
   <v>       0.00059172 </v>
   <v>       0.00059172 </v>
   <v>       0.00059172 </v>
   <v>       0.00059172 </v>
   <v>       0.00059172 </v>
   <v>       0.00059172 </v>
   <v>       0.00059172 </v>
   <v>       0.00029586 </v>
   <v>       0.00059172 </v>
   <v>       0.00118343 </v>
   <v>       0.00118343 </v>
   <v>       0.00118343 </v>
   <v>       0.00118343 </v>
   <v>       0.00118343 </v>
   <v>       0.00118343 </v>
   <v>       0.00118343 </v>
   <v>       0.00118343 </v>
   <v>       0.00118343 </v>
   <v>       0.00118343 </v>
   <v>       0.00118343 </v>
   <v>       0.00118343 </v>
   <v>       0.00059172 </v>
   <v>       0.00059172 </v>
   <v>       0.00118343 </v>
   <v>       0.00118343 </v>
   <v>       0.00118343 </v>
   <v>       0.00118343 </v>
   <v>       0.00118343 </v>
   <v>       0.00118343 </v>
   <v>       0.00118343 </v>
   <v>       0.00118343 </v>
   <v>       0.00118343 </v>
   <v>       0.00118343 </v>
   <v>       0.00118343 </v>
   <v>       0.00118343 </v>
   <v>       0.00059172 </v>
   <v>       0.00059172 </v>
   <v>       0.00118343 </v>
   <v>       0.00118343 </v>
   <v>       0.00118343 </v>
   <v>       0.00118343 </v>
[...]
       <r>    4.4477    1.0000 </r>
       <r>    4.5902    1.0000 </r>
       <r>    4.9890    1.0000 </r>
       <r>    5.0836    1.0000 </r>
       <r>    5.1481    1.0000 </r>
       <r>    5.3339    1.0000 </r>
       <r>    5.5970    1.0000 </r>
       <r>    5.6483    1.0000 </r>
       <r>    5.7083    1.0000 </r>
       <r>    8.1935   -0.0034 </r>
       <r>    8.2804   -0.0010 </r>
       <r>    8.8574    0.0000 </r>
       <r>    8.8753    0.0000 </r>
       <r>   12.6838    0.0000 </r>
       <r>   12.9794    0.0000 </r>
       <r>   13.7400    0.0000 </r>
       <r>   14.1560    0.0000 </r>
      </set>
      <set comment="kpoint 1076">
       <r>    1.4552    1.0000 </r>
       <r>    1.9370    1.0000 </r>
       <r>    2.3953    1.0000 </r>
       <r>    2.7234    1.0000 </r>
       <r>    3.4109    1.0000 </r>
       <r>    3.5294    1.0000 </r>
       <r>    3.7107    1.0000 </r>
       <r>    4.1574    1.0000 </r>
       <r>    4.2821    1.0000 </r>
       <r>    4.3707    1.0000 </r>
       <r>    4.4198    1.0000 </r>
       <r>    4.6355    1.0000 </r>
       <r>    4.6531    1.0000 </r>
       <r>    4.9847    1.0000 </r>
       <r>    5.0820    1.0000 </r>
       <r>    5.1395    1.0000 </r>
       <r>    5.3357    1.0000 </r>
       <r>    5.6851    1.0000 </r>
       <r>    5.7102    1.0000 </r>
       <r>    5.7606    1.0000 </r>
       <r>    8.6068    0.0000 </r>
       <r>    8.7045    0.0000 </r>
       <r>    9.3412    0.0000 </r>
       <r>    9.3520    0.0000 </r>
       <r>   11.8853    0.0000 </r>
       <r>   12.1824    0.0000 </r>
       <r>   12.9597    0.0000 </r>
       <r>   13.2623    0.0000 </r>
      </set>
      <set comment="kpoint 1077">
       <r>    1.4062    1.0000 </r>
       <r>    1.8893    1.0000 </r>
       <r>    2.4396    1.0000 </r>
       <r>    2.7306    1.0000 </r>
       <r>    3.3885    1.0000 </r>
       <r>    3.5267    1.0000 </r>
       <r>    3.7434    1.0000 </r>
       <r>    4.1557    1.0000 </r>
       <r>    4.2459    1.0000 </r>
       <r>    4.4268    1.0000 </r>
       <r>    4.4275    1.0000 </r>
       <r>    4.6786    1.0000 </r>
       <r>    4.8141    1.0000 </r>
       <r>    4.9827    1.0000 </r>
       <r>    5.0701    1.0000 </r>
       <r>    5.1245    1.0000 </r>
       <r>    5.3353    1.0000 </r>
       <r>    5.7409    1.0000 </r>
       <r>    5.7520    1.0000 </r>
       <r>    5.7962    1.0000 </r>
       <r>    9.0013    0.0000 </r>
       <r>    9.1015    0.0000 </r>
       <r>    9.7704    0.0000 </r>
       <r>    9.8293    0.0000 </r>
       <r>   11.2436    0.0000 </r>
       <r>   11.5508    0.0000 </r>
       <r>   12.3503    0.0000 </r>
       <r>   12.5463    0.0000 </r>
      </set>
      <set comment="kpoint 1078">
       <r>    1.3897    1.0000 </r>
       <r>    1.8732    1.0000 </r>
       <r>    2.4544    1.0000 </r>
       <r>    2.7329    1.0000 </r>
       <r>    3.3808    1.0000 </r>
       <r>    3.5251    1.0000 </r>
       <r>    3.7534    1.0000 </r>
       <r>    4.1552    1.0000 </r>
       <r>    4.2329    1.0000 </r>
       <r>    4.4282    1.0000 </r>
       <r>    4.4467    1.0000 </r>
       <r>    4.6949    1.0000 </r>
       <r>    4.8828    1.0000 </r>
       <r>    4.9821    1.0000 </r>
       <r>    5.0560    1.0000 </r>
       <r>    5.1166    1.0000 </r>
       <r>    5.3348    1.0000 </r>
       <r>    5.7600    1.0000 </r>
       <r>    5.7667    1.0000 </r>
       <r>    5.8088    1.0000 </r>
       <r>    9.1947    0.0000 </r>
       <r>    9.2910    0.0000 </r>
       <r>    9.9816    0.0000 </r>
       <r>   10.0690    0.0000 </r>
       <r>   10.9521    0.0000 </r>
       <r>   11.2742    0.0000 </r>
       <r>   12.0936    0.0000 </r>
       <r>   12.2345    0.0000 </r>
      </set>
     </set>
    </set>
   </array>
  </eigenvalues>
  <separator name="orbital magnetization" >
   <v name="MAGDIPOLOUT">      0.00000000      0.00000000      0.00000000</v>
  </separator>
  <dos>
   <i name="efermi">      7.52057431 </i>
   <total>
    <array>
     <dimension dim="1">gridpoints</dimension>
     <dimension dim="2">spin</dimension>
     <field>energy</field>
     <field>total</field>
     <field>integrated</field>
     <set>
      <set comment="spin 1">
       <r>    -4.1769     0.0000     0.0000 </r>
       <r>    -4.0828     0.0000     0.0000 </r>
       <r>    -3.9886     0.0000     0.0000 </r>
       <r>    -3.8944     0.0000     0.0000 </r>
       <r>    -3.8002     0.0000     0.0000 </r>
       <r>    -3.7060     0.0000     0.0000 </r>
       <r>    -3.6118     0.0000     0.0000 </r>
       <r>    -3.5176     0.0000     0.0000 </r>
       <r>    -3.4235     0.0000     0.0000 </r>
       <r>    -3.3293     0.0000     0.0000 </r>
       <r>    -3.2351     0.0000     0.0000 </r>
       <r>    -3.1409     0.0000     0.0000 </r>
       <r>    -3.0467     0.0000     0.0000 </r>
       <r>    -2.9525     0.0000     0.0000 </r>
       <r>    -2.8584     0.0000     0.0000 </r>
       <r>    -2.7642     0.0000     0.0000 </r>
       <r>    -2.6700     0.0000     0.0000 </r>
       <r>    -2.5758     0.0000     0.0000 </r>
       <r>    -2.4816     0.0000     0.0000 </r>
       <r>    -2.3874     0.0000     0.0000 </r>
       <r>    -2.2932     0.0000     0.0000 </r>
       <r>    -2.1991     0.0000     0.0000 </r>
       <r>    -2.1049     0.0000     0.0000 </r>
       <r>    -2.0107     0.0000     0.0000 </r>
       <r>    -1.9165    -0.0001     0.0000 </r>
       <r>    -1.8223    -0.0002     0.0000 </r>
       <r>    -1.7281    -0.0007    -0.0001 </r>
       <r>    -1.6340    -0.0019    -0.0003 </r>
       <r>    -1.5398    -0.0037    -0.0006 </r>
       <r>    -1.4456    -0.0050    -0.0011 </r>
       <r>    -1.3514    -0.0023    -0.0013 </r>
       <r>    -1.2572     0.0098    -0.0004 </r>
       <r>    -1.1630     0.0352     0.0029 </r>
       <r>    -1.0688     0.0730     0.0098 </r>
       <r>    -0.9747     0.1169     0.0208 </r>
       <r>    -0.8805     0.1597     0.0359 </r>
       <r>    -0.7863     0.1968     0.0544 </r>
       <r>    -0.6921     0.2279     0.0758 </r>
       <r>    -0.5979     0.2550     0.0999 </r>
       <r>    -0.5037     0.2806     0.1263 </r>
       <r>    -0.4096     0.3063     0.1551 </r>
       <r>    -0.3154     0.3329     0.1865 </r>
       <r>    -0.2212     0.3603     0.2204 </r>
       <r>    -0.1270     0.3874     0.2569 </r>
       <r>    -0.0328     0.4117     0.2957 </r>
       <r>     0.0614     0.4307     0.3363 </r>
       <r>     0.1555     0.4459     0.3783 </r>
       <r>     0.2497     0.4629     0.4219 </r>
       <r>     0.3439     0.4857     0.4676 </r>
       <r>     0.4381     0.5132     0.5159 </r>
       <r>     0.5323     0.5428     0.5671 </r>
       <r>     0.6265     0.5746     0.6212 </r>
       <r>     0.7207     0.6071     0.6784 </r>
       <r>     0.8148     0.6364     0.7383 </r>
       <r>     0.9090     0.6674     0.8012 </r>
       <r>     1.0032     0.7357     0.8705 </r>
       <r>     1.0974     0.9162     0.9567 </r>
       <r>     1.1916     1.2944     1.0787 </r>
       <r>     1.2858     1.8951     1.2572 </r>
       <r>     1.3799     2.6227     1.5042 </r>
       <r>     1.4741     3.2990     1.8149 </r>
       <r>     1.5683     3.8033     2.1731 </r>
       <r>     1.6625     4.1663     2.5655 </r>
       <r>     1.7567     4.5005     2.9894 </r>
       <r>     1.8509     4.8583     3.4469 </r>
       <r>     1.9451     5.2106     3.9377 </r>
       <r>     2.0392     5.5478     4.4602 </r>
       <r>     2.1334     5.9348     5.0192 </r>
       <r>     2.2276     6.4342     5.6252 </r>
       <r>     2.3218     6.9865     6.2832 </r>
       <r>     2.4160     7.3689     6.9772 </r>
       <r>     2.5102     7.2921     7.6641 </r>
       <r>     2.6043     6.6103     8.2866 </r>
       <r>     2.6985     5.4903     8.8037 </r>
       <r>     2.7927     4.3545     9.2139 </r>
       <r>     2.8869     3.6258     9.5554 </r>
       <r>     2.9811     3.5165     9.8866 </r>
       <r>     3.0753     4.0084    10.2641 </r>
       <r>     3.1694     4.9184    10.7273 </r>
       <r>     3.2636     5.9215    11.2850 </r>
       <r>     3.3578     6.5963    11.9063 </r>
       <r>     3.4520     6.6278    12.5306 </r>
       <r>     3.5462     6.0796    13.1032 </r>
       <r>     3.6404     5.4344    13.6150 </r>
       <r>     3.7346     5.2599    14.1104 </r>
       <r>     3.8287     5.7893    14.6557 </r>
       <r>     3.9229     6.8357    15.2995 </r>
       <r>     4.0171     8.0687    16.0594 </r>
       <r>     4.1113     9.2602    16.9316 </r>
       <r>     4.2055    10.2393    17.8960 </r>
       <r>     4.2997    10.7855    18.9118 </r>
       <r>     4.3938    10.7869    19.9278 </r>
       <r>     4.4880    10.5078    20.9174 </r>
       <r>     4.5822    10.5087    21.9072 </r>
       <r>     4.6764    11.1701    22.9592 </r>
       <r>     4.7706    12.3178    24.1194 </r>
       <r>     4.8648    13.3525    25.3770 </r>
       <r>     4.9590    13.7513    26.6721 </r>
       <r>     5.0531    13.4903    27.9427 </r>
       <r>     5.1473    13.0522    29.1720 </r>
       <r>     5.2415    13.0270    30.3990 </r>
       <r>     5.3357    13.6616    31.6857 </r>
       <r>     5.4299    14.7544    33.0753 </r>
       <r>     5.5241    15.9161    34.5744 </r>
       <r>     5.6182    16.8003    36.1567 </r>
       <r>     5.7124    17.0276    37.7604 </r>
       <r>     5.8066    16.0780    39.2747 </r>
       <r>     5.9008    13.5889    40.5546 </r>
       <r>     5.9950     9.8812    41.4852 </r>
       <r>     6.0892     6.0038    42.0507 </r>
       <r>     6.1833     3.0640    42.3393 </r>
       <r>     6.2775     1.5068    42.4812 </r>
       <r>     6.3717     1.0353    42.5787 </r>
       <r>     6.4659     1.0709    42.6796 </r>
       <r>     6.5601     1.1932    42.7919 </r>
       <r>     6.6543     1.2572    42.9103 </r>
       <r>     6.7485     1.2789    43.0308 </r>
       <r>     6.8426     1.2955    43.1528 </r>
       <r>     6.9368     1.3087    43.2761 </r>
       <r>     7.0310     1.3016    43.3987 </r>
       <r>     7.1252     1.2687    43.5182 </r>
       <r>     7.2194     1.2274    43.6338 </r>
       <r>     7.3136     1.2057    43.7473 </r>
       <r>     7.4077     1.2133    43.8616 </r>
       <r>     7.5019     1.2269    43.9772 </r>
       <r>     7.5961     1.2154    44.0916 </r>
       <r>     7.6903     1.1776    44.2025 </r>
       <r>     7.7845     1.1391    44.3098 </r>
       <r>     7.8787     1.1194    44.4152 </r>
       <r>     7.9729     1.1174    44.5205 </r>
       <r>     8.0670     1.1263    44.6266 </r>
       <r>     8.1612     1.1420    44.7341 </r>
       <r>     8.2554     1.1532    44.8427 </r>
       <r>     8.3496     1.1402    44.9501 </r>
       <r>     8.4438     1.0995    45.0537 </r>
       <r>     8.5380     1.0590    45.1534 </r>
       <r>     8.6321     1.0523    45.2525 </r>
       <r>     8.7263     1.0799    45.3543 </r>
       <r>     8.8205     1.1063    45.4585 </r>
       <r>     8.9147     1.0969    45.5618 </r>
       <r>     9.0089     1.0529    45.6609 </r>
       <r>     9.1031     1.0051    45.7556 </r>
       <r>     9.1972     0.9798    45.8479 </r>
       <r>     9.2914     0.9752    45.9397 </r>
       <r>     9.3856     0.9690    46.0310 </r>
       <r>     9.4798     0.9478    46.1203 </r>
       <r>     9.5740     0.9226    46.2072 </r>
       <r>     9.6682     0.9128    46.2931 </r>
       <r>     9.7624     0.9165    46.3795 </r>
       <r>     9.8565     0.9066    46.4648 </r>
       <r>     9.9507     0.8648    46.5463 </r>
       <r>    10.0449     0.8135    46.6229 </r>
       <r>    10.1391     0.7940    46.6977 </r>
       <r>    10.2333     0.8142    46.7744 </r>
       <r>    10.3275     0.8358    46.8531 </r>
       <r>    10.4216     0.8193    46.9303 </r>
       <r>    10.5158     0.7674    47.0025 </r>
       <r>    10.6100     0.7154    47.0699 </r>
       <r>    10.7042     0.6919    47.1351 </r>
       <r>    10.7984     0.7022    47.2012 </r>
       <r>    10.8926     0.7441    47.2713 </r>
       <r>    10.9868     0.8197    47.3485 </r>
       <r>    11.0809     0.9261    47.4357 </r>
       <r>    11.1751     1.0425    47.5339 </r>
       <r>    11.2693     1.1377    47.6410 </r>
       <r>    11.3635     1.1909    47.7532 </r>
       <r>    11.4577     1.2036    47.8666 </r>
       <r>    11.5519     1.1916    47.9788 </r>
       <r>    11.6460     1.1710    48.0891 </r>
       <r>    11.7402     1.1532    48.1977 </r>
       <r>    11.8344     1.1468    48.3057 </r>
       <r>    11.9286     1.1577    48.4147 </r>
       <r>    12.0228     1.1812    48.5260 </r>
       <r>    12.1170     1.1996    48.6390 </r>
       <r>    12.2111     1.1945    48.7515 </r>
       <r>    12.3053     1.1636    48.8611 </r>
       <r>    12.3995     1.1230    48.9668 </r>
       <r>    12.4937     1.0927    49.0698 </r>
       <r>    12.5879     1.0823    49.1717 </r>
       <r>    12.6821     1.0892    49.2743 </r>
       <r>    12.7763     1.1021    49.3781 </r>
       <r>    12.8704     1.1048    49.4821 </r>
       <r>    12.9646     1.0827    49.5841 </r>
       <r>    13.0588     1.0357    49.6817 </r>
       <r>    13.1530     0.9879    49.7747 </r>
       <r>    13.2472     0.9809    49.8671 </r>
       <r>    13.3414     1.0525    49.9662 </r>
       <r>    13.4355     1.2186    50.0810 </r>
       <r>    13.5297     1.4672    50.2192 </r>
       <r>    13.6239     1.7629    50.3852 </r>
       <r>    13.7181     2.0589    50.5791 </r>
       <r>    13.8123     2.3143    50.7971 </r>
       <r>    13.9065     2.5112    51.0336 </r>
       <r>    14.0007     2.6556    51.2837 </r>
       <r>    14.0948     2.7580    51.5435 </r>
       <r>    14.1890     2.8118    51.8083 </r>
       <r>    14.2832     2.7970    52.0718 </r>
       <r>    14.3774     2.7076    52.3268 </r>
       <r>    14.4716     2.5735    52.5692 </r>
       <r>    14.5658     2.4411    52.7991 </r>
       <r>    14.6599     2.3349    53.0190 </r>
       <r>    14.7541     2.2484    53.2307 </r>
       <r>    14.8483     2.1719    53.4353 </r>
       <r>    14.9425     2.1113    53.6342 </r>
       <r>    15.0367     2.0790    53.8300 </r>
       <r>    15.1309     2.0870    54.0265 </r>
       <r>    15.2250     2.1542    54.2294 </r>
       <r>    15.3192     2.3015    54.4462 </r>
       <r>    15.4134     2.5055    54.6822 </r>
       <r>    15.5076     2.6528    54.9320 </r>
       <r>    15.6018     2.5737    55.1744 </r>
       <r>    15.6960     2.1700    55.3788 </r>
       <r>    15.7902     1.5261    55.5225 </r>
       <r>    15.8843     0.8682    55.6043 </r>
       <r>    15.9785     0.3997    55.6420 </r>
       <r>    16.0727     0.1765    55.6586 </r>
       <r>    16.1669     0.1272    55.6706 </r>
       <r>    16.2611     0.1519    55.6849 </r>
       <r>    16.3553     0.1881    55.7026 </r>
       <r>    16.4494     0.2123    55.7226 </r>
       <r>    16.5436     0.2196    55.7433 </r>
       <r>    16.6378     0.2107    55.7631 </r>
       <r>    16.7320     0.1908    55.7811 </r>
       <r>    16.8262     0.1688    55.7970 </r>
       <r>    16.9204     0.1525    55.8113 </r>
       <r>    17.0146     0.1446    55.8250 </r>
       <r>    17.1087     0.1418    55.8383 </r>
       <r>    17.2029     0.1375    55.8513 </r>
       <r>    17.2971     0.1267    55.8632 </r>
       <r>    17.3913     0.1090    55.8735 </r>
       <r>    17.4855     0.0910    55.8820 </r>
       <r>    17.5797     0.0809    55.8896 </r>
       <r>    17.6738     0.0822    55.8974 </r>
       <r>    17.7680     0.0904    55.9059 </r>
       <r>    17.8622     0.0971    55.9151 </r>
       <r>    17.9564     0.0965    55.9241 </r>
       <r>    18.0506     0.0879    55.9324 </r>
       <r>    18.1448     0.0755    55.9395 </r>
       <r>    18.2389     0.0651    55.9457 </r>
       <r>    18.3331     0.0607    55.9514 </r>
       <r>    18.4273     0.0613    55.9571 </r>
       <r>    18.5215     0.0625    55.9630 </r>
       <r>    18.6157     0.0605    55.9687 </r>
       <r>    18.7099     0.0543    55.9739 </r>
       <r>    18.8041     0.0449    55.9781 </r>
       <r>    18.8982     0.0342    55.9813 </r>
       <r>    18.9924     0.0251    55.9837 </r>
       <r>    19.0866     0.0204    55.9856 </r>
       <r>    19.1808     0.0196    55.9874 </r>
       <r>    19.2750     0.0198    55.9893 </r>
       <r>    19.3692     0.0184    55.9910 </r>
       <r>    19.4633     0.0155    55.9925 </r>
       <r>    19.5575     0.0124    55.9937 </r>
       <r>    19.6517     0.0101    55.9946 </r>
       <r>    19.7459     0.0089    55.9955 </r>
       <r>    19.8401     0.0086    55.9963 </r>
       <r>    19.9343     0.0088    55.9971 </r>
       <r>    20.0285     0.0083    55.9979 </r>
       <r>    20.1226     0.0068    55.9985 </r>
       <r>    20.2168     0.0049    55.9990 </r>
       <r>    20.3110     0.0033    55.9993 </r>
       <r>    20.4052     0.0023    55.9995 </r>
       <r>    20.4994     0.0014    55.9996 </r>
       <r>    20.5936     0.0007    55.9997 </r>
       <r>    20.6877     0.0002    55.9997 </r>
       <r>    20.7819     0.0000    55.9997 </r>
       <r>    20.8761     0.0001    55.9997 </r>
       <r>    20.9703     0.0004    55.9998 </r>
       <r>    21.0645     0.0007    55.9998 </r>
       <r>    21.1587     0.0008    55.9999 </r>
       <r>    21.2528     0.0006    56.0000 </r>
       <r>    21.3470     0.0003    56.0000 </r>
       <r>    21.4412     0.0001    56.0000 </r>
       <r>    21.5354     0.0000    56.0000 </r>
       <r>    21.6296     0.0000    56.0000 </r>
       <r>    21.7238     0.0000    56.0000 </r>
       <r>    21.8180     0.0000    56.0000 </r>
       <r>    21.9121     0.0000    56.0000 </r>
       <r>    22.0063     0.0000    56.0000 </r>
       <r>    22.1005     0.0000    56.0000 </r>
       <r>    22.1947     0.0000    56.0000 </r>
       <r>    22.2889     0.0000    56.0000 </r>
       <r>    22.3831     0.0000    56.0000 </r>
       <r>    22.4772     0.0000    56.0000 </r>
       <r>    22.5714     0.0000    56.0000 </r>
       <r>    22.6656     0.0000    56.0000 </r>
       <r>    22.7598     0.0000    56.0000 </r>
       <r>    22.8540     0.0000    56.0000 </r>
       <r>    22.9482     0.0000    56.0000 </r>
       <r>    23.0424     0.0000    56.0000 </r>
       <r>    23.1365     0.0000    56.0000 </r>
       <r>    23.2307     0.0000    56.0000 </r>
       <r>    23.3249     0.0000    56.0000 </r>
       <r>    23.4191     0.0000    56.0000 </r>
       <r>    23.5133     0.0000    56.0000 </r>
       <r>    23.6075     0.0000    56.0000 </r>
       <r>    23.7016     0.0000    56.0000 </r>
       <r>    23.7958     0.0000    56.0000 </r>
       <r>    23.8900     0.0000    56.0000 </r>
       <r>    23.9842     0.0000    56.0000 </r>
       <r>    24.0784     0.0000    56.0000 </r>
      </set>
     </set>
    </array>
   </total>
  </dos>
 </calculation>
 <structure name="finalpos" >
  <crystal>
   <varray name="basis" >
    <v>       0.00000000      -1.93976466      -1.93976466 </v>
    <v>      -3.54670512       0.00000000       0.00000000 </v>
    <v>       0.00000000       3.93429459      -3.93429459 </v>
   </varray>
   <i name="volume">     54.13410945 </i>
   <varray name="rec_basis" >
    <v>       0.00000000      -0.25776323      -0.25776323 </v>
    <v>      -0.28195183       0.00000000       0.00000000 </v>
    <v>       0.00000000       0.12708759      -0.12708759 </v>
   </varray>
  </crystal>
  <varray name="positions" >
   <v>       0.50000000       0.50000000       0.27405570 </v>
   <v>       0.00000000       0.00000000       0.50000000 </v>
   <v>       0.50000000       0.50000000       0.72594430 </v>
   <v>       0.00000000       0.00000000       0.00000000 </v>
  </varray>
 </structure>
</modeling>
