<?xml version="1.0" encoding="ISO-8859-1"?>
<modeling>
 <generator>
  <i name="program" type="string">vasp </i>
  <i name="version" type="string">5.3.5  </i>
  <i name="subversion" type="string">31Mar14 (build Jun 20 2014 13:15:13) complex                          parallel </i>
  <i name="platform" type="string">LinuxIFC </i>
  <i name="date" type="string">2025 11 21 </i>
  <i name="time" type="string">11:25:38 </i>
 </generator>
 <incar>
  <i type="string" name="PREC">accurate</i>
  <i type="int" name="IALGO">    68</i>
  <i type="logical" name="ADDGRID"> T  </i>
  <i type="int" name="NELM">   100</i>
  <i type="int" name="NELMIN">     4</i>
  <i type="int" name="IBRION">     2</i>
  <i name="EDIFF">      0.00000100</i>
  <i name="EDIFFG">     -0.02000000</i>
  <i type="int" name="NSW">    30</i>
  <i type="int" name="ISIF">     3</i>
  <i name="ENCUT">    500.00000000</i>
  <i type="logical" name="LREAL"> F  </i>
  <i type="int" name="ISMEAR">     1</i>
  <i name="SIGMA">      0.30000000</i>
  <i type="logical" name="LWAVE"> F  </i>
  <i type="logical" name="LCHARG"> F  </i>
  <i type="int" name="NELM">   100</i>
 </incar>
 <kpoints>
  <generation param="Auto">
   <i name="subdivisionlength">     70.00000000 </i>
   <v type="int" name="divisions">      26       15       11 </v>
   <v name="usershift">      0.00000000       0.00000000       0.00000000 </v>
   <v name="genvec1">      0.03846154       0.00000000       0.00000000 </v>
   <v name="genvec2">      0.00000000       0.06666667       0.00000000 </v>
   <v name="genvec3">      0.00000000       0.00000000       0.09090909 </v>
   <v name="shift">      0.00000000       0.00000000       0.00000000 </v>
  </generation>
  <varray name="kpointlist" >
   <v>       0.00000000       0.00000000       0.00000000 </v>
   <v>       0.03846154       0.00000000       0.00000000 </v>
   <v>       0.07692308       0.00000000       0.00000000 </v>
   <v>       0.11538462       0.00000000       0.00000000 </v>
   <v>       0.15384615       0.00000000       0.00000000 </v>
   <v>       0.19230769       0.00000000       0.00000000 </v>
   <v>       0.23076923       0.00000000       0.00000000 </v>
   <v>       0.26923077       0.00000000       0.00000000 </v>
   <v>       0.30769231       0.00000000       0.00000000 </v>
   <v>       0.34615385       0.00000000       0.00000000 </v>
   <v>       0.38461538       0.00000000       0.00000000 </v>
   <v>       0.42307692       0.00000000       0.00000000 </v>
   <v>       0.46153846       0.00000000       0.00000000 </v>
   <v>       0.50000000       0.00000000       0.00000000 </v>
   <v>       0.00000000       0.06666667       0.00000000 </v>
   <v>       0.03846154       0.06666667       0.00000000 </v>
   <v>       0.07692308       0.06666667       0.00000000 </v>
   <v>       0.11538462       0.06666667       0.00000000 </v>
   <v>       0.15384615       0.06666667       0.00000000 </v>
   <v>       0.19230769       0.06666667       0.00000000 </v>
   <v>       0.23076923       0.06666667       0.00000000 </v>
   <v>       0.26923077       0.06666667       0.00000000 </v>
   <v>       0.30769231       0.06666667       0.00000000 </v>
   <v>       0.34615385       0.06666667       0.00000000 </v>
   <v>       0.38461538       0.06666667       0.00000000 </v>
   <v>       0.42307692       0.06666667       0.00000000 </v>
   <v>       0.46153846       0.06666667       0.00000000 </v>
   <v>       0.50000000       0.06666667       0.00000000 </v>
   <v>      -0.46153846       0.06666667       0.00000000 </v>
   <v>      -0.42307692       0.06666667       0.00000000 </v>
   <v>      -0.38461538       0.06666667       0.00000000 </v>
   <v>      -0.34615385       0.06666667       0.00000000 </v>
   <v>      -0.30769231       0.06666667       0.00000000 </v>
   <v>      -0.26923077       0.06666667       0.00000000 </v>
   <v>      -0.23076923       0.06666667       0.00000000 </v>
   <v>      -0.19230769       0.06666667       0.00000000 </v>
   <v>      -0.15384615       0.06666667       0.00000000 </v>
   <v>      -0.11538462       0.06666667       0.00000000 </v>
   <v>      -0.07692308       0.06666667       0.00000000 </v>
   <v>      -0.03846154       0.06666667       0.00000000 </v>
   <v>       0.00000000       0.13333333       0.00000000 </v>
   <v>       0.03846154       0.13333333       0.00000000 </v>
   <v>       0.07692308       0.13333333       0.00000000 </v>
   <v>       0.11538462       0.13333333       0.00000000 </v>
   <v>       0.15384615       0.13333333       0.00000000 </v>
   <v>       0.19230769       0.13333333       0.00000000 </v>
   <v>       0.23076923       0.13333333       0.00000000 </v>
   <v>       0.26923077       0.13333333       0.00000000 </v>
   <v>       0.30769231       0.13333333       0.00000000 </v>
   <v>       0.34615385       0.13333333       0.00000000 </v>
   <v>       0.38461538       0.13333333       0.00000000 </v>
   <v>       0.42307692       0.13333333       0.00000000 </v>
   <v>       0.46153846       0.13333333       0.00000000 </v>
   <v>       0.50000000       0.13333333       0.00000000 </v>
   <v>      -0.46153846       0.13333333       0.00000000 </v>
   <v>      -0.42307692       0.13333333       0.00000000 </v>
   <v>      -0.38461538       0.13333333       0.00000000 </v>
   <v>      -0.34615385       0.13333333       0.00000000 </v>
   <v>      -0.30769231       0.13333333       0.00000000 </v>
   <v>      -0.26923077       0.13333333       0.00000000 </v>
   <v>      -0.23076923       0.13333333       0.00000000 </v>
   <v>      -0.19230769       0.13333333       0.00000000 </v>
   <v>      -0.15384615       0.13333333       0.00000000 </v>
   <v>      -0.11538462       0.13333333       0.00000000 </v>
   <v>      -0.07692308       0.13333333       0.00000000 </v>
   <v>      -0.03846154       0.13333333       0.00000000 </v>
   <v>       0.00000000       0.20000000       0.00000000 </v>
   <v>       0.03846154       0.20000000       0.00000000 </v>
   <v>       0.07692308       0.20000000       0.00000000 </v>
   <v>       0.11538462       0.20000000       0.00000000 </v>
   <v>       0.15384615       0.20000000       0.00000000 </v>
   <v>       0.19230769       0.20000000       0.00000000 </v>
   <v>       0.23076923       0.20000000       0.00000000 </v>
   <v>       0.26923077       0.20000000       0.00000000 </v>
   <v>       0.30769231       0.20000000       0.00000000 </v>
   <v>       0.34615385       0.20000000       0.00000000 </v>
   <v>       0.38461538       0.20000000       0.00000000 </v>
   <v>       0.42307692       0.20000000       0.00000000 </v>
   <v>       0.46153846       0.20000000       0.00000000 </v>
   <v>       0.50000000       0.20000000       0.00000000 </v>
   <v>      -0.46153846       0.20000000       0.00000000 </v>
   <v>      -0.42307692       0.20000000       0.00000000 </v>
   <v>      -0.38461538       0.20000000       0.00000000 </v>
   <v>      -0.34615385       0.20000000       0.00000000 </v>
   <v>      -0.30769231       0.20000000       0.00000000 </v>
   <v>      -0.26923077       0.20000000       0.00000000 </v>
   <v>      -0.23076923       0.20000000       0.00000000 </v>
   <v>      -0.19230769       0.20000000       0.00000000 </v>
   <v>      -0.15384615       0.20000000       0.00000000 </v>
   <v>      -0.11538462       0.20000000       0.00000000 </v>
   <v>      -0.07692308       0.20000000       0.00000000 </v>
   <v>      -0.03846154       0.20000000       0.00000000 </v>
   <v>       0.00000000       0.26666667       0.00000000 </v>
   <v>       0.03846154       0.26666667       0.00000000 </v>
   <v>       0.07692308       0.26666667       0.00000000 </v>
   <v>       0.11538462       0.26666667       0.00000000 </v>
   <v>       0.15384615       0.26666667       0.00000000 </v>
   <v>       0.19230769       0.26666667       0.00000000 </v>
   <v>       0.23076923       0.26666667       0.00000000 </v>
   <v>       0.26923077       0.26666667       0.00000000 </v>
   <v>       0.30769231       0.26666667       0.00000000 </v>
   <v>       0.34615385       0.26666667       0.00000000 </v>
   <v>       0.38461538       0.26666667       0.00000000 </v>
   <v>       0.42307692       0.26666667       0.00000000 </v>
   <v>       0.46153846       0.26666667       0.00000000 </v>
   <v>       0.50000000       0.26666667       0.00000000 </v>
   <v>      -0.46153846       0.26666667       0.00000000 </v>
   <v>      -0.42307692       0.26666667       0.00000000 </v>
   <v>      -0.38461538       0.26666667       0.00000000 </v>
   <v>      -0.34615385       0.26666667       0.00000000 </v>
   <v>      -0.30769231       0.26666667       0.00000000 </v>
   <v>      -0.26923077       0.26666667       0.00000000 </v>
   <v>      -0.23076923       0.26666667       0.00000000 </v>
   <v>      -0.19230769       0.26666667       0.00000000 </v>
   <v>      -0.15384615       0.26666667       0.00000000 </v>
   <v>      -0.11538462       0.26666667       0.00000000 </v>
   <v>      -0.07692308       0.26666667       0.00000000 </v>
   <v>      -0.03846154       0.26666667       0.00000000 </v>
   <v>       0.00000000       0.33333333       0.00000000 </v>
   <v>       0.03846154       0.33333333       0.00000000 </v>
   <v>       0.07692308       0.33333333       0.00000000 </v>
   <v>       0.11538462       0.33333333       0.00000000 </v>
   <v>       0.15384615       0.33333333       0.00000000 </v>
   <v>       0.19230769       0.33333333       0.00000000 </v>
   <v>       0.23076923       0.33333333       0.00000000 </v>
   <v>       0.26923077       0.33333333       0.00000000 </v>
   <v>       0.30769231       0.33333333       0.00000000 </v>
   <v>       0.34615385       0.33333333       0.00000000 </v>
   <v>       0.38461538       0.33333333       0.00000000 </v>
   <v>       0.42307692       0.33333333       0.00000000 </v>
   <v>       0.46153846       0.33333333       0.00000000 </v>
   <v>       0.50000000       0.33333333       0.00000000 </v>
   <v>      -0.46153846       0.33333333       0.00000000 </v>
   <v>      -0.42307692       0.33333333       0.00000000 </v>
   <v>      -0.38461538       0.33333333       0.00000000 </v>
   <v>      -0.34615385       0.33333333       0.00000000 </v>
   <v>      -0.30769231       0.33333333       0.00000000 </v>
   <v>      -0.26923077       0.33333333       0.00000000 </v>
   <v>      -0.23076923       0.33333333       0.00000000 </v>
   <v>      -0.19230769       0.33333333       0.00000000 </v>
   <v>      -0.15384615       0.33333333       0.00000000 </v>
   <v>      -0.11538462       0.33333333       0.00000000 </v>
   <v>      -0.07692308       0.33333333       0.00000000 </v>
   <v>      -0.03846154       0.33333333       0.00000000 </v>
   <v>       0.00000000       0.40000000       0.00000000 </v>
   <v>       0.03846154       0.40000000       0.00000000 </v>
   <v>       0.07692308       0.40000000       0.00000000 </v>
   <v>       0.11538462       0.40000000       0.00000000 </v>
   <v>       0.15384615       0.40000000       0.00000000 </v>
   <v>       0.19230769       0.40000000       0.00000000 </v>
   <v>       0.23076923       0.40000000       0.00000000 </v>
   <v>       0.26923077       0.40000000       0.00000000 </v>
   <v>       0.30769231       0.40000000       0.00000000 </v>
   <v>       0.34615385       0.40000000       0.00000000 </v>
   <v>       0.38461538       0.40000000       0.00000000 </v>
   <v>       0.42307692       0.40000000       0.00000000 </v>
   <v>       0.46153846       0.40000000       0.00000000 </v>
   <v>       0.50000000       0.40000000       0.00000000 </v>
   <v>      -0.46153846       0.40000000       0.00000000 </v>
   <v>      -0.42307692       0.40000000       0.00000000 </v>
   <v>      -0.38461538       0.40000000       0.00000000 </v>
   <v>      -0.34615385       0.40000000       0.00000000 </v>
   <v>      -0.30769231       0.40000000       0.00000000 </v>
   <v>      -0.26923077       0.40000000       0.00000000 </v>
   <v>      -0.23076923       0.40000000       0.00000000 </v>
   <v>      -0.19230769       0.40000000       0.00000000 </v>
   <v>      -0.15384615       0.40000000       0.00000000 </v>
   <v>      -0.11538462       0.40000000       0.00000000 </v>
   <v>      -0.07692308       0.40000000       0.00000000 </v>
   <v>      -0.03846154       0.40000000       0.00000000 </v>
   <v>       0.00000000       0.46666667       0.00000000 </v>
   <v>       0.03846154       0.46666667       0.00000000 </v>
   <v>       0.07692308       0.46666667       0.00000000 </v>
   <v>       0.11538462       0.46666667       0.00000000 </v>
   <v>       0.15384615       0.46666667       0.00000000 </v>
   <v>       0.19230769       0.46666667       0.00000000 </v>
   <v>       0.23076923       0.46666667       0.00000000 </v>
   <v>       0.26923077       0.46666667       0.00000000 </v>
   <v>       0.30769231       0.46666667       0.00000000 </v>
   <v>       0.34615385       0.46666667       0.00000000 </v>
   <v>       0.38461538       0.46666667       0.00000000 </v>
   <v>       0.42307692       0.46666667       0.00000000 </v>
   <v>       0.46153846       0.46666667       0.00000000 </v>
   <v>       0.50000000       0.46666667       0.00000000 </v>
   <v>      -0.46153846       0.46666667       0.00000000 </v>
   <v>      -0.42307692       0.46666667       0.00000000 </v>
   <v>      -0.38461538       0.46666667       0.00000000 </v>
   <v>      -0.34615385       0.46666667       0.00000000 </v>
   <v>      -0.30769231       0.46666667       0.00000000 </v>
   <v>      -0.26923077       0.46666667       0.00000000 </v>
   <v>      -0.23076923       0.46666667       0.00000000 </v>
   <v>      -0.19230769       0.46666667       0.00000000 </v>
   <v>      -0.15384615       0.46666667       0.00000000 </v>
   <v>      -0.11538462       0.46666667       0.00000000 </v>
   <v>      -0.07692308       0.46666667       0.00000000 </v>
   <v>      -0.03846154       0.46666667       0.00000000 </v>
   <v>       0.00000000       0.00000000       0.09090909 </v>
   <v>       0.03846154       0.00000000       0.09090909 </v>
   <v>       0.07692308       0.00000000       0.09090909 </v>
   <v>       0.11538462       0.00000000       0.09090909 </v>
   <v>       0.15384615       0.00000000       0.09090909 </v>
   <v>       0.19230769       0.00000000       0.09090909 </v>
   <v>       0.23076923       0.00000000       0.09090909 </v>
   <v>       0.26923077       0.00000000       0.09090909 </v>
   <v>       0.30769231       0.00000000       0.09090909 </v>
   <v>       0.34615385       0.00000000       0.09090909 </v>
   <v>       0.38461538       0.00000000       0.09090909 </v>
   <v>       0.42307692       0.00000000       0.09090909 </v>
   <v>       0.46153846       0.00000000       0.09090909 </v>
   <v>       0.50000000       0.00000000       0.09090909 </v>
   <v>      -0.46153846       0.00000000       0.09090909 </v>
   <v>      -0.42307692       0.00000000       0.09090909 </v>
   <v>      -0.38461538       0.00000000       0.09090909 </v>
   <v>      -0.34615385       0.00000000       0.09090909 </v>
   <v>      -0.30769231       0.00000000       0.09090909 </v>
   <v>      -0.26923077       0.00000000       0.09090909 </v>
   <v>      -0.23076923       0.00000000       0.09090909 </v>
   <v>      -0.19230769       0.00000000       0.09090909 </v>
   <v>      -0.15384615       0.00000000       0.09090909 </v>
   <v>      -0.11538462       0.00000000       0.09090909 </v>
   <v>      -0.07692308       0.00000000       0.09090909 </v>
   <v>      -0.03846154       0.00000000       0.09090909 </v>
   <v>       0.00000000       0.06666667       0.09090909 </v>
   <v>       0.03846154       0.06666667       0.09090909 </v>
   <v>       0.07692308       0.06666667       0.09090909 </v>
   <v>       0.11538462       0.06666667       0.09090909 </v>
   <v>       0.15384615       0.06666667       0.09090909 </v>
   <v>       0.19230769       0.06666667       0.09090909 </v>
   <v>       0.23076923       0.06666667       0.09090909 </v>
   <v>       0.26923077       0.06666667       0.09090909 </v>
   <v>       0.30769231       0.06666667       0.09090909 </v>
   <v>       0.34615385       0.06666667       0.09090909 </v>
   <v>       0.38461538       0.06666667       0.09090909 </v>
   <v>       0.42307692       0.06666667       0.09090909 </v>
   <v>       0.46153846       0.06666667       0.09090909 </v>
   <v>       0.50000000       0.06666667       0.09090909 </v>
   <v>      -0.46153846       0.06666667       0.09090909 </v>
   <v>      -0.42307692       0.06666667       0.09090909 </v>
   <v>      -0.38461538       0.06666667       0.09090909 </v>
   <v>      -0.34615385       0.06666667       0.09090909 </v>
   <v>      -0.30769231       0.06666667       0.09090909 </v>
   <v>      -0.26923077       0.06666667       0.09090909 </v>
   <v>      -0.23076923       0.06666667       0.09090909 </v>
   <v>      -0.19230769       0.06666667       0.09090909 </v>
   <v>      -0.15384615       0.06666667       0.09090909 </v>
   <v>      -0.11538462       0.06666667       0.09090909 </v>
   <v>      -0.07692308       0.06666667       0.09090909 </v>
   <v>      -0.03846154       0.06666667       0.09090909 </v>
   <v>       0.00000000       0.13333333       0.09090909 </v>
   <v>       0.03846154       0.13333333       0.09090909 </v>
   <v>       0.07692308       0.13333333       0.09090909 </v>
   <v>       0.11538462       0.13333333       0.09090909 </v>
   <v>       0.15384615       0.13333333       0.09090909 </v>
   <v>       0.19230769       0.13333333       0.09090909 </v>
   <v>       0.23076923       0.13333333       0.09090909 </v>
   <v>       0.26923077       0.13333333       0.09090909 </v>
   <v>       0.30769231       0.13333333       0.09090909 </v>
   <v>       0.34615385       0.13333333       0.09090909 </v>
   <v>       0.38461538       0.13333333       0.09090909 </v>
   <v>       0.42307692       0.13333333       0.09090909 </v>
   <v>       0.46153846       0.13333333       0.09090909 </v>
   <v>       0.50000000       0.13333333       0.09090909 </v>
   <v>      -0.46153846       0.13333333       0.09090909 </v>
   <v>      -0.42307692       0.13333333       0.09090909 </v>
   <v>      -0.38461538       0.13333333       0.09090909 </v>
   <v>      -0.34615385       0.13333333       0.09090909 </v>
   <v>      -0.30769231       0.13333333       0.09090909 </v>
   <v>      -0.26923077       0.13333333       0.09090909 </v>
   <v>      -0.23076923       0.13333333       0.09090909 </v>
   <v>      -0.19230769       0.13333333       0.09090909 </v>
   <v>      -0.15384615       0.13333333       0.09090909 </v>
   <v>      -0.11538462       0.13333333       0.09090909 </v>
   <v>      -0.07692308       0.13333333       0.09090909 </v>
   <v>      -0.03846154       0.13333333       0.09090909 </v>
   <v>       0.00000000       0.20000000       0.09090909 </v>
   <v>       0.03846154       0.20000000       0.09090909 </v>
   <v>       0.07692308       0.20000000       0.09090909 </v>
   <v>       0.11538462       0.20000000       0.09090909 </v>
   <v>       0.15384615       0.20000000       0.09090909 </v>
   <v>       0.19230769       0.20000000       0.09090909 </v>
   <v>       0.23076923       0.20000000       0.09090909 </v>
   <v>       0.26923077       0.20000000       0.09090909 </v>
   <v>       0.30769231       0.20000000       0.09090909 </v>
   <v>       0.34615385       0.20000000       0.09090909 </v>
   <v>       0.38461538       0.20000000       0.09090909 </v>
   <v>       0.42307692       0.20000000       0.09090909 </v>
   <v>       0.46153846       0.20000000       0.09090909 </v>
   <v>       0.50000000       0.20000000       0.09090909 </v>
   <v>      -0.46153846       0.20000000       0.09090909 </v>
   <v>      -0.42307692       0.20000000       0.09090909 </v>
   <v>      -0.38461538       0.20000000       0.09090909 </v>
   <v>      -0.34615385       0.20000000       0.09090909 </v>
   <v>      -0.30769231       0.20000000       0.09090909 </v>
   <v>      -0.26923077       0.20000000       0.09090909 </v>
   <v>      -0.23076923       0.20000000       0.09090909 </v>
   <v>      -0.19230769       0.20000000       0.09090909 </v>
   <v>      -0.15384615       0.20000000       0.09090909 </v>
   <v>      -0.11538462       0.20000000       0.09090909 </v>
   <v>      -0.07692308       0.20000000       0.09090909 </v>
   <v>      -0.03846154       0.20000000       0.09090909 </v>
   <v>       0.00000000       0.26666667       0.09090909 </v>
   <v>       0.03846154       0.26666667       0.09090909 </v>
   <v>       0.07692308       0.26666667       0.09090909 </v>
   <v>       0.11538462       0.26666667       0.09090909 </v>
   <v>       0.15384615       0.26666667       0.09090909 </v>
   <v>       0.19230769       0.26666667       0.09090909 </v>
   <v>       0.23076923       0.26666667       0.09090909 </v>
   <v>       0.26923077       0.26666667       0.09090909 </v>
   <v>       0.30769231       0.26666667       0.09090909 </v>
   <v>       0.34615385       0.26666667       0.09090909 </v>
   <v>       0.38461538       0.26666667       0.09090909 </v>
   <v>       0.42307692       0.26666667       0.09090909 </v>
   <v>       0.46153846       0.26666667       0.09090909 </v>
   <v>       0.50000000       0.26666667       0.09090909 </v>
   <v>      -0.46153846       0.26666667       0.09090909 </v>
   <v>      -0.42307692       0.26666667       0.09090909 </v>
   <v>      -0.38461538       0.26666667       0.09090909 </v>
   <v>      -0.34615385       0.26666667       0.09090909 </v>
   <v>      -0.30769231       0.26666667       0.09090909 </v>
   <v>      -0.26923077       0.26666667       0.09090909 </v>
   <v>      -0.23076923       0.26666667       0.09090909 </v>
   <v>      -0.19230769       0.26666667       0.09090909 </v>
   <v>      -0.15384615       0.26666667       0.09090909 </v>
   <v>      -0.11538462       0.26666667       0.09090909 </v>
   <v>      -0.07692308       0.26666667       0.09090909 </v>
   <v>      -0.03846154       0.26666667       0.09090909 </v>
   <v>       0.00000000       0.33333333       0.09090909 </v>
   <v>       0.03846154       0.33333333       0.09090909 </v>
   <v>       0.07692308       0.33333333       0.09090909 </v>
   <v>       0.11538462       0.33333333       0.09090909 </v>
   <v>       0.15384615       0.33333333       0.09090909 </v>
   <v>       0.19230769       0.33333333       0.09090909 </v>
   <v>       0.23076923       0.33333333       0.09090909 </v>
   <v>       0.26923077       0.33333333       0.09090909 </v>
   <v>       0.30769231       0.33333333       0.09090909 </v>
   <v>       0.34615385       0.33333333       0.09090909 </v>
   <v>       0.38461538       0.33333333       0.09090909 </v>
   <v>       0.42307692       0.33333333       0.09090909 </v>
   <v>       0.46153846       0.33333333       0.09090909 </v>
   <v>       0.50000000       0.33333333       0.09090909 </v>
   <v>      -0.46153846       0.33333333       0.09090909 </v>
   <v>      -0.42307692       0.33333333       0.09090909 </v>
   <v>      -0.38461538       0.33333333       0.09090909 </v>
   <v>      -0.34615385       0.33333333       0.09090909 </v>
   <v>      -0.30769231       0.33333333       0.09090909 </v>
   <v>      -0.26923077       0.33333333       0.09090909 </v>
   <v>      -0.23076923       0.33333333       0.09090909 </v>
   <v>      -0.19230769       0.33333333       0.09090909 </v>
   <v>      -0.15384615       0.33333333       0.09090909 </v>
   <v>      -0.11538462       0.33333333       0.09090909 </v>
   <v>      -0.07692308       0.33333333       0.09090909 </v>
   <v>      -0.03846154       0.33333333       0.09090909 </v>
   <v>       0.00000000       0.40000000       0.09090909 </v>
   <v>       0.03846154       0.40000000       0.09090909 </v>
   <v>       0.07692308       0.40000000       0.09090909 </v>
   <v>       0.11538462       0.40000000       0.09090909 </v>
   <v>       0.15384615       0.40000000       0.09090909 </v>
   <v>       0.19230769       0.40000000       0.09090909 </v>
   <v>       0.23076923       0.40000000       0.09090909 </v>
   <v>       0.26923077       0.40000000       0.09090909 </v>
   <v>       0.30769231       0.40000000       0.09090909 </v>
   <v>       0.34615385       0.40000000       0.09090909 </v>
   <v>       0.38461538       0.40000000       0.09090909 </v>
   <v>       0.42307692       0.40000000       0.09090909 </v>
   <v>       0.46153846       0.40000000       0.09090909 </v>
   <v>       0.50000000       0.40000000       0.09090909 </v>
   <v>      -0.46153846       0.40000000       0.09090909 </v>
   <v>      -0.42307692       0.40000000       0.09090909 </v>
   <v>      -0.38461538       0.40000000       0.09090909 </v>
   <v>      -0.34615385       0.40000000       0.09090909 </v>
   <v>      -0.30769231       0.40000000       0.09090909 </v>
   <v>      -0.26923077       0.40000000       0.09090909 </v>
   <v>      -0.23076923       0.40000000       0.09090909 </v>
   <v>      -0.19230769       0.40000000       0.09090909 </v>
   <v>      -0.15384615       0.40000000       0.09090909 </v>
   <v>      -0.11538462       0.40000000       0.09090909 </v>
   <v>      -0.07692308       0.40000000       0.09090909 </v>
   <v>      -0.03846154       0.40000000       0.09090909 </v>
   <v>       0.00000000       0.46666667       0.09090909 </v>
   <v>       0.03846154       0.46666667       0.09090909 </v>
   <v>       0.07692308       0.46666667       0.09090909 </v>
   <v>       0.11538462       0.46666667       0.09090909 </v>
   <v>       0.15384615       0.46666667       0.09090909 </v>
   <v>       0.19230769       0.46666667       0.09090909 </v>
   <v>       0.23076923       0.46666667       0.09090909 </v>
   <v>       0.26923077       0.46666667       0.09090909 </v>
   <v>       0.30769231       0.46666667       0.09090909 </v>
   <v>       0.34615385       0.46666667       0.09090909 </v>
   <v>       0.38461538       0.46666667       0.09090909 </v>
   <v>       0.42307692       0.46666667       0.09090909 </v>
   <v>       0.46153846       0.46666667       0.09090909 </v>
   <v>       0.50000000       0.46666667       0.09090909 </v>
   <v>      -0.46153846       0.46666667       0.09090909 </v>
   <v>      -0.42307692       0.46666667       0.09090909 </v>
   <v>      -0.38461538       0.46666667       0.09090909 </v>
   <v>      -0.34615385       0.46666667       0.09090909 </v>
   <v>      -0.30769231       0.46666667       0.09090909 </v>
   <v>      -0.26923077       0.46666667       0.09090909 </v>
   <v>      -0.23076923       0.46666667       0.09090909 </v>
   <v>      -0.19230769       0.46666667       0.09090909 </v>
   <v>      -0.15384615       0.46666667       0.09090909 </v>
   <v>      -0.11538462       0.46666667       0.09090909 </v>
   <v>      -0.07692308       0.46666667       0.09090909 </v>
   <v>      -0.03846154       0.46666667       0.09090909 </v>
   <v>       0.00000000      -0.46666667       0.09090909 </v>
   <v>       0.03846154      -0.46666667       0.09090909 </v>
   <v>       0.07692308      -0.46666667       0.09090909 </v>
   <v>       0.11538462      -0.46666667       0.09090909 </v>
   <v>       0.15384615      -0.46666667       0.09090909 </v>
   <v>       0.19230769      -0.46666667       0.09090909 </v>
   <v>       0.23076923      -0.46666667       0.09090909 </v>
   <v>       0.26923077      -0.46666667       0.09090909 </v>
   <v>       0.30769231      -0.46666667       0.09090909 </v>
   <v>       0.34615385      -0.46666667       0.09090909 </v>
   <v>       0.38461538      -0.46666667       0.09090909 </v>
   <v>       0.42307692      -0.46666667       0.09090909 </v>
   <v>       0.46153846      -0.46666667       0.09090909 </v>
   <v>       0.50000000      -0.46666667       0.09090909 </v>
   <v>      -0.46153846      -0.46666667       0.09090909 </v>
   <v>      -0.42307692      -0.46666667       0.09090909 </v>
   <v>      -0.38461538      -0.46666667       0.09090909 </v>
   <v>      -0.34615385      -0.46666667       0.09090909 </v>
   <v>      -0.30769231      -0.46666667       0.09090909 </v>
   <v>      -0.26923077      -0.46666667       0.09090909 </v>
   <v>      -0.23076923      -0.46666667       0.09090909 </v>
   <v>      -0.19230769      -0.46666667       0.09090909 </v>
   <v>      -0.15384615      -0.46666667       0.09090909 </v>
   <v>      -0.11538462      -0.46666667       0.09090909 </v>
   <v>      -0.07692308      -0.46666667       0.09090909 </v>
   <v>      -0.03846154      -0.46666667       0.09090909 </v>
   <v>       0.00000000      -0.40000000       0.09090909 </v>
   <v>       0.03846154      -0.40000000       0.09090909 </v>
   <v>       0.07692308      -0.40000000       0.09090909 </v>
   <v>       0.11538462      -0.40000000       0.09090909 </v>
   <v>       0.15384615      -0.40000000       0.09090909 </v>
   <v>       0.19230769      -0.40000000       0.09090909 </v>
   <v>       0.23076923      -0.40000000       0.09090909 </v>
   <v>       0.26923077      -0.40000000       0.09090909 </v>
   <v>       0.30769231      -0.40000000       0.09090909 </v>
   <v>       0.34615385      -0.40000000       0.09090909 </v>
   <v>       0.38461538      -0.40000000       0.09090909 </v>
   <v>       0.42307692      -0.40000000       0.09090909 </v>
   <v>       0.46153846      -0.40000000       0.09090909 </v>
   <v>       0.50000000      -0.40000000       0.09090909 </v>
   <v>      -0.46153846      -0.40000000       0.09090909 </v>
   <v>      -0.42307692      -0.40000000       0.09090909 </v>
   <v>      -0.38461538      -0.40000000       0.09090909 </v>
   <v>      -0.34615385      -0.40000000       0.09090909 </v>
   <v>      -0.30769231      -0.40000000       0.09090909 </v>
   <v>      -0.26923077      -0.40000000       0.09090909 </v>
   <v>      -0.23076923      -0.40000000       0.09090909 </v>
   <v>      -0.19230769      -0.40000000       0.09090909 </v>
   <v>      -0.15384615      -0.40000000       0.09090909 </v>
   <v>      -0.11538462      -0.40000000       0.09090909 </v>
   <v>      -0.07692308      -0.40000000       0.09090909 </v>
   <v>      -0.03846154      -0.40000000       0.09090909 </v>
   <v>       0.00000000      -0.33333333       0.09090909 </v>
   <v>       0.03846154      -0.33333333       0.09090909 </v>
   <v>       0.07692308      -0.33333333       0.09090909 </v>
   <v>       0.11538462      -0.33333333       0.09090909 </v>
   <v>       0.15384615      -0.33333333       0.09090909 </v>
   <v>       0.19230769      -0.33333333       0.09090909 </v>
   <v>       0.23076923      -0.33333333       0.09090909 </v>
   <v>       0.26923077      -0.33333333       0.09090909 </v>
   <v>       0.30769231      -0.33333333       0.09090909 </v>
   <v>       0.34615385      -0.33333333       0.09090909 </v>
   <v>       0.38461538      -0.33333333       0.09090909 </v>
   <v>       0.42307692      -0.33333333       0.09090909 </v>
   <v>       0.46153846      -0.33333333       0.09090909 </v>
   <v>       0.50000000      -0.33333333       0.09090909 </v>
   <v>      -0.46153846      -0.33333333       0.09090909 </v>
   <v>      -0.42307692      -0.33333333       0.09090909 </v>
   <v>      -0.38461538      -0.33333333       0.09090909 </v>
   <v>      -0.34615385      -0.33333333       0.09090909 </v>
   <v>      -0.30769231      -0.33333333       0.09090909 </v>
   <v>      -0.26923077      -0.33333333       0.09090909 </v>
   <v>      -0.23076923      -0.33333333       0.09090909 </v>
   <v>      -0.19230769      -0.33333333       0.09090909 </v>
   <v>      -0.15384615      -0.33333333       0.09090909 </v>
   <v>      -0.11538462      -0.33333333       0.09090909 </v>
   <v>      -0.07692308      -0.33333333       0.09090909 </v>
   <v>      -0.03846154      -0.33333333       0.09090909 </v>
   <v>       0.00000000      -0.26666667       0.09090909 </v>
   <v>       0.03846154      -0.26666667       0.09090909 </v>
   <v>       0.07692308      -0.26666667       0.09090909 </v>
   <v>       0.11538462      -0.26666667       0.09090909 </v>
   <v>       0.15384615      -0.26666667       0.09090909 </v>
   <v>       0.19230769      -0.26666667       0.09090909 </v>
   <v>       0.23076923      -0.26666667       0.09090909 </v>
   <v>       0.26923077      -0.26666667       0.09090909 </v>
   <v>       0.30769231      -0.26666667       0.09090909 </v>
   <v>       0.34615385      -0.26666667       0.09090909 </v>
   <v>       0.38461538      -0.26666667       0.09090909 </v>
   <v>       0.42307692      -0.26666667       0.09090909 </v>
   <v>       0.46153846      -0.26666667       0.09090909 </v>
   <v>       0.50000000      -0.26666667       0.09090909 </v>
   <v>      -0.46153846      -0.26666667       0.09090909 </v>
   <v>      -0.42307692      -0.26666667       0.09090909 </v>
   <v>      -0.38461538      -0.26666667       0.09090909 </v>
   <v>      -0.34615385      -0.26666667       0.09090909 </v>
   <v>      -0.30769231      -0.26666667       0.09090909 </v>
   <v>      -0.26923077      -0.26666667       0.09090909 </v>
   <v>      -0.23076923      -0.26666667       0.09090909 </v>
   <v>      -0.19230769      -0.26666667       0.09090909 </v>
   <v>      -0.15384615      -0.26666667       0.09090909 </v>
   <v>      -0.11538462      -0.26666667       0.09090909 </v>
   <v>      -0.07692308      -0.26666667       0.09090909 </v>
   <v>      -0.03846154      -0.26666667       0.09090909 </v>
   <v>       0.00000000      -0.20000000       0.09090909 </v>
   <v>       0.03846154      -0.20000000       0.09090909 </v>
   <v>       0.07692308      -0.20000000       0.09090909 </v>
   <v>       0.11538462      -0.20000000       0.09090909 </v>
   <v>       0.15384615      -0.20000000       0.09090909 </v>
   <v>       0.19230769      -0.20000000       0.09090909 </v>
   <v>       0.23076923      -0.20000000       0.09090909 </v>
   <v>       0.26923077      -0.20000000       0.09090909 </v>
   <v>       0.30769231      -0.20000000       0.09090909 </v>
   <v>       0.34615385      -0.20000000       0.09090909 </v>
   <v>       0.38461538      -0.20000000       0.09090909 </v>
   <v>       0.42307692      -0.20000000       0.09090909 </v>
   <v>       0.46153846      -0.20000000       0.09090909 </v>
   <v>       0.50000000      -0.20000000       0.09090909 </v>
   <v>      -0.46153846      -0.20000000       0.09090909 </v>
   <v>      -0.42307692      -0.20000000       0.09090909 </v>
   <v>      -0.38461538      -0.20000000       0.09090909 </v>
   <v>      -0.34615385      -0.20000000       0.09090909 </v>
   <v>      -0.30769231      -0.20000000       0.09090909 </v>
   <v>      -0.26923077      -0.20000000       0.09090909 </v>
   <v>      -0.23076923      -0.20000000       0.09090909 </v>
   <v>      -0.19230769      -0.20000000       0.09090909 </v>
   <v>      -0.15384615      -0.20000000       0.09090909 </v>
   <v>      -0.11538462      -0.20000000       0.09090909 </v>
   <v>      -0.07692308      -0.20000000       0.09090909 </v>
   <v>      -0.03846154      -0.20000000       0.09090909 </v>
   <v>       0.00000000      -0.13333333       0.09090909 </v>
   <v>       0.03846154      -0.13333333       0.09090909 </v>
   <v>       0.07692308      -0.13333333       0.09090909 </v>
   <v>       0.11538462      -0.13333333       0.09090909 </v>
   <v>       0.15384615      -0.13333333       0.09090909 </v>
   <v>       0.19230769      -0.13333333       0.09090909 </v>
   <v>       0.23076923      -0.13333333       0.09090909 </v>
   <v>       0.26923077      -0.13333333       0.09090909 </v>
   <v>       0.30769231      -0.13333333       0.09090909 </v>
   <v>       0.34615385      -0.13333333       0.09090909 </v>
   <v>       0.38461538      -0.13333333       0.09090909 </v>
   <v>       0.42307692      -0.13333333       0.09090909 </v>
   <v>       0.46153846      -0.13333333       0.09090909 </v>
   <v>       0.50000000      -0.13333333       0.09090909 </v>
   <v>      -0.46153846      -0.13333333       0.09090909 </v>
   <v>      -0.42307692      -0.13333333       0.09090909 </v>
   <v>      -0.38461538      -0.13333333       0.09090909 </v>
   <v>      -0.34615385      -0.13333333       0.09090909 </v>
   <v>      -0.30769231      -0.13333333       0.09090909 </v>
   <v>      -0.26923077      -0.13333333       0.09090909 </v>
   <v>      -0.23076923      -0.13333333       0.09090909 </v>
   <v>      -0.19230769      -0.13333333       0.09090909 </v>
   <v>      -0.15384615      -0.13333333       0.09090909 </v>
   <v>      -0.11538462      -0.13333333       0.09090909 </v>
   <v>      -0.07692308      -0.13333333       0.09090909 </v>
   <v>      -0.03846154      -0.13333333       0.09090909 </v>
   <v>       0.00000000      -0.06666667       0.09090909 </v>
   <v>       0.03846154      -0.06666667       0.09090909 </v>
   <v>       0.07692308      -0.06666667       0.09090909 </v>
   <v>       0.11538462      -0.06666667       0.09090909 </v>
   <v>       0.15384615      -0.06666667       0.09090909 </v>
   <v>       0.19230769      -0.06666667       0.09090909 </v>
   <v>       0.23076923      -0.06666667       0.09090909 </v>
   <v>       0.26923077      -0.06666667       0.09090909 </v>
   <v>       0.30769231      -0.06666667       0.09090909 </v>
   <v>       0.34615385      -0.06666667       0.09090909 </v>
   <v>       0.38461538      -0.06666667       0.09090909 </v>
   <v>       0.42307692      -0.06666667       0.09090909 </v>
   <v>       0.46153846      -0.06666667       0.09090909 </v>
   <v>       0.50000000      -0.06666667       0.09090909 </v>
   <v>      -0.46153846      -0.06666667       0.09090909 </v>
   <v>      -0.42307692      -0.06666667       0.09090909 </v>
   <v>      -0.38461538      -0.06666667       0.09090909 </v>
   <v>      -0.34615385      -0.06666667       0.09090909 </v>
   <v>      -0.30769231      -0.06666667       0.09090909 </v>
   <v>      -0.26923077      -0.06666667       0.09090909 </v>
   <v>      -0.23076923      -0.06666667       0.09090909 </v>
   <v>      -0.19230769      -0.06666667       0.09090909 </v>
   <v>      -0.15384615      -0.06666667       0.09090909 </v>
   <v>      -0.11538462      -0.06666667       0.09090909 </v>
   <v>      -0.07692308      -0.06666667       0.09090909 </v>
   <v>      -0.03846154      -0.06666667       0.09090909 </v>
   <v>       0.00000000       0.00000000       0.18181818 </v>
   <v>       0.03846154       0.00000000       0.18181818 </v>
   <v>       0.07692308       0.00000000       0.18181818 </v>
   <v>       0.11538462       0.00000000       0.18181818 </v>
   <v>       0.15384615       0.00000000       0.18181818 </v>
   <v>       0.19230769       0.00000000       0.18181818 </v>
   <v>       0.23076923       0.00000000       0.18181818 </v>
   <v>       0.26923077       0.00000000       0.18181818 </v>
   <v>       0.30769231       0.00000000       0.18181818 </v>
   <v>       0.34615385       0.00000000       0.18181818 </v>
   <v>       0.38461538       0.00000000       0.18181818 </v>
   <v>       0.42307692       0.00000000       0.18181818 </v>
   <v>       0.46153846       0.00000000       0.18181818 </v>
   <v>       0.50000000       0.00000000       0.18181818 </v>
   <v>      -0.46153846       0.00000000       0.18181818 </v>
   <v>      -0.42307692       0.00000000       0.18181818 </v>
   <v>      -0.38461538       0.00000000       0.18181818 </v>
   <v>      -0.34615385       0.00000000       0.18181818 </v>
   <v>      -0.30769231       0.00000000       0.18181818 </v>
   <v>      -0.26923077       0.00000000       0.18181818 </v>
   <v>      -0.23076923       0.00000000       0.18181818 </v>
   <v>      -0.19230769       0.00000000       0.18181818 </v>
   <v>      -0.15384615       0.00000000       0.18181818 </v>
   <v>      -0.11538462       0.00000000       0.18181818 </v>
   <v>      -0.07692308       0.00000000       0.18181818 </v>
   <v>      -0.03846154       0.00000000       0.18181818 </v>
   <v>       0.00000000       0.06666667       0.18181818 </v>
   <v>       0.03846154       0.06666667       0.18181818 </v>
   <v>       0.07692308       0.06666667       0.18181818 </v>
   <v>       0.11538462       0.06666667       0.18181818 </v>
   <v>       0.15384615       0.06666667       0.18181818 </v>
   <v>       0.19230769       0.06666667       0.18181818 </v>
   <v>       0.23076923       0.06666667       0.18181818 </v>
   <v>       0.26923077       0.06666667       0.18181818 </v>
   <v>       0.30769231       0.06666667       0.18181818 </v>
   <v>       0.34615385       0.06666667       0.18181818 </v>
   <v>       0.38461538       0.06666667       0.18181818 </v>
   <v>       0.42307692       0.06666667       0.18181818 </v>
   <v>       0.46153846       0.06666667       0.18181818 </v>
   <v>       0.50000000       0.06666667       0.18181818 </v>
   <v>      -0.46153846       0.06666667       0.18181818 </v>
   <v>      -0.42307692       0.06666667       0.18181818 </v>
   <v>      -0.38461538       0.06666667       0.18181818 </v>
   <v>      -0.34615385       0.06666667       0.18181818 </v>
   <v>      -0.30769231       0.06666667       0.18181818 </v>
   <v>      -0.26923077       0.06666667       0.18181818 </v>
   <v>      -0.23076923       0.06666667       0.18181818 </v>
   <v>      -0.19230769       0.06666667       0.18181818 </v>
   <v>      -0.15384615       0.06666667       0.18181818 </v>
   <v>      -0.11538462       0.06666667       0.18181818 </v>
   <v>      -0.07692308       0.06666667       0.18181818 </v>
   <v>      -0.03846154       0.06666667       0.18181818 </v>
   <v>       0.00000000       0.13333333       0.18181818 </v>
   <v>       0.03846154       0.13333333       0.18181818 </v>
   <v>       0.07692308       0.13333333       0.18181818 </v>
   <v>       0.11538462       0.13333333       0.18181818 </v>
   <v>       0.15384615       0.13333333       0.18181818 </v>
   <v>       0.19230769       0.13333333       0.18181818 </v>
   <v>       0.23076923       0.13333333       0.18181818 </v>
   <v>       0.26923077       0.13333333       0.18181818 </v>
   <v>       0.30769231       0.13333333       0.18181818 </v>
   <v>       0.34615385       0.13333333       0.18181818 </v>
   <v>       0.38461538       0.13333333       0.18181818 </v>
   <v>       0.42307692       0.13333333       0.18181818 </v>
   <v>       0.46153846       0.13333333       0.18181818 </v>
   <v>       0.50000000       0.13333333       0.18181818 </v>
   <v>      -0.46153846       0.13333333       0.18181818 </v>
   <v>      -0.42307692       0.13333333       0.18181818 </v>
   <v>      -0.38461538       0.13333333       0.18181818 </v>
   <v>      -0.34615385       0.13333333       0.18181818 </v>
   <v>      -0.30769231       0.13333333       0.18181818 </v>
   <v>      -0.26923077       0.13333333       0.18181818 </v>
   <v>      -0.23076923       0.13333333       0.18181818 </v>
   <v>      -0.19230769       0.13333333       0.18181818 </v>
   <v>      -0.15384615       0.13333333       0.18181818 </v>
   <v>      -0.11538462       0.13333333       0.18181818 </v>
   <v>      -0.07692308       0.13333333       0.18181818 </v>
   <v>      -0.03846154       0.13333333       0.18181818 </v>
   <v>       0.00000000       0.20000000       0.18181818 </v>
   <v>       0.03846154       0.20000000       0.18181818 </v>
   <v>       0.07692308       0.20000000       0.18181818 </v>
   <v>       0.11538462       0.20000000       0.18181818 </v>
   <v>       0.15384615       0.20000000       0.18181818 </v>
   <v>       0.19230769       0.20000000       0.18181818 </v>
   <v>       0.23076923       0.20000000       0.18181818 </v>
   <v>       0.26923077       0.20000000       0.18181818 </v>
   <v>       0.30769231       0.20000000       0.18181818 </v>
   <v>       0.34615385       0.20000000       0.18181818 </v>
   <v>       0.38461538       0.20000000       0.18181818 </v>
   <v>       0.42307692       0.20000000       0.18181818 </v>
   <v>       0.46153846       0.20000000       0.18181818 </v>
   <v>       0.50000000       0.20000000       0.18181818 </v>
   <v>      -0.46153846       0.20000000       0.18181818 </v>
   <v>      -0.42307692       0.20000000       0.18181818 </v>
   <v>      -0.38461538       0.20000000       0.18181818 </v>
   <v>      -0.34615385       0.20000000       0.18181818 </v>
   <v>      -0.30769231       0.20000000       0.18181818 </v>
   <v>      -0.26923077       0.20000000       0.18181818 </v>
   <v>      -0.23076923       0.20000000       0.18181818 </v>
   <v>      -0.19230769       0.20000000       0.18181818 </v>
   <v>      -0.15384615       0.20000000       0.18181818 </v>
   <v>      -0.11538462       0.20000000       0.18181818 </v>
   <v>      -0.07692308       0.20000000       0.18181818 </v>
   <v>      -0.03846154       0.20000000       0.18181818 </v>
   <v>       0.00000000       0.26666667       0.18181818 </v>
   <v>       0.03846154       0.26666667       0.18181818 </v>
   <v>       0.07692308       0.26666667       0.18181818 </v>
   <v>       0.11538462       0.26666667       0.18181818 </v>
   <v>       0.15384615       0.26666667       0.18181818 </v>
   <v>       0.19230769       0.26666667       0.18181818 </v>
   <v>       0.23076923       0.26666667       0.18181818 </v>
   <v>       0.26923077       0.26666667       0.18181818 </v>
   <v>       0.30769231       0.26666667       0.18181818 </v>
   <v>       0.34615385       0.26666667       0.18181818 </v>
   <v>       0.38461538       0.26666667       0.18181818 </v>
   <v>       0.42307692       0.26666667       0.18181818 </v>
   <v>       0.46153846       0.26666667       0.18181818 </v>
   <v>       0.50000000       0.26666667       0.18181818 </v>
   <v>      -0.46153846       0.26666667       0.18181818 </v>
   <v>      -0.42307692       0.26666667       0.18181818 </v>
   <v>      -0.38461538       0.26666667       0.18181818 </v>
   <v>      -0.34615385       0.26666667       0.18181818 </v>
   <v>      -0.30769231       0.26666667       0.18181818 </v>
   <v>      -0.26923077       0.26666667       0.18181818 </v>
   <v>      -0.23076923       0.26666667       0.18181818 </v>
   <v>      -0.19230769       0.26666667       0.18181818 </v>
   <v>      -0.15384615       0.26666667       0.18181818 </v>
   <v>      -0.11538462       0.26666667       0.18181818 </v>
   <v>      -0.07692308       0.26666667       0.18181818 </v>
   <v>      -0.03846154       0.26666667       0.18181818 </v>
   <v>       0.00000000       0.33333333       0.18181818 </v>
   <v>       0.03846154       0.33333333       0.18181818 </v>
   <v>       0.07692308       0.33333333       0.18181818 </v>
   <v>       0.11538462       0.33333333       0.18181818 </v>
   <v>       0.15384615       0.33333333       0.18181818 </v>
   <v>       0.19230769       0.33333333       0.18181818 </v>
   <v>       0.23076923       0.33333333       0.18181818 </v>
   <v>       0.26923077       0.33333333       0.18181818 </v>
   <v>       0.30769231       0.33333333       0.18181818 </v>
   <v>       0.34615385       0.33333333       0.18181818 </v>
   <v>       0.38461538       0.33333333       0.18181818 </v>
   <v>       0.42307692       0.33333333       0.18181818 </v>
   <v>       0.46153846       0.33333333       0.18181818 </v>
   <v>       0.50000000       0.33333333       0.18181818 </v>
   <v>      -0.46153846       0.33333333       0.18181818 </v>
   <v>      -0.42307692       0.33333333       0.18181818 </v>
   <v>      -0.38461538       0.33333333       0.18181818 </v>
   <v>      -0.34615385       0.33333333       0.18181818 </v>
   <v>      -0.30769231       0.33333333       0.18181818 </v>
   <v>      -0.26923077       0.33333333       0.18181818 </v>
   <v>      -0.23076923       0.33333333       0.18181818 </v>
   <v>      -0.19230769       0.33333333       0.18181818 </v>
   <v>      -0.15384615       0.33333333       0.18181818 </v>
   <v>      -0.11538462       0.33333333       0.18181818 </v>
   <v>      -0.07692308       0.33333333       0.18181818 </v>
   <v>      -0.03846154       0.33333333       0.18181818 </v>
   <v>       0.00000000       0.40000000       0.18181818 </v>
   <v>       0.03846154       0.40000000       0.18181818 </v>
   <v>       0.07692308       0.40000000       0.18181818 </v>
   <v>       0.11538462       0.40000000       0.18181818 </v>
   <v>       0.15384615       0.40000000       0.18181818 </v>
   <v>       0.19230769       0.40000000       0.18181818 </v>
   <v>       0.23076923       0.40000000       0.18181818 </v>
   <v>       0.26923077       0.40000000       0.18181818 </v>
   <v>       0.30769231       0.40000000       0.18181818 </v>
   <v>       0.34615385       0.40000000       0.18181818 </v>
   <v>       0.38461538       0.40000000       0.18181818 </v>
   <v>       0.42307692       0.40000000       0.18181818 </v>
   <v>       0.46153846       0.40000000       0.18181818 </v>
   <v>       0.50000000       0.40000000       0.18181818 </v>
   <v>      -0.46153846       0.40000000       0.18181818 </v>
   <v>      -0.42307692       0.40000000       0.18181818 </v>
   <v>      -0.38461538       0.40000000       0.18181818 </v>
   <v>      -0.34615385       0.40000000       0.18181818 </v>
   <v>      -0.30769231       0.40000000       0.18181818 </v>
   <v>      -0.26923077       0.40000000       0.18181818 </v>
   <v>      -0.23076923       0.40000000       0.18181818 </v>
   <v>      -0.19230769       0.40000000       0.18181818 </v>
   <v>      -0.15384615       0.40000000       0.18181818 </v>
   <v>      -0.11538462       0.40000000       0.18181818 </v>
   <v>      -0.07692308       0.40000000       0.18181818 </v>
   <v>      -0.03846154       0.40000000       0.18181818 </v>
   <v>       0.00000000       0.46666667       0.18181818 </v>
   <v>       0.03846154       0.46666667       0.18181818 </v>
   <v>       0.07692308       0.46666667       0.18181818 </v>
   <v>       0.11538462       0.46666667       0.18181818 </v>
   <v>       0.15384615       0.46666667       0.18181818 </v>
   <v>       0.19230769       0.46666667       0.18181818 </v>
   <v>       0.23076923       0.46666667       0.18181818 </v>
   <v>       0.26923077       0.46666667       0.18181818 </v>
   <v>       0.30769231       0.46666667       0.18181818 </v>
   <v>       0.34615385       0.46666667       0.18181818 </v>
   <v>       0.38461538       0.46666667       0.18181818 </v>
   <v>       0.42307692       0.46666667       0.18181818 </v>
   <v>       0.46153846       0.46666667       0.18181818 </v>
   <v>       0.50000000       0.46666667       0.18181818 </v>
   <v>      -0.46153846       0.46666667       0.18181818 </v>
   <v>      -0.42307692       0.46666667       0.18181818 </v>
   <v>      -0.38461538       0.46666667       0.18181818 </v>
   <v>      -0.34615385       0.46666667       0.18181818 </v>
   <v>      -0.30769231       0.46666667       0.18181818 </v>
   <v>      -0.26923077       0.46666667       0.18181818 </v>
   <v>      -0.23076923       0.46666667       0.18181818 </v>
   <v>      -0.19230769       0.46666667       0.18181818 </v>
   <v>      -0.15384615       0.46666667       0.18181818 </v>
   <v>      -0.11538462       0.46666667       0.18181818 </v>
   <v>      -0.07692308       0.46666667       0.18181818 </v>
   <v>      -0.03846154       0.46666667       0.18181818 </v>
   <v>       0.00000000      -0.46666667       0.18181818 </v>
   <v>       0.03846154      -0.46666667       0.18181818 </v>
   <v>       0.07692308      -0.46666667       0.18181818 </v>
   <v>       0.11538462      -0.46666667       0.18181818 </v>
   <v>       0.15384615      -0.46666667       0.18181818 </v>
   <v>       0.19230769      -0.46666667       0.18181818 </v>
   <v>       0.23076923      -0.46666667       0.18181818 </v>
   <v>       0.26923077      -0.46666667       0.18181818 </v>
   <v>       0.30769231      -0.46666667       0.18181818 </v>
   <v>       0.34615385      -0.46666667       0.18181818 </v>
   <v>       0.38461538      -0.46666667       0.18181818 </v>
   <v>       0.42307692      -0.46666667       0.18181818 </v>
   <v>       0.46153846      -0.46666667       0.18181818 </v>
   <v>       0.50000000      -0.46666667       0.18181818 </v>
   <v>      -0.46153846      -0.46666667       0.18181818 </v>
   <v>      -0.42307692      -0.46666667       0.18181818 </v>
   <v>      -0.38461538      -0.46666667       0.18181818 </v>
   <v>      -0.34615385      -0.46666667       0.18181818 </v>
   <v>      -0.30769231      -0.46666667       0.18181818 </v>
   <v>      -0.26923077      -0.46666667       0.18181818 </v>
   <v>      -0.23076923      -0.46666667       0.18181818 </v>
   <v>      -0.19230769      -0.46666667       0.18181818 </v>
   <v>      -0.15384615      -0.46666667       0.18181818 </v>
   <v>      -0.11538462      -0.46666667       0.18181818 </v>
   <v>      -0.07692308      -0.46666667       0.18181818 </v>
   <v>      -0.03846154      -0.46666667       0.18181818 </v>
   <v>       0.00000000      -0.40000000       0.18181818 </v>
   <v>       0.03846154      -0.40000000       0.18181818 </v>
   <v>       0.07692308      -0.40000000       0.18181818 </v>
   <v>       0.11538462      -0.40000000       0.18181818 </v>
   <v>       0.15384615      -0.40000000       0.18181818 </v>
   <v>       0.19230769      -0.40000000       0.18181818 </v>
   <v>       0.23076923      -0.40000000       0.18181818 </v>
   <v>       0.26923077      -0.40000000       0.18181818 </v>
   <v>       0.30769231      -0.40000000       0.18181818 </v>
   <v>       0.34615385      -0.40000000       0.18181818 </v>
   <v>       0.38461538      -0.40000000       0.18181818 </v>
   <v>       0.42307692      -0.40000000       0.18181818 </v>
   <v>       0.46153846      -0.40000000       0.18181818 </v>
   <v>       0.50000000      -0.40000000       0.18181818 </v>
   <v>      -0.46153846      -0.40000000       0.18181818 </v>
   <v>      -0.42307692      -0.40000000       0.18181818 </v>
   <v>      -0.38461538      -0.40000000       0.18181818 </v>
   <v>      -0.34615385      -0.40000000       0.18181818 </v>
   <v>      -0.30769231      -0.40000000       0.18181818 </v>
   <v>      -0.26923077      -0.40000000       0.18181818 </v>
   <v>      -0.23076923      -0.40000000       0.18181818 </v>
   <v>      -0.19230769      -0.40000000       0.18181818 </v>
   <v>      -0.15384615      -0.40000000       0.18181818 </v>
   <v>      -0.11538462      -0.40000000       0.18181818 </v>
   <v>      -0.07692308      -0.40000000       0.18181818 </v>
   <v>      -0.03846154      -0.40000000       0.18181818 </v>
   <v>       0.00000000      -0.33333333       0.18181818 </v>
   <v>       0.03846154      -0.33333333       0.18181818 </v>
   <v>       0.07692308      -0.33333333       0.18181818 </v>
   <v>       0.11538462      -0.33333333       0.18181818 </v>
   <v>       0.15384615      -0.33333333       0.18181818 </v>
   <v>       0.19230769      -0.33333333       0.18181818 </v>
   <v>       0.23076923      -0.33333333       0.18181818 </v>
   <v>       0.26923077      -0.33333333       0.18181818 </v>
   <v>       0.30769231      -0.33333333       0.18181818 </v>
   <v>       0.34615385      -0.33333333       0.18181818 </v>
   <v>       0.38461538      -0.33333333       0.18181818 </v>
   <v>       0.42307692      -0.33333333       0.18181818 </v>
   <v>       0.46153846      -0.33333333       0.18181818 </v>
   <v>       0.50000000      -0.33333333       0.18181818 </v>
   <v>      -0.46153846      -0.33333333       0.18181818 </v>
   <v>      -0.42307692      -0.33333333       0.18181818 </v>
   <v>      -0.38461538      -0.33333333       0.18181818 </v>
   <v>      -0.34615385      -0.33333333       0.18181818 </v>
   <v>      -0.30769231      -0.33333333       0.18181818 </v>
   <v>      -0.26923077      -0.33333333       0.18181818 </v>
   <v>      -0.23076923      -0.33333333       0.18181818 </v>
   <v>      -0.19230769      -0.33333333       0.18181818 </v>
   <v>      -0.15384615      -0.33333333       0.18181818 </v>
   <v>      -0.11538462      -0.33333333       0.18181818 </v>
   <v>      -0.07692308      -0.33333333       0.18181818 </v>
   <v>      -0.03846154      -0.33333333       0.18181818 </v>
   <v>       0.00000000      -0.26666667       0.18181818 </v>
   <v>       0.03846154      -0.26666667       0.18181818 </v>
   <v>       0.07692308      -0.26666667       0.18181818 </v>
   <v>       0.11538462      -0.26666667       0.18181818 </v>
   <v>       0.15384615      -0.26666667       0.18181818 </v>
   <v>       0.19230769      -0.26666667       0.18181818 </v>
   <v>       0.23076923      -0.26666667       0.18181818 </v>
   <v>       0.26923077      -0.26666667       0.18181818 </v>
   <v>       0.30769231      -0.26666667       0.18181818 </v>
   <v>       0.34615385      -0.26666667       0.18181818 </v>
   <v>       0.38461538      -0.26666667       0.18181818 </v>
   <v>       0.42307692      -0.26666667       0.18181818 </v>
   <v>       0.46153846      -0.26666667       0.18181818 </v>
   <v>       0.50000000      -0.26666667       0.18181818 </v>
   <v>      -0.46153846      -0.26666667       0.18181818 </v>
   <v>      -0.42307692      -0.26666667       0.18181818 </v>
   <v>      -0.38461538      -0.26666667       0.18181818 </v>
   <v>      -0.34615385      -0.26666667       0.18181818 </v>
   <v>      -0.30769231      -0.26666667       0.18181818 </v>
   <v>      -0.26923077      -0.26666667       0.18181818 </v>
   <v>      -0.23076923      -0.26666667       0.18181818 </v>
   <v>      -0.19230769      -0.26666667       0.18181818 </v>
   <v>      -0.15384615      -0.26666667       0.18181818 </v>
   <v>      -0.11538462      -0.26666667       0.18181818 </v>
   <v>      -0.07692308      -0.26666667       0.18181818 </v>
   <v>      -0.03846154      -0.26666667       0.18181818 </v>
   <v>       0.00000000      -0.20000000       0.18181818 </v>
   <v>       0.03846154      -0.20000000       0.18181818 </v>
   <v>       0.07692308      -0.20000000       0.18181818 </v>
   <v>       0.11538462      -0.20000000       0.18181818 </v>
   <v>       0.15384615      -0.20000000       0.18181818 </v>
   <v>       0.19230769      -0.20000000       0.18181818 </v>
   <v>       0.23076923      -0.20000000       0.18181818 </v>
   <v>       0.26923077      -0.20000000       0.18181818 </v>
   <v>       0.30769231      -0.20000000       0.18181818 </v>
   <v>       0.34615385      -0.20000000       0.18181818 </v>
   <v>       0.38461538      -0.20000000       0.18181818 </v>
   <v>       0.42307692      -0.20000000       0.18181818 </v>
   <v>       0.46153846      -0.20000000       0.18181818 </v>
   <v>       0.50000000      -0.20000000       0.18181818 </v>
   <v>      -0.46153846      -0.20000000       0.18181818 </v>
   <v>      -0.42307692      -0.20000000       0.18181818 </v>
   <v>      -0.38461538      -0.20000000       0.18181818 </v>
   <v>      -0.34615385      -0.20000000       0.18181818 </v>
   <v>      -0.30769231      -0.20000000       0.18181818 </v>
   <v>      -0.26923077      -0.20000000       0.18181818 </v>
   <v>      -0.23076923      -0.20000000       0.18181818 </v>
   <v>      -0.19230769      -0.20000000       0.18181818 </v>
   <v>      -0.15384615      -0.20000000       0.18181818 </v>
   <v>      -0.11538462      -0.20000000       0.18181818 </v>
   <v>      -0.07692308      -0.20000000       0.18181818 </v>
   <v>      -0.03846154      -0.20000000       0.18181818 </v>
   <v>       0.00000000      -0.13333333       0.18181818 </v>
   <v>       0.03846154      -0.13333333       0.18181818 </v>
   <v>       0.07692308      -0.13333333       0.18181818 </v>
   <v>       0.11538462      -0.13333333       0.18181818 </v>
   <v>       0.15384615      -0.13333333       0.18181818 </v>
   <v>       0.19230769      -0.13333333       0.18181818 </v>
   <v>       0.23076923      -0.13333333       0.18181818 </v>
   <v>       0.26923077      -0.13333333       0.18181818 </v>
   <v>       0.30769231      -0.13333333       0.18181818 </v>
   <v>       0.34615385      -0.13333333       0.18181818 </v>
   <v>       0.38461538      -0.13333333       0.18181818 </v>
   <v>       0.42307692      -0.13333333       0.18181818 </v>
   <v>       0.46153846      -0.13333333       0.18181818 </v>
   <v>       0.50000000      -0.13333333       0.18181818 </v>
   <v>      -0.46153846      -0.13333333       0.18181818 </v>
   <v>      -0.42307692      -0.13333333       0.18181818 </v>
   <v>      -0.38461538      -0.13333333       0.18181818 </v>
   <v>      -0.34615385      -0.13333333       0.18181818 </v>
   <v>      -0.30769231      -0.13333333       0.18181818 </v>
   <v>      -0.26923077      -0.13333333       0.18181818 </v>
   <v>      -0.23076923      -0.13333333       0.18181818 </v>
   <v>      -0.19230769      -0.13333333       0.18181818 </v>
   <v>      -0.15384615      -0.13333333       0.18181818 </v>
   <v>      -0.11538462      -0.13333333       0.18181818 </v>
   <v>      -0.07692308      -0.13333333       0.18181818 </v>
   <v>      -0.03846154      -0.13333333       0.18181818 </v>
   <v>       0.00000000      -0.06666667       0.18181818 </v>
   <v>       0.03846154      -0.06666667       0.18181818 </v>
   <v>       0.07692308      -0.06666667       0.18181818 </v>
   <v>       0.11538462      -0.06666667       0.18181818 </v>
   <v>       0.15384615      -0.06666667       0.18181818 </v>
   <v>       0.19230769      -0.06666667       0.18181818 </v>
   <v>       0.23076923      -0.06666667       0.18181818 </v>
   <v>       0.26923077      -0.06666667       0.18181818 </v>
   <v>       0.30769231      -0.06666667       0.18181818 </v>
   <v>       0.34615385      -0.06666667       0.18181818 </v>
   <v>       0.38461538      -0.06666667       0.18181818 </v>
   <v>       0.42307692      -0.06666667       0.18181818 </v>
   <v>       0.46153846      -0.06666667       0.18181818 </v>
   <v>       0.50000000      -0.06666667       0.18181818 </v>
   <v>      -0.46153846      -0.06666667       0.18181818 </v>
   <v>      -0.42307692      -0.06666667       0.18181818 </v>
   <v>      -0.38461538      -0.06666667       0.18181818 </v>
   <v>      -0.34615385      -0.06666667       0.18181818 </v>
   <v>      -0.30769231      -0.06666667       0.18181818 </v>
   <v>      -0.26923077      -0.06666667       0.18181818 </v>
   <v>      -0.23076923      -0.06666667       0.18181818 </v>
   <v>      -0.19230769      -0.06666667       0.18181818 </v>
   <v>      -0.15384615      -0.06666667       0.18181818 </v>
   <v>      -0.11538462      -0.06666667       0.18181818 </v>
   <v>      -0.07692308      -0.06666667       0.18181818 </v>
   <v>      -0.03846154      -0.06666667       0.18181818 </v>
   <v>       0.00000000       0.00000000       0.27272727 </v>
   <v>       0.03846154       0.00000000       0.27272727 </v>
   <v>       0.07692308       0.00000000       0.27272727 </v>
   <v>       0.11538462       0.00000000       0.27272727 </v>
   <v>       0.15384615       0.00000000       0.27272727 </v>
   <v>       0.19230769       0.00000000       0.27272727 </v>
   <v>       0.23076923       0.00000000       0.27272727 </v>
   <v>       0.26923077       0.00000000       0.27272727 </v>
   <v>       0.30769231       0.00000000       0.27272727 </v>
   <v>       0.34615385       0.00000000       0.27272727 </v>
   <v>       0.38461538       0.00000000       0.27272727 </v>
   <v>       0.42307692       0.00000000       0.27272727 </v>
   <v>       0.46153846       0.00000000       0.27272727 </v>
   <v>       0.50000000       0.00000000       0.27272727 </v>
   <v>      -0.46153846       0.00000000       0.27272727 </v>
   <v>      -0.42307692       0.00000000       0.27272727 </v>
   <v>      -0.38461538       0.00000000       0.27272727 </v>
   <v>      -0.34615385       0.00000000       0.27272727 </v>
   <v>      -0.30769231       0.00000000       0.27272727 </v>
   <v>      -0.26923077       0.00000000       0.27272727 </v>
   <v>      -0.23076923       0.00000000       0.27272727 </v>
   <v>      -0.19230769       0.00000000       0.27272727 </v>
   <v>      -0.15384615       0.00000000       0.27272727 </v>
   <v>      -0.11538462       0.00000000       0.27272727 </v>
   <v>      -0.07692308       0.00000000       0.27272727 </v>
   <v>      -0.03846154       0.00000000       0.27272727 </v>
   <v>       0.00000000       0.06666667       0.27272727 </v>
   <v>       0.03846154       0.06666667       0.27272727 </v>
   <v>       0.07692308       0.06666667       0.27272727 </v>
   <v>       0.11538462       0.06666667       0.27272727 </v>
   <v>       0.15384615       0.06666667       0.27272727 </v>
   <v>       0.19230769       0.06666667       0.27272727 </v>
   <v>       0.23076923       0.06666667       0.27272727 </v>
   <v>       0.26923077       0.06666667       0.27272727 </v>
   <v>       0.30769231       0.06666667       0.27272727 </v>
   <v>       0.34615385       0.06666667       0.27272727 </v>
   <v>       0.38461538       0.06666667       0.27272727 </v>
   <v>       0.42307692       0.06666667       0.27272727 </v>
   <v>       0.46153846       0.06666667       0.27272727 </v>
   <v>       0.50000000       0.06666667       0.27272727 </v>
   <v>      -0.46153846       0.06666667       0.27272727 </v>
   <v>      -0.42307692       0.06666667       0.27272727 </v>
   <v>      -0.38461538       0.06666667       0.27272727 </v>
   <v>      -0.34615385       0.06666667       0.27272727 </v>
   <v>      -0.30769231       0.06666667       0.27272727 </v>
   <v>      -0.26923077       0.06666667       0.27272727 </v>
   <v>      -0.23076923       0.06666667       0.27272727 </v>
   <v>      -0.19230769       0.06666667       0.27272727 </v>
   <v>      -0.15384615       0.06666667       0.27272727 </v>
   <v>      -0.11538462       0.06666667       0.27272727 </v>
   <v>      -0.07692308       0.06666667       0.27272727 </v>
   <v>      -0.03846154       0.06666667       0.27272727 </v>
   <v>       0.00000000       0.13333333       0.27272727 </v>
   <v>       0.03846154       0.13333333       0.27272727 </v>
   <v>       0.07692308       0.13333333       0.27272727 </v>
   <v>       0.11538462       0.13333333       0.27272727 </v>
   <v>       0.15384615       0.13333333       0.27272727 </v>
   <v>       0.19230769       0.13333333       0.27272727 </v>
   <v>       0.23076923       0.13333333       0.27272727 </v>
   <v>       0.26923077       0.13333333       0.27272727 </v>
   <v>       0.30769231       0.13333333       0.27272727 </v>
   <v>       0.34615385       0.13333333       0.27272727 </v>
   <v>       0.38461538       0.13333333       0.27272727 </v>
   <v>       0.42307692       0.13333333       0.27272727 </v>
   <v>       0.46153846       0.13333333       0.27272727 </v>
   <v>       0.50000000       0.13333333       0.27272727 </v>
   <v>      -0.46153846       0.13333333       0.27272727 </v>
   <v>      -0.42307692       0.13333333       0.27272727 </v>
   <v>      -0.38461538       0.13333333       0.27272727 </v>
   <v>      -0.34615385       0.13333333       0.27272727 </v>
   <v>      -0.30769231       0.13333333       0.27272727 </v>
   <v>      -0.26923077       0.13333333       0.27272727 </v>
   <v>      -0.23076923       0.13333333       0.27272727 </v>
   <v>      -0.19230769       0.13333333       0.27272727 </v>
   <v>      -0.15384615       0.13333333       0.27272727 </v>
   <v>      -0.11538462       0.13333333       0.27272727 </v>
   <v>      -0.07692308       0.13333333       0.27272727 </v>
   <v>      -0.03846154       0.13333333       0.27272727 </v>
   <v>       0.00000000       0.20000000       0.27272727 </v>
   <v>       0.03846154       0.20000000       0.27272727 </v>
   <v>       0.07692308       0.20000000       0.27272727 </v>
   <v>       0.11538462       0.20000000       0.27272727 </v>
   <v>       0.15384615       0.20000000       0.27272727 </v>
   <v>       0.19230769       0.20000000       0.27272727 </v>
   <v>       0.23076923       0.20000000       0.27272727 </v>
   <v>       0.26923077       0.20000000       0.27272727 </v>
   <v>       0.30769231       0.20000000       0.27272727 </v>
   <v>       0.34615385       0.20000000       0.27272727 </v>
   <v>       0.38461538       0.20000000       0.27272727 </v>
   <v>       0.42307692       0.20000000       0.27272727 </v>
   <v>       0.46153846       0.20000000       0.27272727 </v>
   <v>       0.50000000       0.20000000       0.27272727 </v>
   <v>      -0.46153846       0.20000000       0.27272727 </v>
   <v>      -0.42307692       0.20000000       0.27272727 </v>
   <v>      -0.38461538       0.20000000       0.27272727 </v>
   <v>      -0.34615385       0.20000000       0.27272727 </v>
   <v>      -0.30769231       0.20000000       0.27272727 </v>
   <v>      -0.26923077       0.20000000       0.27272727 </v>
   <v>      -0.23076923       0.20000000       0.27272727 </v>
   <v>      -0.19230769       0.20000000       0.27272727 </v>
   <v>      -0.15384615       0.20000000       0.27272727 </v>
   <v>      -0.11538462       0.20000000       0.27272727 </v>
   <v>      -0.07692308       0.20000000       0.27272727 </v>
   <v>      -0.03846154       0.20000000       0.27272727 </v>
   <v>       0.00000000       0.26666667       0.27272727 </v>
   <v>       0.03846154       0.26666667       0.27272727 </v>
   <v>       0.07692308       0.26666667       0.27272727 </v>
   <v>       0.11538462       0.26666667       0.27272727 </v>
   <v>       0.15384615       0.26666667       0.27272727 </v>
   <v>       0.19230769       0.26666667       0.27272727 </v>
   <v>       0.23076923       0.26666667       0.27272727 </v>
   <v>       0.26923077       0.26666667       0.27272727 </v>
   <v>       0.30769231       0.26666667       0.27272727 </v>
   <v>       0.34615385       0.26666667       0.27272727 </v>
   <v>       0.38461538       0.26666667       0.27272727 </v>
   <v>       0.42307692       0.26666667       0.27272727 </v>
   <v>       0.46153846       0.26666667       0.27272727 </v>
   <v>       0.50000000       0.26666667       0.27272727 </v>
   <v>      -0.46153846       0.26666667       0.27272727 </v>
   <v>      -0.42307692       0.26666667       0.27272727 </v>
   <v>      -0.38461538       0.26666667       0.27272727 </v>
   <v>      -0.34615385       0.26666667       0.27272727 </v>
   <v>      -0.30769231       0.26666667       0.27272727 </v>
   <v>      -0.26923077       0.26666667       0.27272727 </v>
   <v>      -0.23076923       0.26666667       0.27272727 </v>
   <v>      -0.19230769       0.26666667       0.27272727 </v>
   <v>      -0.15384615       0.26666667       0.27272727 </v>
   <v>      -0.11538462       0.26666667       0.27272727 </v>
   <v>      -0.07692308       0.26666667       0.27272727 </v>
   <v>      -0.03846154       0.26666667       0.27272727 </v>
   <v>       0.00000000       0.33333333       0.27272727 </v>
   <v>       0.03846154       0.33333333       0.27272727 </v>
   <v>       0.07692308       0.33333333       0.27272727 </v>
   <v>       0.11538462       0.33333333       0.27272727 </v>
   <v>       0.15384615       0.33333333       0.27272727 </v>
   <v>       0.19230769       0.33333333       0.27272727 </v>
   <v>       0.23076923       0.33333333       0.27272727 </v>
   <v>       0.26923077       0.33333333       0.27272727 </v>
   <v>       0.30769231       0.33333333       0.27272727 </v>
   <v>       0.34615385       0.33333333       0.27272727 </v>
   <v>       0.38461538       0.33333333       0.27272727 </v>
   <v>       0.42307692       0.33333333       0.27272727 </v>
   <v>       0.46153846       0.33333333       0.27272727 </v>
   <v>       0.50000000       0.33333333       0.27272727 </v>
   <v>      -0.46153846       0.33333333       0.27272727 </v>
   <v>      -0.42307692       0.33333333       0.27272727 </v>
   <v>      -0.38461538       0.33333333       0.27272727 </v>
   <v>      -0.34615385       0.33333333       0.27272727 </v>
   <v>      -0.30769231       0.33333333       0.27272727 </v>
   <v>      -0.26923077       0.33333333       0.27272727 </v>
   <v>      -0.23076923       0.33333333       0.27272727 </v>
   <v>      -0.19230769       0.33333333       0.27272727 </v>
   <v>      -0.15384615       0.33333333       0.27272727 </v>
   <v>      -0.11538462       0.33333333       0.27272727 </v>
   <v>      -0.07692308       0.33333333       0.27272727 </v>
   <v>      -0.03846154       0.33333333       0.27272727 </v>
   <v>       0.00000000       0.40000000       0.27272727 </v>
   <v>       0.03846154       0.40000000       0.27272727 </v>
   <v>       0.07692308       0.40000000       0.27272727 </v>
   <v>       0.11538462       0.40000000       0.27272727 </v>
   <v>       0.15384615       0.40000000       0.27272727 </v>
   <v>       0.19230769       0.40000000       0.27272727 </v>
   <v>       0.23076923       0.40000000       0.27272727 </v>
   <v>       0.26923077       0.40000000       0.27272727 </v>
   <v>       0.30769231       0.40000000       0.27272727 </v>
   <v>       0.34615385       0.40000000       0.27272727 </v>
   <v>       0.38461538       0.40000000       0.27272727 </v>
   <v>       0.42307692       0.40000000       0.27272727 </v>
   <v>       0.46153846       0.40000000       0.27272727 </v>
   <v>       0.50000000       0.40000000       0.27272727 </v>
   <v>      -0.46153846       0.40000000       0.27272727 </v>
   <v>      -0.42307692       0.40000000       0.27272727 </v>
   <v>      -0.38461538       0.40000000       0.27272727 </v>
   <v>      -0.34615385       0.40000000       0.27272727 </v>
   <v>      -0.30769231       0.40000000       0.27272727 </v>
   <v>      -0.26923077       0.40000000       0.27272727 </v>
   <v>      -0.23076923       0.40000000       0.27272727 </v>
   <v>      -0.19230769       0.40000000       0.27272727 </v>
   <v>      -0.15384615       0.40000000       0.27272727 </v>
   <v>      -0.11538462       0.40000000       0.27272727 </v>
   <v>      -0.07692308       0.40000000       0.27272727 </v>
   <v>      -0.03846154       0.40000000       0.27272727 </v>
   <v>       0.00000000       0.46666667       0.27272727 </v>
   <v>       0.03846154       0.46666667       0.27272727 </v>
   <v>       0.07692308       0.46666667       0.27272727 </v>
   <v>       0.11538462       0.46666667       0.27272727 </v>
   <v>       0.15384615       0.46666667       0.27272727 </v>
   <v>       0.19230769       0.46666667       0.27272727 </v>
   <v>       0.23076923       0.46666667       0.27272727 </v>
   <v>       0.26923077       0.46666667       0.27272727 </v>
   <v>       0.30769231       0.46666667       0.27272727 </v>
   <v>       0.34615385       0.46666667       0.27272727 </v>
   <v>       0.38461538       0.46666667       0.27272727 </v>
   <v>       0.42307692       0.46666667       0.27272727 </v>
   <v>       0.46153846       0.46666667       0.27272727 </v>
   <v>       0.50000000       0.46666667       0.27272727 </v>
   <v>      -0.46153846       0.46666667       0.27272727 </v>
   <v>      -0.42307692       0.46666667       0.27272727 </v>
   <v>      -0.38461538       0.46666667       0.27272727 </v>
   <v>      -0.34615385       0.46666667       0.27272727 </v>
   <v>      -0.30769231       0.46666667       0.27272727 </v>
   <v>      -0.26923077       0.46666667       0.27272727 </v>
   <v>      -0.23076923       0.46666667       0.27272727 </v>
   <v>      -0.19230769       0.46666667       0.27272727 </v>
   <v>      -0.15384615       0.46666667       0.27272727 </v>
   <v>      -0.11538462       0.46666667       0.27272727 </v>
   <v>      -0.07692308       0.46666667       0.27272727 </v>
   <v>      -0.03846154       0.46666667       0.27272727 </v>
   <v>       0.00000000      -0.46666667       0.27272727 </v>
   <v>       0.03846154      -0.46666667       0.27272727 </v>
   <v>       0.07692308      -0.46666667       0.27272727 </v>
   <v>       0.11538462      -0.46666667       0.27272727 </v>
   <v>       0.15384615      -0.46666667       0.27272727 </v>
   <v>       0.19230769      -0.46666667       0.27272727 </v>
   <v>       0.23076923      -0.46666667       0.27272727 </v>
   <v>       0.26923077      -0.46666667       0.27272727 </v>
   <v>       0.30769231      -0.46666667       0.27272727 </v>
   <v>       0.34615385      -0.46666667       0.27272727 </v>
   <v>       0.38461538      -0.46666667       0.27272727 </v>
   <v>       0.42307692      -0.46666667       0.27272727 </v>
   <v>       0.46153846      -0.46666667       0.27272727 </v>
   <v>       0.50000000      -0.46666667       0.27272727 </v>
   <v>      -0.46153846      -0.46666667       0.27272727 </v>
   <v>      -0.42307692      -0.46666667       0.27272727 </v>
   <v>      -0.38461538      -0.46666667       0.27272727 </v>
   <v>      -0.34615385      -0.46666667       0.27272727 </v>
   <v>      -0.30769231      -0.46666667       0.27272727 </v>
   <v>      -0.26923077      -0.46666667       0.27272727 </v>
   <v>      -0.23076923      -0.46666667       0.27272727 </v>
   <v>      -0.19230769      -0.46666667       0.27272727 </v>
   <v>      -0.15384615      -0.46666667       0.27272727 </v>
   <v>      -0.11538462      -0.46666667       0.27272727 </v>
   <v>      -0.07692308      -0.46666667       0.27272727 </v>
   <v>      -0.03846154      -0.46666667       0.27272727 </v>
   <v>       0.00000000      -0.40000000       0.27272727 </v>
   <v>       0.03846154      -0.40000000       0.27272727 </v>
   <v>       0.07692308      -0.40000000       0.27272727 </v>
   <v>       0.11538462      -0.40000000       0.27272727 </v>
   <v>       0.15384615      -0.40000000       0.27272727 </v>
   <v>       0.19230769      -0.40000000       0.27272727 </v>
   <v>       0.23076923      -0.40000000       0.27272727 </v>
   <v>       0.26923077      -0.40000000       0.27272727 </v>
   <v>       0.30769231      -0.40000000       0.27272727 </v>
   <v>       0.34615385      -0.40000000       0.27272727 </v>
   <v>       0.38461538      -0.40000000       0.27272727 </v>
   <v>       0.42307692      -0.40000000       0.27272727 </v>
   <v>       0.46153846      -0.40000000       0.27272727 </v>
   <v>       0.50000000      -0.40000000       0.27272727 </v>
   <v>      -0.46153846      -0.40000000       0.27272727 </v>
   <v>      -0.42307692      -0.40000000       0.27272727 </v>
   <v>      -0.38461538      -0.40000000       0.27272727 </v>
   <v>      -0.34615385      -0.40000000       0.27272727 </v>
   <v>      -0.30769231      -0.40000000       0.27272727 </v>
   <v>      -0.26923077      -0.40000000       0.27272727 </v>
   <v>      -0.23076923      -0.40000000       0.27272727 </v>
   <v>      -0.19230769      -0.40000000       0.27272727 </v>
   <v>      -0.15384615      -0.40000000       0.27272727 </v>
   <v>      -0.11538462      -0.40000000       0.27272727 </v>
   <v>      -0.07692308      -0.40000000       0.27272727 </v>
   <v>      -0.03846154      -0.40000000       0.27272727 </v>
   <v>       0.00000000      -0.33333333       0.27272727 </v>
   <v>       0.03846154      -0.33333333       0.27272727 </v>
   <v>       0.07692308      -0.33333333       0.27272727 </v>
   <v>       0.11538462      -0.33333333       0.27272727 </v>
   <v>       0.15384615      -0.33333333       0.27272727 </v>
   <v>       0.19230769      -0.33333333       0.27272727 </v>
[...]
       <r>    3.2855    1.0000 </r>
       <r>    3.3420    1.0000 </r>
       <r>    3.4443    1.0000 </r>
       <r>    3.4657    1.0000 </r>
       <r>    3.7754    1.0000 </r>
       <r>    3.8086    1.0000 </r>
       <r>    3.8478    1.0000 </r>
       <r>    3.8870    1.0000 </r>
       <r>    3.9984    1.0000 </r>
       <r>    4.1468    1.0000 </r>
       <r>    4.3414    1.0000 </r>
       <r>    4.5168    1.0000 </r>
       <r>    4.5977    1.0000 </r>
       <r>    4.6926    1.0000 </r>
       <r>    4.9425    1.0000 </r>
       <r>    5.1112    1.0000 </r>
       <r>    5.2998    1.0000 </r>
       <r>    5.3911    1.0000 </r>
       <r>    5.5921    1.0000 </r>
       <r>    5.8149    1.0000 </r>
       <r>    8.1803    0.4483 </r>
       <r>    9.9392    0.0000 </r>
       <r>   10.4843    0.0000 </r>
       <r>   12.1577    0.0000 </r>
       <r>   14.4339    0.0000 </r>
       <r>   14.6206    0.0000 </r>
       <r>   16.5813    0.0000 </r>
       <r>   16.6088    0.0000 </r>
       <r>   18.5362    0.0000 </r>
      </set>
      <set comment="kpoint 2145">
       <r>    0.4973    1.0000 </r>
       <r>    1.6435    1.0000 </r>
       <r>    2.0036    1.0000 </r>
       <r>    2.3551    1.0000 </r>
       <r>    2.7170    1.0000 </r>
       <r>    2.7564    1.0000 </r>
       <r>    3.1854    1.0000 </r>
       <r>    3.2684    1.0000 </r>
       <r>    3.3443    1.0000 </r>
       <r>    3.5020    1.0000 </r>
       <r>    3.5887    1.0000 </r>
       <r>    3.7008    1.0000 </r>
       <r>    3.8034    1.0000 </r>
       <r>    3.8576    1.0000 </r>
       <r>    3.9151    1.0000 </r>
       <r>    3.9888    1.0000 </r>
       <r>    4.2456    1.0000 </r>
       <r>    4.3498    1.0000 </r>
       <r>    4.4893    1.0000 </r>
       <r>    4.5895    1.0000 </r>
       <r>    4.7319    1.0000 </r>
       <r>    4.9850    1.0000 </r>
       <r>    5.1864    1.0000 </r>
       <r>    5.2062    1.0000 </r>
       <r>    5.4062    1.0000 </r>
       <r>    5.5698    1.0000 </r>
       <r>    5.8315    1.0000 </r>
       <r>    7.8971    1.0083 </r>
       <r>   10.0931    0.0000 </r>
       <r>   10.5690    0.0000 </r>
       <r>   11.8902    0.0000 </r>
       <r>   14.0030    0.0000 </r>
       <r>   14.0617    0.0000 </r>
       <r>   16.4669    0.0000 </r>
       <r>   16.5037    0.0000 </r>
       <r>   19.5270    0.0000 </r>
      </set>
      <set comment="kpoint 2146">
       <r>    0.4266    1.0000 </r>
       <r>    1.5132    1.0000 </r>
       <r>    1.9072    1.0000 </r>
       <r>    2.3166    1.0000 </r>
       <r>    2.6428    1.0000 </r>
       <r>    2.7660    1.0000 </r>
       <r>    3.2280    1.0000 </r>
       <r>    3.2469    1.0000 </r>
       <r>    3.3404    1.0000 </r>
       <r>    3.5155    1.0000 </r>
       <r>    3.6453    1.0000 </r>
       <r>    3.7145    1.0000 </r>
       <r>    3.8041    1.0000 </r>
       <r>    3.8589    1.0000 </r>
       <r>    3.9409    1.0000 </r>
       <r>    4.0062    1.0000 </r>
       <r>    4.3029    1.0000 </r>
       <r>    4.3408    1.0000 </r>
       <r>    4.4761    1.0000 </r>
       <r>    4.6188    1.0000 </r>
       <r>    4.7258    1.0000 </r>
       <r>    4.8721    1.0000 </r>
       <r>    5.1489    1.0000 </r>
       <r>    5.3562    1.0000 </r>
       <r>    5.4210    1.0000 </r>
       <r>    5.6010    1.0000 </r>
       <r>    5.8704    1.0000 </r>
       <r>    7.6619    1.0200 </r>
       <r>   10.2838    0.0000 </r>
       <r>   10.7436    0.0000 </r>
       <r>   11.7200    0.0000 </r>
       <r>   13.5660    0.0000 </r>
       <r>   13.6072    0.0000 </r>
       <r>   16.3467    0.0000 </r>
       <r>   16.4376    0.0000 </r>
       <r>   20.3657    0.0000 </r>
      </set>
     </set>
    </set>
   </array>
  </eigenvalues>
  <separator name="orbital magnetization" >
   <v name="MAGDIPOLOUT">      0.00000000      0.00000000      0.00000000</v>
  </separator>
  <dos>
   <i name="efermi">      8.16189249 </i>
   <total>
    <array>
     <dimension dim="1">gridpoints</dimension>
     <dimension dim="2">spin</dimension>
     <field>energy</field>
     <field>total</field>
     <field>integrated</field>
     <set>
      <set comment="spin 1">
       <r>    -3.2037     0.0000     0.0000 </r>
       <r>    -3.1105     0.0000     0.0000 </r>
       <r>    -3.0173     0.0000     0.0000 </r>
       <r>    -2.9241     0.0000     0.0000 </r>
       <r>    -2.8309     0.0000     0.0000 </r>
       <r>    -2.7377     0.0000     0.0000 </r>
       <r>    -2.6445     0.0000     0.0000 </r>
       <r>    -2.5513     0.0000     0.0000 </r>
       <r>    -2.4581     0.0000     0.0000 </r>
       <r>    -2.3649     0.0000     0.0000 </r>
       <r>    -2.2717     0.0000     0.0000 </r>
       <r>    -2.1785     0.0000     0.0000 </r>
       <r>    -2.0853     0.0000     0.0000 </r>
       <r>    -1.9921     0.0000     0.0000 </r>
       <r>    -1.8989     0.0000     0.0000 </r>
       <r>    -1.8057     0.0000     0.0000 </r>
       <r>    -1.7125     0.0000     0.0000 </r>
       <r>    -1.6194     0.0000     0.0000 </r>
       <r>    -1.5262     0.0000     0.0000 </r>
       <r>    -1.4330     0.0000     0.0000 </r>
       <r>    -1.3398     0.0000     0.0000 </r>
       <r>    -1.2466     0.0000     0.0000 </r>
       <r>    -1.1534     0.0000     0.0000 </r>
       <r>    -1.0602     0.0000     0.0000 </r>
       <r>    -0.9670    -0.0001     0.0000 </r>
       <r>    -0.8738    -0.0002     0.0000 </r>
       <r>    -0.7806    -0.0008    -0.0001 </r>
       <r>    -0.6874    -0.0022    -0.0003 </r>
       <r>    -0.5942    -0.0048    -0.0008 </r>
       <r>    -0.5010    -0.0075    -0.0015 </r>
       <r>    -0.4078    -0.0063    -0.0021 </r>
       <r>    -0.3146     0.0062    -0.0015 </r>
       <r>    -0.2214     0.0371     0.0020 </r>
       <r>    -0.1282     0.0884     0.0102 </r>
       <r>    -0.0350     0.1540     0.0246 </r>
       <r>     0.0582     0.2245     0.0455 </r>
       <r>     0.1514     0.2931     0.0728 </r>
       <r>     0.2446     0.3586     0.1062 </r>
       <r>     0.3378     0.4216     0.1455 </r>
       <r>     0.4310     0.4803     0.1903 </r>
       <r>     0.5242     0.5300     0.2397 </r>
       <r>     0.6174     0.5672     0.2925 </r>
       <r>     0.7106     0.5940     0.3479 </r>
       <r>     0.8038     0.6168     0.4054 </r>
       <r>     0.8970     0.6414     0.4652 </r>
       <r>     0.9902     0.6682     0.5275 </r>
       <r>     1.0834     0.6921     0.5920 </r>
       <r>     1.1766     0.7095     0.6581 </r>
       <r>     1.2698     0.7295     0.7261 </r>
       <r>     1.3630     0.7809     0.7988 </r>
       <r>     1.4562     0.9062     0.8833 </r>
       <r>     1.5493     1.1482     0.9903 </r>
       <r>     1.6425     1.5433     1.1341 </r>
       <r>     1.7357     2.1333     1.3329 </r>
       <r>     1.8289     2.9775     1.6104 </r>
       <r>     1.9221     4.1402     1.9963 </r>
       <r>     2.0153     5.6403     2.5220 </r>
       <r>     2.1085     7.3970     3.2113 </r>
       <r>     2.2017     9.2301     4.0716 </r>
       <r>     2.2949    10.9244     5.0897 </r>
       <r>     2.3881    12.2822     6.2343 </r>
       <r>     2.4813    13.1254     7.4576 </r>
       <r>     2.5745    13.3131     8.6983 </r>
       <r>     2.6677    12.8353     9.8945 </r>
       <r>     2.7609    11.9126    11.0048 </r>
       <r>     2.8541    10.9784    12.0279 </r>
       <r>     2.9473    10.4871    13.0053 </r>
       <r>     3.0405    10.6473    13.9976 </r>
       <r>     3.1337    11.2896    15.0497 </r>
       <r>     3.2269    12.0140    16.1694 </r>
       <r>     3.3201    12.5261    17.3368 </r>
       <r>     3.4133    12.8917    18.5383 </r>
       <r>     3.5065    13.4941    19.7959 </r>
       <r>     3.5997    14.6861    21.1646 </r>
       <r>     3.6929    16.3609    22.6894 </r>
       <r>     3.7861    17.8212    24.3502 </r>
       <r>     3.8793    18.1968    26.0461 </r>
       <r>     3.9725    17.1510    27.6445 </r>
       <r>     4.0657    15.2124    29.0623 </r>
       <r>     4.1589    13.3822    30.3095 </r>
       <r>     4.2521    12.4116    31.4662 </r>
       <r>     4.3453    12.4079    32.6226 </r>
       <r>     4.4385    12.9660    33.8310 </r>
       <r>     4.5317    13.5404    35.0929 </r>
       <r>     4.6248    13.7407    36.3735 </r>
       <r>     4.7180    13.4588    37.6278 </r>
       <r>     4.8112    12.8561    38.8260 </r>
       <r>     4.9044    12.2353    39.9663 </r>
       <r>     4.9976    11.8520    41.0708 </r>
       <r>     5.0908    11.7703    42.1678 </r>
       <r>     5.1840    11.8600    43.2731 </r>
       <r>     5.2772    11.9388    44.3858 </r>
       <r>     5.3704    11.9475    45.4992 </r>
       <r>     5.4636    11.9736    46.6151 </r>
       <r>     5.5568    12.0469    47.7379 </r>
       <r>     5.6500    11.9171    48.8485 </r>
       <r>     5.7432    11.1476    49.8874 </r>
       <r>     5.8364     9.5210    50.7748 </r>
       <r>     5.9296     7.3130    51.4563 </r>
       <r>     6.0228     5.1056    51.9321 </r>
       <r>     6.1160     3.3629    52.2455 </r>
       <r>     6.2092     2.2151    52.4520 </r>
       <r>     6.3024     1.5609    52.5974 </r>
       <r>     6.3956     1.2519    52.7141 </r>
       <r>     6.4888     1.1662    52.8228 </r>
       <r>     6.5820     1.1975    52.9344 </r>
       <r>     6.6752     1.2529    53.0512 </r>
       <r>     6.7684     1.2757    53.1701 </r>
       <r>     6.8616     1.2604    53.2875 </r>
       <r>     6.9548     1.2379    53.4029 </r>
       <r>     7.0480     1.2397    53.5184 </r>
       <r>     7.1412     1.2696    53.6368 </r>
       <r>     7.2344     1.3043    53.7583 </r>
       <r>     7.3276     1.3190    53.8813 </r>
       <r>     7.4208     1.3101    54.0034 </r>
       <r>     7.5140     1.2950    54.1240 </r>
       <r>     7.6072     1.2939    54.2446 </r>
       <r>     7.7004     1.3146    54.3671 </r>
       <r>     7.7935     1.3475    54.4927 </r>
       <r>     7.8867     1.3746    54.6208 </r>
       <r>     7.9799     1.3850    54.7499 </r>
       <r>     8.0731     1.3804    54.8786 </r>
       <r>     8.1663     1.3679    55.0060 </r>
       <r>     8.2595     1.3523    55.1321 </r>
       <r>     8.3527     1.3407    55.2570 </r>
       <r>     8.4459     1.3426    55.3821 </r>
       <r>     8.5391     1.3598    55.5089 </r>
       <r>     8.6323     1.3808    55.6376 </r>
       <r>     8.7255     1.3913    55.7672 </r>
       <r>     8.8187     1.3865    55.8965 </r>
       <r>     8.9119     1.3711    56.0242 </r>
       <r>     9.0051     1.3501    56.1501 </r>
       <r>     9.0983     1.3260    56.2736 </r>
       <r>     9.1915     1.3051    56.3953 </r>
       <r>     9.2847     1.3000    56.5164 </r>
       <r>     9.3779     1.3204    56.6395 </r>
       <r>     9.4711     1.3593    56.7662 </r>
       <r>     9.5643     1.3922    56.8959 </r>
       <r>     9.6575     1.3934    57.0258 </r>
       <r>     9.7507     1.3564    57.1522 </r>
       <r>     9.8439     1.2992    57.2733 </r>
       <r>     9.9371     1.2523    57.3900 </r>
       <r>    10.0303     1.2394    57.5055 </r>
       <r>    10.1235     1.2629    57.6232 </r>
       <r>    10.2167     1.3033    57.7446 </r>
       <r>    10.3099     1.3297    57.8686 </r>
       <r>    10.4031     1.3176    57.9914 </r>
       <r>    10.4963     1.2639    58.1092 </r>
       <r>    10.5895     1.1880    58.2199 </r>
       <r>    10.6827     1.1204    58.3243 </r>
       <r>    10.7759     1.0851    58.4254 </r>
       <r>    10.8690     1.0877    58.5268 </r>
       <r>    10.9622     1.1179    58.6310 </r>
       <r>    11.0554     1.1659    58.7396 </r>
       <r>    11.1486     1.2357    58.8548 </r>
       <r>    11.2418     1.3381    58.9795 </r>
       <r>    11.3350     1.4688    59.1164 </r>
       <r>    11.4282     1.5989    59.2654 </r>
       <r>    11.5214     1.6931    59.4232 </r>
       <r>    11.6146     1.7329    59.5847 </r>
       <r>    11.7078     1.7224    59.7452 </r>
       <r>    11.8010     1.6818    59.9020 </r>
       <r>    11.8942     1.6389    60.0547 </r>
       <r>    11.9874     1.6165    60.2054 </r>
       <r>    12.0806     1.6160    60.3560 </r>
       <r>    12.1738     1.6176    60.5067 </r>
       <r>    12.2670     1.5992    60.6558 </r>
       <r>    12.3602     1.5570    60.8009 </r>
       <r>    12.4534     1.5091    60.9415 </r>
       <r>    12.5466     1.4792    61.0794 </r>
       <r>    12.6398     1.4776    61.2171 </r>
       <r>    12.7330     1.4930    61.3562 </r>
       <r>    12.8262     1.5048    61.4965 </r>
       <r>    12.9194     1.5005    61.6363 </r>
       <r>    13.0126     1.4851    61.7747 </r>
       <r>    13.1058     1.4745    61.9121 </r>
       <r>    13.1990     1.4807    62.0501 </r>
       <r>    13.2922     1.5023    62.1901 </r>
       <r>    13.3854     1.5283    62.3326 </r>
       <r>    13.4786     1.5482    62.4769 </r>
       <r>    13.5718     1.5615    62.6224 </r>
       <r>    13.6650     1.5790    62.7695 </r>
       <r>    13.7582     1.6126    62.9198 </r>
       <r>    13.8514     1.6578    63.0743 </r>
       <r>    13.9445     1.6895    63.2318 </r>
       <r>    14.0377     1.6830    63.3887 </r>
       <r>    14.1309     1.6398    63.5415 </r>
       <r>    14.2241     1.5896    63.6896 </r>
       <r>    14.3173     1.5669    63.8356 </r>
       <r>    14.4105     1.5858    63.9834 </r>
       <r>    14.5037     1.6332    64.1356 </r>
       <r>    14.5969     1.6821    64.2924 </r>
       <r>    14.6901     1.7131    64.4521 </r>
       <r>    14.7833     1.7265    64.6130 </r>
       <r>    14.8765     1.7387    64.7750 </r>
       <r>    14.9697     1.7639    64.9394 </r>
       <r>    15.0629     1.8010    65.1072 </r>
       <r>    15.1561     1.8384    65.2786 </r>
       <r>    15.2493     1.8684    65.4527 </r>
       <r>    15.3425     1.8948    65.6293 </r>
       <r>    15.4357     1.9242    65.8086 </r>
       <r>    15.5289     1.9586    65.9912 </r>
       <r>    15.6221     1.9949    66.1771 </r>
       <r>    15.7153     2.0285    66.3661 </r>
       <r>    15.8085     2.0516    66.5573 </r>
       <r>    15.9017     2.0523    66.7486 </r>
       <r>    15.9949     2.0202    66.9369 </r>
       <r>    16.0881     1.9583    67.1194 </r>
       <r>    16.1813     1.8890    67.2954 </r>
       <r>    16.2745     1.8419    67.4671 </r>
       <r>    16.3677     1.8327    67.6379 </r>
       <r>    16.4609     1.8519    67.8105 </r>
       <r>    16.5541     1.8713    67.9849 </r>
       <r>    16.6473     1.8615    68.1584 </r>
       <r>    16.7405     1.8093    68.3270 </r>
       <r>    16.8337     1.7264    68.4879 </r>
       <r>    16.9269     1.6444    68.6411 </r>
       <r>    17.0201     1.5941    68.7897 </r>
       <r>    17.1132     1.5819    68.9371 </r>
       <r>    17.2064     1.5864    69.0850 </r>
       <r>    17.2996     1.5766    69.2319 </r>
       <r>    17.3928     1.5360    69.3751 </r>
       <r>    17.4860     1.4706    69.5121 </r>
       <r>    17.5792     1.3992    69.6425 </r>
       <r>    17.6724     1.3401    69.7674 </r>
       <r>    17.7656     1.3055    69.8891 </r>
       <r>    17.8588     1.2982    70.0101 </r>
       <r>    17.9520     1.3060    70.1318 </r>
       <r>    18.0452     1.3025    70.2532 </r>
       <r>    18.1384     1.2647    70.3711 </r>
       <r>    18.2316     1.1945    70.4824 </r>
       <r>    18.3248     1.1181    70.5866 </r>
       <r>    18.4180     1.0627    70.6856 </r>
       <r>    18.5112     1.0364    70.7822 </r>
       <r>    18.6044     1.0275    70.8780 </r>
       <r>    18.6976     1.0194    70.9730 </r>
       <r>    18.7908     1.0015    71.0663 </r>
       <r>    18.8840     0.9700    71.1567 </r>
       <r>    18.9772     0.9237    71.2428 </r>
       <r>    19.0704     0.8638    71.3233 </r>
       <r>    19.1636     0.7956    71.3975 </r>
       <r>    19.2568     0.7295    71.4654 </r>
       <r>    19.3500     0.6758    71.5284 </r>
       <r>    19.4432     0.6367    71.5878 </r>
       <r>    19.5364     0.6018    71.6439 </r>
       <r>    19.6296     0.5548    71.6956 </r>
       <r>    19.7228     0.4872    71.7410 </r>
       <r>    19.8160     0.4057    71.7788 </r>
       <r>    19.9092     0.3258    71.8091 </r>
       <r>    20.0024     0.2610    71.8335 </r>
       <r>    20.0956     0.2176    71.8537 </r>
       <r>    20.1887     0.1943    71.8719 </r>
       <r>    20.2819     0.1835    71.8890 </r>
       <r>    20.3751     0.1743    71.9052 </r>
       <r>    20.4683     0.1593    71.9200 </r>
       <r>    20.5615     0.1387    71.9330 </r>
       <r>    20.6547     0.1181    71.9440 </r>
       <r>    20.7479     0.1020    71.9535 </r>
       <r>    20.8411     0.0906    71.9619 </r>
       <r>    20.9343     0.0822    71.9696 </r>
       <r>    21.0275     0.0751    71.9766 </r>
       <r>    21.1207     0.0674    71.9829 </r>
       <r>    21.2139     0.0572    71.9882 </r>
       <r>    21.3071     0.0439    71.9923 </r>
       <r>    21.4003     0.0299    71.9951 </r>
       <r>    21.4935     0.0187    71.9968 </r>
       <r>    21.5867     0.0120    71.9979 </r>
       <r>    21.6799     0.0089    71.9988 </r>
       <r>    21.7731     0.0070    71.9994 </r>
       <r>    21.8663     0.0047    71.9999 </r>
       <r>    21.9595     0.0023    72.0001 </r>
       <r>    22.0527     0.0005    72.0001 </r>
       <r>    22.1459    -0.0003    72.0001 </r>
       <r>    22.2391    -0.0004    72.0000 </r>
       <r>    22.3323    -0.0003    72.0000 </r>
       <r>    22.4255    -0.0001    72.0000 </r>
       <r>    22.5187     0.0000    72.0000 </r>
       <r>    22.6119     0.0000    72.0000 </r>
       <r>    22.7051     0.0000    72.0000 </r>
       <r>    22.7983     0.0000    72.0000 </r>
       <r>    22.8915     0.0000    72.0000 </r>
       <r>    22.9847     0.0000    72.0000 </r>
       <r>    23.0779     0.0000    72.0000 </r>
       <r>    23.1711     0.0000    72.0000 </r>
       <r>    23.2642     0.0000    72.0000 </r>
       <r>    23.3574     0.0000    72.0000 </r>
       <r>    23.4506     0.0000    72.0000 </r>
       <r>    23.5438     0.0000    72.0000 </r>
       <r>    23.6370     0.0000    72.0000 </r>
       <r>    23.7302     0.0000    72.0000 </r>
       <r>    23.8234     0.0000    72.0000 </r>
       <r>    23.9166     0.0000    72.0000 </r>
       <r>    24.0098     0.0000    72.0000 </r>
       <r>    24.1030     0.0000    72.0000 </r>
       <r>    24.1962     0.0000    72.0000 </r>
       <r>    24.2894     0.0000    72.0000 </r>
       <r>    24.3826     0.0000    72.0000 </r>
       <r>    24.4758     0.0000    72.0000 </r>
       <r>    24.5690     0.0000    72.0000 </r>
       <r>    24.6622     0.0000    72.0000 </r>
       <r>    24.7554     0.0000    72.0000 </r>
      </set>
     </set>
    </array>
   </total>
  </dos>
 </calculation>
 <structure name="finalpos" >
  <crystal>
   <varray name="basis" >
    <v>       0.00000000      -2.06038089      -2.06038089 </v>
    <v>      -2.08990369       4.14418806      -2.08380717 </v>
    <v>       6.26141703       2.06544028      -0.00505939 </v>
   </varray>
   <i name="volume">     89.26233520 </i>
   <varray name="rec_basis" >
    <v>       0.04798230      -0.14628969      -0.33905746 </v>
    <v>      -0.04779192       0.14452797      -0.14452797 </v>
    <v>       0.14375652       0.04823980      -0.04823980 </v>
   </varray>
  </crystal>
  <varray name="positions" >
   <v>       0.80000000       0.20000000       0.40000000 </v>
   <v>       0.40134189       0.60331149       0.19937229 </v>
   <v>       0.19865811       0.79668851       0.60062771 </v>
   <v>       0.00300124       0.00276161       0.00324087 </v>
   <v>       0.59699876       0.39723839       0.79675913 </v>
  </varray>
 </structure>
</modeling>
