<?xml version="1.0" encoding="ISO-8859-1"?>
<modeling>
 <generator>
  <i name="program" type="string">vasp </i>
  <i name="version" type="string">5.3.5  </i>
  <i name="subversion" type="string">31Mar14 (build Jun 20 2014 13:15:13) complex                          parallel </i>
  <i name="platform" type="string">LinuxIFC </i>
  <i name="date" type="string">2025 11 28 </i>
  <i name="time" type="string">21:22:55 </i>
 </generator>
 <incar>
  <i type="string" name="PREC">accurate</i>
  <i type="int" name="IALGO">    68</i>
  <i type="logical" name="ADDGRID"> T  </i>
  <i type="int" name="NELM">   200</i>
  <i type="int" name="NELMIN">     4</i>
  <i type="int" name="IBRION">     2</i>
  <i name="EDIFF">      0.00000100</i>
  <i name="EDIFFG">     -0.02000000</i>
  <i type="int" name="NSW">    30</i>
  <i type="int" name="ISIF">     3</i>
  <i name="ENCUT">    500.00000000</i>
  <i type="logical" name="LREAL"> F  </i>
  <i type="int" name="ISMEAR">     1</i>
  <i name="SIGMA">      0.30000000</i>
  <i type="logical" name="LWAVE"> F  </i>
  <i type="logical" name="LCHARG"> F  </i>
  <i type="int" name="NELM">   200</i>
 </incar>
 <kpoints>
  <generation param="Auto">
   <i name="subdivisionlength">     70.00000000 </i>
   <v type="int" name="divisions">      15       18       18 </v>
   <v name="usershift">      0.00000000       0.00000000       0.00000000 </v>
   <v name="genvec1">      0.06666667       0.00000000       0.00000000 </v>
   <v name="genvec2">      0.00000000       0.05555556       0.00000000 </v>
   <v name="genvec3">      0.00000000       0.00000000       0.05555556 </v>
   <v name="shift">      0.00000000       0.00000000       0.00000000 </v>
  </generation>
  <varray name="kpointlist" >
   <v>       0.00000000       0.00000000       0.00000000 </v>
   <v>       0.06666667       0.00000000       0.00000000 </v>
   <v>       0.13333333       0.00000000       0.00000000 </v>
   <v>       0.20000000       0.00000000       0.00000000 </v>
   <v>       0.26666667       0.00000000       0.00000000 </v>
   <v>       0.33333333       0.00000000       0.00000000 </v>
   <v>       0.40000000       0.00000000       0.00000000 </v>
   <v>       0.46666667       0.00000000       0.00000000 </v>
   <v>       0.00000000       0.05555556       0.00000000 </v>
   <v>       0.06666667       0.05555556       0.00000000 </v>
   <v>       0.13333333       0.05555556       0.00000000 </v>
   <v>       0.20000000       0.05555556       0.00000000 </v>
   <v>       0.26666667       0.05555556       0.00000000 </v>
   <v>       0.33333333       0.05555556       0.00000000 </v>
   <v>       0.40000000       0.05555556       0.00000000 </v>
   <v>       0.46666667       0.05555556       0.00000000 </v>
   <v>      -0.46666667       0.05555556       0.00000000 </v>
   <v>      -0.40000000       0.05555556       0.00000000 </v>
   <v>      -0.33333333       0.05555556       0.00000000 </v>
   <v>      -0.26666667       0.05555556       0.00000000 </v>
   <v>      -0.20000000       0.05555556       0.00000000 </v>
   <v>      -0.13333333       0.05555556       0.00000000 </v>
   <v>      -0.06666667       0.05555556       0.00000000 </v>
   <v>       0.00000000       0.11111111       0.00000000 </v>
   <v>       0.06666667       0.11111111       0.00000000 </v>
   <v>       0.13333333       0.11111111       0.00000000 </v>
   <v>       0.20000000       0.11111111       0.00000000 </v>
   <v>       0.26666667       0.11111111       0.00000000 </v>
   <v>       0.33333333       0.11111111       0.00000000 </v>
   <v>       0.40000000       0.11111111       0.00000000 </v>
   <v>       0.46666667       0.11111111       0.00000000 </v>
   <v>      -0.46666667       0.11111111       0.00000000 </v>
   <v>      -0.40000000       0.11111111       0.00000000 </v>
   <v>      -0.33333333       0.11111111       0.00000000 </v>
   <v>      -0.26666667       0.11111111       0.00000000 </v>
   <v>      -0.20000000       0.11111111       0.00000000 </v>
   <v>      -0.13333333       0.11111111       0.00000000 </v>
   <v>      -0.06666667       0.11111111       0.00000000 </v>
   <v>       0.00000000       0.16666667       0.00000000 </v>
   <v>       0.06666667       0.16666667       0.00000000 </v>
   <v>       0.13333333       0.16666667       0.00000000 </v>
   <v>       0.20000000       0.16666667       0.00000000 </v>
   <v>       0.26666667       0.16666667       0.00000000 </v>
   <v>       0.33333333       0.16666667       0.00000000 </v>
   <v>       0.40000000       0.16666667       0.00000000 </v>
   <v>       0.46666667       0.16666667       0.00000000 </v>
   <v>      -0.46666667       0.16666667       0.00000000 </v>
   <v>      -0.40000000       0.16666667       0.00000000 </v>
   <v>      -0.33333333       0.16666667       0.00000000 </v>
   <v>      -0.26666667       0.16666667       0.00000000 </v>
   <v>      -0.20000000       0.16666667       0.00000000 </v>
   <v>      -0.13333333       0.16666667       0.00000000 </v>
   <v>      -0.06666667       0.16666667       0.00000000 </v>
   <v>       0.00000000       0.22222222       0.00000000 </v>
   <v>       0.06666667       0.22222222       0.00000000 </v>
   <v>       0.13333333       0.22222222       0.00000000 </v>
   <v>       0.20000000       0.22222222       0.00000000 </v>
   <v>       0.26666667       0.22222222       0.00000000 </v>
   <v>       0.33333333       0.22222222       0.00000000 </v>
   <v>       0.40000000       0.22222222       0.00000000 </v>
   <v>       0.46666667       0.22222222       0.00000000 </v>
   <v>      -0.46666667       0.22222222       0.00000000 </v>
   <v>      -0.40000000       0.22222222       0.00000000 </v>
   <v>      -0.33333333       0.22222222       0.00000000 </v>
   <v>      -0.26666667       0.22222222       0.00000000 </v>
   <v>      -0.20000000       0.22222222       0.00000000 </v>
   <v>      -0.13333333       0.22222222       0.00000000 </v>
   <v>      -0.06666667       0.22222222       0.00000000 </v>
   <v>       0.00000000       0.27777778       0.00000000 </v>
   <v>       0.06666667       0.27777778       0.00000000 </v>
   <v>       0.13333333       0.27777778       0.00000000 </v>
   <v>       0.20000000       0.27777778       0.00000000 </v>
   <v>       0.26666667       0.27777778       0.00000000 </v>
   <v>       0.33333333       0.27777778       0.00000000 </v>
   <v>       0.40000000       0.27777778       0.00000000 </v>
   <v>       0.46666667       0.27777778       0.00000000 </v>
   <v>      -0.46666667       0.27777778       0.00000000 </v>
   <v>      -0.40000000       0.27777778       0.00000000 </v>
   <v>      -0.33333333       0.27777778       0.00000000 </v>
   <v>      -0.26666667       0.27777778       0.00000000 </v>
   <v>      -0.20000000       0.27777778       0.00000000 </v>
   <v>      -0.13333333       0.27777778       0.00000000 </v>
   <v>      -0.06666667       0.27777778       0.00000000 </v>
   <v>       0.00000000       0.33333333       0.00000000 </v>
   <v>       0.06666667       0.33333333       0.00000000 </v>
   <v>       0.13333333       0.33333333       0.00000000 </v>
   <v>       0.20000000       0.33333333       0.00000000 </v>
   <v>       0.26666667       0.33333333       0.00000000 </v>
   <v>       0.33333333       0.33333333       0.00000000 </v>
   <v>       0.40000000       0.33333333       0.00000000 </v>
   <v>       0.46666667       0.33333333       0.00000000 </v>
   <v>      -0.46666667       0.33333333       0.00000000 </v>
   <v>      -0.40000000       0.33333333       0.00000000 </v>
   <v>      -0.33333333       0.33333333       0.00000000 </v>
   <v>      -0.26666667       0.33333333       0.00000000 </v>
   <v>      -0.20000000       0.33333333       0.00000000 </v>
   <v>      -0.13333333       0.33333333       0.00000000 </v>
   <v>      -0.06666667       0.33333333       0.00000000 </v>
   <v>       0.00000000       0.38888889       0.00000000 </v>
   <v>       0.06666667       0.38888889       0.00000000 </v>
   <v>       0.13333333       0.38888889       0.00000000 </v>
   <v>       0.20000000       0.38888889       0.00000000 </v>
   <v>       0.26666667       0.38888889       0.00000000 </v>
   <v>       0.33333333       0.38888889       0.00000000 </v>
   <v>       0.40000000       0.38888889       0.00000000 </v>
   <v>       0.46666667       0.38888889       0.00000000 </v>
   <v>      -0.46666667       0.38888889       0.00000000 </v>
   <v>      -0.40000000       0.38888889       0.00000000 </v>
   <v>      -0.33333333       0.38888889       0.00000000 </v>
   <v>      -0.26666667       0.38888889       0.00000000 </v>
   <v>      -0.20000000       0.38888889       0.00000000 </v>
   <v>      -0.13333333       0.38888889       0.00000000 </v>
   <v>      -0.06666667       0.38888889       0.00000000 </v>
   <v>       0.00000000       0.44444444       0.00000000 </v>
   <v>       0.06666667       0.44444444       0.00000000 </v>
   <v>       0.13333333       0.44444444       0.00000000 </v>
   <v>       0.20000000       0.44444444       0.00000000 </v>
   <v>       0.26666667       0.44444444       0.00000000 </v>
   <v>       0.33333333       0.44444444       0.00000000 </v>
   <v>       0.40000000       0.44444444       0.00000000 </v>
   <v>       0.46666667       0.44444444       0.00000000 </v>
   <v>      -0.46666667       0.44444444       0.00000000 </v>
   <v>      -0.40000000       0.44444444       0.00000000 </v>
   <v>      -0.33333333       0.44444444       0.00000000 </v>
   <v>      -0.26666667       0.44444444       0.00000000 </v>
   <v>      -0.20000000       0.44444444       0.00000000 </v>
   <v>      -0.13333333       0.44444444       0.00000000 </v>
   <v>      -0.06666667       0.44444444       0.00000000 </v>
   <v>       0.00000000       0.50000000       0.00000000 </v>
   <v>       0.06666667       0.50000000       0.00000000 </v>
   <v>       0.13333333       0.50000000       0.00000000 </v>
   <v>       0.20000000       0.50000000       0.00000000 </v>
   <v>       0.26666667       0.50000000       0.00000000 </v>
   <v>       0.33333333       0.50000000       0.00000000 </v>
   <v>       0.40000000       0.50000000       0.00000000 </v>
   <v>       0.46666667       0.50000000       0.00000000 </v>
   <v>       0.00000000       0.05555556       0.05555556 </v>
   <v>       0.06666667       0.05555556       0.05555556 </v>
   <v>       0.13333333       0.05555556       0.05555556 </v>
   <v>       0.20000000       0.05555556       0.05555556 </v>
   <v>       0.26666667       0.05555556       0.05555556 </v>
   <v>       0.33333333       0.05555556       0.05555556 </v>
   <v>       0.40000000       0.05555556       0.05555556 </v>
   <v>       0.46666667       0.05555556       0.05555556 </v>
   <v>      -0.46666667       0.05555556       0.05555556 </v>
   <v>      -0.40000000       0.05555556       0.05555556 </v>
   <v>      -0.33333333       0.05555556       0.05555556 </v>
   <v>      -0.26666667       0.05555556       0.05555556 </v>
   <v>      -0.20000000       0.05555556       0.05555556 </v>
   <v>      -0.13333333       0.05555556       0.05555556 </v>
   <v>      -0.06666667       0.05555556       0.05555556 </v>
   <v>       0.00000000       0.11111111       0.05555556 </v>
   <v>       0.06666667       0.11111111       0.05555556 </v>
   <v>       0.13333333       0.11111111       0.05555556 </v>
   <v>       0.20000000       0.11111111       0.05555556 </v>
   <v>       0.26666667       0.11111111       0.05555556 </v>
   <v>       0.33333333       0.11111111       0.05555556 </v>
   <v>       0.40000000       0.11111111       0.05555556 </v>
   <v>       0.46666667       0.11111111       0.05555556 </v>
   <v>      -0.46666667       0.11111111       0.05555556 </v>
   <v>      -0.40000000       0.11111111       0.05555556 </v>
   <v>      -0.33333333       0.11111111       0.05555556 </v>
   <v>      -0.26666667       0.11111111       0.05555556 </v>
   <v>      -0.20000000       0.11111111       0.05555556 </v>
   <v>      -0.13333333       0.11111111       0.05555556 </v>
   <v>      -0.06666667       0.11111111       0.05555556 </v>
   <v>       0.00000000       0.16666667       0.05555556 </v>
   <v>       0.06666667       0.16666667       0.05555556 </v>
   <v>       0.13333333       0.16666667       0.05555556 </v>
   <v>       0.20000000       0.16666667       0.05555556 </v>
   <v>       0.26666667       0.16666667       0.05555556 </v>
   <v>       0.33333333       0.16666667       0.05555556 </v>
   <v>       0.40000000       0.16666667       0.05555556 </v>
   <v>       0.46666667       0.16666667       0.05555556 </v>
   <v>      -0.46666667       0.16666667       0.05555556 </v>
   <v>      -0.40000000       0.16666667       0.05555556 </v>
   <v>      -0.33333333       0.16666667       0.05555556 </v>
   <v>      -0.26666667       0.16666667       0.05555556 </v>
   <v>      -0.20000000       0.16666667       0.05555556 </v>
   <v>      -0.13333333       0.16666667       0.05555556 </v>
   <v>      -0.06666667       0.16666667       0.05555556 </v>
   <v>       0.00000000       0.22222222       0.05555556 </v>
   <v>       0.06666667       0.22222222       0.05555556 </v>
   <v>       0.13333333       0.22222222       0.05555556 </v>
   <v>       0.20000000       0.22222222       0.05555556 </v>
   <v>       0.26666667       0.22222222       0.05555556 </v>
   <v>       0.33333333       0.22222222       0.05555556 </v>
   <v>       0.40000000       0.22222222       0.05555556 </v>
   <v>       0.46666667       0.22222222       0.05555556 </v>
   <v>      -0.46666667       0.22222222       0.05555556 </v>
   <v>      -0.40000000       0.22222222       0.05555556 </v>
   <v>      -0.33333333       0.22222222       0.05555556 </v>
   <v>      -0.26666667       0.22222222       0.05555556 </v>
   <v>      -0.20000000       0.22222222       0.05555556 </v>
   <v>      -0.13333333       0.22222222       0.05555556 </v>
   <v>      -0.06666667       0.22222222       0.05555556 </v>
   <v>       0.00000000       0.27777778       0.05555556 </v>
   <v>       0.06666667       0.27777778       0.05555556 </v>
   <v>       0.13333333       0.27777778       0.05555556 </v>
   <v>       0.20000000       0.27777778       0.05555556 </v>
   <v>       0.26666667       0.27777778       0.05555556 </v>
   <v>       0.33333333       0.27777778       0.05555556 </v>
   <v>       0.40000000       0.27777778       0.05555556 </v>
   <v>       0.46666667       0.27777778       0.05555556 </v>
   <v>      -0.46666667       0.27777778       0.05555556 </v>
   <v>      -0.40000000       0.27777778       0.05555556 </v>
   <v>      -0.33333333       0.27777778       0.05555556 </v>
   <v>      -0.26666667       0.27777778       0.05555556 </v>
   <v>      -0.20000000       0.27777778       0.05555556 </v>
   <v>      -0.13333333       0.27777778       0.05555556 </v>
   <v>      -0.06666667       0.27777778       0.05555556 </v>
   <v>       0.00000000       0.33333333       0.05555556 </v>
   <v>       0.06666667       0.33333333       0.05555556 </v>
   <v>       0.13333333       0.33333333       0.05555556 </v>
   <v>       0.20000000       0.33333333       0.05555556 </v>
   <v>       0.26666667       0.33333333       0.05555556 </v>
   <v>       0.33333333       0.33333333       0.05555556 </v>
   <v>       0.40000000       0.33333333       0.05555556 </v>
   <v>       0.46666667       0.33333333       0.05555556 </v>
   <v>      -0.46666667       0.33333333       0.05555556 </v>
   <v>      -0.40000000       0.33333333       0.05555556 </v>
   <v>      -0.33333333       0.33333333       0.05555556 </v>
   <v>      -0.26666667       0.33333333       0.05555556 </v>
   <v>      -0.20000000       0.33333333       0.05555556 </v>
   <v>      -0.13333333       0.33333333       0.05555556 </v>
   <v>      -0.06666667       0.33333333       0.05555556 </v>
   <v>       0.00000000       0.38888889       0.05555556 </v>
   <v>       0.06666667       0.38888889       0.05555556 </v>
   <v>       0.13333333       0.38888889       0.05555556 </v>
   <v>       0.20000000       0.38888889       0.05555556 </v>
   <v>       0.26666667       0.38888889       0.05555556 </v>
   <v>       0.33333333       0.38888889       0.05555556 </v>
   <v>       0.40000000       0.38888889       0.05555556 </v>
   <v>       0.46666667       0.38888889       0.05555556 </v>
   <v>      -0.46666667       0.38888889       0.05555556 </v>
   <v>      -0.40000000       0.38888889       0.05555556 </v>
   <v>      -0.33333333       0.38888889       0.05555556 </v>
   <v>      -0.26666667       0.38888889       0.05555556 </v>
   <v>      -0.20000000       0.38888889       0.05555556 </v>
   <v>      -0.13333333       0.38888889       0.05555556 </v>
   <v>      -0.06666667       0.38888889       0.05555556 </v>
   <v>       0.00000000       0.44444444       0.05555556 </v>
   <v>       0.06666667       0.44444444       0.05555556 </v>
   <v>       0.13333333       0.44444444       0.05555556 </v>
   <v>       0.20000000       0.44444444       0.05555556 </v>
   <v>       0.26666667       0.44444444       0.05555556 </v>
   <v>       0.33333333       0.44444444       0.05555556 </v>
   <v>       0.40000000       0.44444444       0.05555556 </v>
   <v>       0.46666667       0.44444444       0.05555556 </v>
   <v>      -0.46666667       0.44444444       0.05555556 </v>
   <v>      -0.40000000       0.44444444       0.05555556 </v>
   <v>      -0.33333333       0.44444444       0.05555556 </v>
   <v>      -0.26666667       0.44444444       0.05555556 </v>
   <v>      -0.20000000       0.44444444       0.05555556 </v>
   <v>      -0.13333333       0.44444444       0.05555556 </v>
   <v>      -0.06666667       0.44444444       0.05555556 </v>
   <v>       0.00000000       0.50000000       0.05555556 </v>
   <v>       0.06666667       0.50000000       0.05555556 </v>
   <v>       0.13333333       0.50000000       0.05555556 </v>
   <v>       0.20000000       0.50000000       0.05555556 </v>
   <v>       0.26666667       0.50000000       0.05555556 </v>
   <v>       0.33333333       0.50000000       0.05555556 </v>
   <v>       0.40000000       0.50000000       0.05555556 </v>
   <v>       0.46666667       0.50000000       0.05555556 </v>
   <v>      -0.46666667       0.50000000       0.05555556 </v>
   <v>      -0.40000000       0.50000000       0.05555556 </v>
   <v>      -0.33333333       0.50000000       0.05555556 </v>
   <v>      -0.26666667       0.50000000       0.05555556 </v>
   <v>      -0.20000000       0.50000000       0.05555556 </v>
   <v>      -0.13333333       0.50000000       0.05555556 </v>
   <v>      -0.06666667       0.50000000       0.05555556 </v>
   <v>       0.00000000      -0.44444444       0.05555556 </v>
   <v>       0.06666667      -0.44444444       0.05555556 </v>
   <v>       0.13333333      -0.44444444       0.05555556 </v>
   <v>       0.20000000      -0.44444444       0.05555556 </v>
   <v>       0.26666667      -0.44444444       0.05555556 </v>
   <v>       0.33333333      -0.44444444       0.05555556 </v>
   <v>       0.40000000      -0.44444444       0.05555556 </v>
   <v>       0.46666667      -0.44444444       0.05555556 </v>
   <v>      -0.46666667      -0.44444444       0.05555556 </v>
   <v>      -0.40000000      -0.44444444       0.05555556 </v>
   <v>      -0.33333333      -0.44444444       0.05555556 </v>
   <v>      -0.26666667      -0.44444444       0.05555556 </v>
   <v>      -0.20000000      -0.44444444       0.05555556 </v>
   <v>      -0.13333333      -0.44444444       0.05555556 </v>
   <v>      -0.06666667      -0.44444444       0.05555556 </v>
   <v>       0.00000000      -0.38888889       0.05555556 </v>
   <v>       0.06666667      -0.38888889       0.05555556 </v>
   <v>       0.13333333      -0.38888889       0.05555556 </v>
   <v>       0.20000000      -0.38888889       0.05555556 </v>
   <v>       0.26666667      -0.38888889       0.05555556 </v>
   <v>       0.33333333      -0.38888889       0.05555556 </v>
   <v>       0.40000000      -0.38888889       0.05555556 </v>
   <v>       0.46666667      -0.38888889       0.05555556 </v>
   <v>      -0.46666667      -0.38888889       0.05555556 </v>
   <v>      -0.40000000      -0.38888889       0.05555556 </v>
   <v>      -0.33333333      -0.38888889       0.05555556 </v>
   <v>      -0.26666667      -0.38888889       0.05555556 </v>
   <v>      -0.20000000      -0.38888889       0.05555556 </v>
   <v>      -0.13333333      -0.38888889       0.05555556 </v>
   <v>      -0.06666667      -0.38888889       0.05555556 </v>
   <v>       0.00000000      -0.33333333       0.05555556 </v>
   <v>       0.06666667      -0.33333333       0.05555556 </v>
   <v>       0.13333333      -0.33333333       0.05555556 </v>
   <v>       0.20000000      -0.33333333       0.05555556 </v>
   <v>       0.26666667      -0.33333333       0.05555556 </v>
   <v>       0.33333333      -0.33333333       0.05555556 </v>
   <v>       0.40000000      -0.33333333       0.05555556 </v>
   <v>       0.46666667      -0.33333333       0.05555556 </v>
   <v>      -0.46666667      -0.33333333       0.05555556 </v>
   <v>      -0.40000000      -0.33333333       0.05555556 </v>
   <v>      -0.33333333      -0.33333333       0.05555556 </v>
   <v>      -0.26666667      -0.33333333       0.05555556 </v>
   <v>      -0.20000000      -0.33333333       0.05555556 </v>
   <v>      -0.13333333      -0.33333333       0.05555556 </v>
   <v>      -0.06666667      -0.33333333       0.05555556 </v>
   <v>       0.00000000      -0.27777778       0.05555556 </v>
   <v>       0.06666667      -0.27777778       0.05555556 </v>
   <v>       0.13333333      -0.27777778       0.05555556 </v>
   <v>       0.20000000      -0.27777778       0.05555556 </v>
   <v>       0.26666667      -0.27777778       0.05555556 </v>
   <v>       0.33333333      -0.27777778       0.05555556 </v>
   <v>       0.40000000      -0.27777778       0.05555556 </v>
   <v>       0.46666667      -0.27777778       0.05555556 </v>
   <v>      -0.46666667      -0.27777778       0.05555556 </v>
   <v>      -0.40000000      -0.27777778       0.05555556 </v>
   <v>      -0.33333333      -0.27777778       0.05555556 </v>
   <v>      -0.26666667      -0.27777778       0.05555556 </v>
   <v>      -0.20000000      -0.27777778       0.05555556 </v>
   <v>      -0.13333333      -0.27777778       0.05555556 </v>
   <v>      -0.06666667      -0.27777778       0.05555556 </v>
   <v>       0.00000000      -0.22222222       0.05555556 </v>
   <v>       0.06666667      -0.22222222       0.05555556 </v>
   <v>       0.13333333      -0.22222222       0.05555556 </v>
   <v>       0.20000000      -0.22222222       0.05555556 </v>
   <v>       0.26666667      -0.22222222       0.05555556 </v>
   <v>       0.33333333      -0.22222222       0.05555556 </v>
   <v>       0.40000000      -0.22222222       0.05555556 </v>
   <v>       0.46666667      -0.22222222       0.05555556 </v>
   <v>      -0.46666667      -0.22222222       0.05555556 </v>
   <v>      -0.40000000      -0.22222222       0.05555556 </v>
   <v>      -0.33333333      -0.22222222       0.05555556 </v>
   <v>      -0.26666667      -0.22222222       0.05555556 </v>
   <v>      -0.20000000      -0.22222222       0.05555556 </v>
   <v>      -0.13333333      -0.22222222       0.05555556 </v>
   <v>      -0.06666667      -0.22222222       0.05555556 </v>
   <v>       0.00000000      -0.16666667       0.05555556 </v>
   <v>       0.06666667      -0.16666667       0.05555556 </v>
   <v>       0.13333333      -0.16666667       0.05555556 </v>
   <v>       0.20000000      -0.16666667       0.05555556 </v>
   <v>       0.26666667      -0.16666667       0.05555556 </v>
   <v>       0.33333333      -0.16666667       0.05555556 </v>
   <v>       0.40000000      -0.16666667       0.05555556 </v>
   <v>       0.46666667      -0.16666667       0.05555556 </v>
   <v>      -0.46666667      -0.16666667       0.05555556 </v>
   <v>      -0.40000000      -0.16666667       0.05555556 </v>
   <v>      -0.33333333      -0.16666667       0.05555556 </v>
   <v>      -0.26666667      -0.16666667       0.05555556 </v>
   <v>      -0.20000000      -0.16666667       0.05555556 </v>
   <v>      -0.13333333      -0.16666667       0.05555556 </v>
   <v>      -0.06666667      -0.16666667       0.05555556 </v>
   <v>       0.00000000      -0.11111111       0.05555556 </v>
   <v>       0.06666667      -0.11111111       0.05555556 </v>
   <v>       0.13333333      -0.11111111       0.05555556 </v>
   <v>       0.20000000      -0.11111111       0.05555556 </v>
   <v>       0.26666667      -0.11111111       0.05555556 </v>
   <v>       0.33333333      -0.11111111       0.05555556 </v>
   <v>       0.40000000      -0.11111111       0.05555556 </v>
   <v>       0.46666667      -0.11111111       0.05555556 </v>
   <v>      -0.46666667      -0.11111111       0.05555556 </v>
   <v>      -0.40000000      -0.11111111       0.05555556 </v>
   <v>      -0.33333333      -0.11111111       0.05555556 </v>
   <v>      -0.26666667      -0.11111111       0.05555556 </v>
   <v>      -0.20000000      -0.11111111       0.05555556 </v>
   <v>      -0.13333333      -0.11111111       0.05555556 </v>
   <v>      -0.06666667      -0.11111111       0.05555556 </v>
   <v>       0.00000000      -0.05555556       0.05555556 </v>
   <v>       0.06666667      -0.05555556       0.05555556 </v>
   <v>       0.13333333      -0.05555556       0.05555556 </v>
   <v>       0.20000000      -0.05555556       0.05555556 </v>
   <v>       0.26666667      -0.05555556       0.05555556 </v>
   <v>       0.33333333      -0.05555556       0.05555556 </v>
   <v>       0.40000000      -0.05555556       0.05555556 </v>
   <v>       0.46666667      -0.05555556       0.05555556 </v>
   <v>       0.00000000       0.11111111       0.11111111 </v>
   <v>       0.06666667       0.11111111       0.11111111 </v>
   <v>       0.13333333       0.11111111       0.11111111 </v>
   <v>       0.20000000       0.11111111       0.11111111 </v>
   <v>       0.26666667       0.11111111       0.11111111 </v>
   <v>       0.33333333       0.11111111       0.11111111 </v>
   <v>       0.40000000       0.11111111       0.11111111 </v>
   <v>       0.46666667       0.11111111       0.11111111 </v>
   <v>      -0.46666667       0.11111111       0.11111111 </v>
   <v>      -0.40000000       0.11111111       0.11111111 </v>
   <v>      -0.33333333       0.11111111       0.11111111 </v>
   <v>      -0.26666667       0.11111111       0.11111111 </v>
   <v>      -0.20000000       0.11111111       0.11111111 </v>
   <v>      -0.13333333       0.11111111       0.11111111 </v>
   <v>      -0.06666667       0.11111111       0.11111111 </v>
   <v>       0.00000000       0.16666667       0.11111111 </v>
   <v>       0.06666667       0.16666667       0.11111111 </v>
   <v>       0.13333333       0.16666667       0.11111111 </v>
   <v>       0.20000000       0.16666667       0.11111111 </v>
   <v>       0.26666667       0.16666667       0.11111111 </v>
   <v>       0.33333333       0.16666667       0.11111111 </v>
   <v>       0.40000000       0.16666667       0.11111111 </v>
   <v>       0.46666667       0.16666667       0.11111111 </v>
   <v>      -0.46666667       0.16666667       0.11111111 </v>
   <v>      -0.40000000       0.16666667       0.11111111 </v>
   <v>      -0.33333333       0.16666667       0.11111111 </v>
   <v>      -0.26666667       0.16666667       0.11111111 </v>
   <v>      -0.20000000       0.16666667       0.11111111 </v>
   <v>      -0.13333333       0.16666667       0.11111111 </v>
   <v>      -0.06666667       0.16666667       0.11111111 </v>
   <v>       0.00000000       0.22222222       0.11111111 </v>
   <v>       0.06666667       0.22222222       0.11111111 </v>
   <v>       0.13333333       0.22222222       0.11111111 </v>
   <v>       0.20000000       0.22222222       0.11111111 </v>
   <v>       0.26666667       0.22222222       0.11111111 </v>
   <v>       0.33333333       0.22222222       0.11111111 </v>
   <v>       0.40000000       0.22222222       0.11111111 </v>
   <v>       0.46666667       0.22222222       0.11111111 </v>
   <v>      -0.46666667       0.22222222       0.11111111 </v>
   <v>      -0.40000000       0.22222222       0.11111111 </v>
   <v>      -0.33333333       0.22222222       0.11111111 </v>
   <v>      -0.26666667       0.22222222       0.11111111 </v>
   <v>      -0.20000000       0.22222222       0.11111111 </v>
   <v>      -0.13333333       0.22222222       0.11111111 </v>
   <v>      -0.06666667       0.22222222       0.11111111 </v>
   <v>       0.00000000       0.27777778       0.11111111 </v>
   <v>       0.06666667       0.27777778       0.11111111 </v>
   <v>       0.13333333       0.27777778       0.11111111 </v>
   <v>       0.20000000       0.27777778       0.11111111 </v>
   <v>       0.26666667       0.27777778       0.11111111 </v>
   <v>       0.33333333       0.27777778       0.11111111 </v>
   <v>       0.40000000       0.27777778       0.11111111 </v>
   <v>       0.46666667       0.27777778       0.11111111 </v>
   <v>      -0.46666667       0.27777778       0.11111111 </v>
   <v>      -0.40000000       0.27777778       0.11111111 </v>
   <v>      -0.33333333       0.27777778       0.11111111 </v>
   <v>      -0.26666667       0.27777778       0.11111111 </v>
   <v>      -0.20000000       0.27777778       0.11111111 </v>
   <v>      -0.13333333       0.27777778       0.11111111 </v>
   <v>      -0.06666667       0.27777778       0.11111111 </v>
   <v>       0.00000000       0.33333333       0.11111111 </v>
   <v>       0.06666667       0.33333333       0.11111111 </v>
   <v>       0.13333333       0.33333333       0.11111111 </v>
   <v>       0.20000000       0.33333333       0.11111111 </v>
   <v>       0.26666667       0.33333333       0.11111111 </v>
   <v>       0.33333333       0.33333333       0.11111111 </v>
   <v>       0.40000000       0.33333333       0.11111111 </v>
   <v>       0.46666667       0.33333333       0.11111111 </v>
   <v>      -0.46666667       0.33333333       0.11111111 </v>
   <v>      -0.40000000       0.33333333       0.11111111 </v>
   <v>      -0.33333333       0.33333333       0.11111111 </v>
   <v>      -0.26666667       0.33333333       0.11111111 </v>
   <v>      -0.20000000       0.33333333       0.11111111 </v>
   <v>      -0.13333333       0.33333333       0.11111111 </v>
   <v>      -0.06666667       0.33333333       0.11111111 </v>
   <v>       0.00000000       0.38888889       0.11111111 </v>
   <v>       0.06666667       0.38888889       0.11111111 </v>
   <v>       0.13333333       0.38888889       0.11111111 </v>
   <v>       0.20000000       0.38888889       0.11111111 </v>
   <v>       0.26666667       0.38888889       0.11111111 </v>
   <v>       0.33333333       0.38888889       0.11111111 </v>
   <v>       0.40000000       0.38888889       0.11111111 </v>
   <v>       0.46666667       0.38888889       0.11111111 </v>
   <v>      -0.46666667       0.38888889       0.11111111 </v>
   <v>      -0.40000000       0.38888889       0.11111111 </v>
   <v>      -0.33333333       0.38888889       0.11111111 </v>
   <v>      -0.26666667       0.38888889       0.11111111 </v>
   <v>      -0.20000000       0.38888889       0.11111111 </v>
   <v>      -0.13333333       0.38888889       0.11111111 </v>
   <v>      -0.06666667       0.38888889       0.11111111 </v>
   <v>       0.00000000       0.44444444       0.11111111 </v>
   <v>       0.06666667       0.44444444       0.11111111 </v>
   <v>       0.13333333       0.44444444       0.11111111 </v>
   <v>       0.20000000       0.44444444       0.11111111 </v>
   <v>       0.26666667       0.44444444       0.11111111 </v>
   <v>       0.33333333       0.44444444       0.11111111 </v>
   <v>       0.40000000       0.44444444       0.11111111 </v>
   <v>       0.46666667       0.44444444       0.11111111 </v>
   <v>      -0.46666667       0.44444444       0.11111111 </v>
   <v>      -0.40000000       0.44444444       0.11111111 </v>
   <v>      -0.33333333       0.44444444       0.11111111 </v>
   <v>      -0.26666667       0.44444444       0.11111111 </v>
   <v>      -0.20000000       0.44444444       0.11111111 </v>
   <v>      -0.13333333       0.44444444       0.11111111 </v>
   <v>      -0.06666667       0.44444444       0.11111111 </v>
   <v>       0.00000000       0.50000000       0.11111111 </v>
   <v>       0.06666667       0.50000000       0.11111111 </v>
   <v>       0.13333333       0.50000000       0.11111111 </v>
   <v>       0.20000000       0.50000000       0.11111111 </v>
   <v>       0.26666667       0.50000000       0.11111111 </v>
   <v>       0.33333333       0.50000000       0.11111111 </v>
   <v>       0.40000000       0.50000000       0.11111111 </v>
   <v>       0.46666667       0.50000000       0.11111111 </v>
   <v>      -0.46666667       0.50000000       0.11111111 </v>
   <v>      -0.40000000       0.50000000       0.11111111 </v>
   <v>      -0.33333333       0.50000000       0.11111111 </v>
   <v>      -0.26666667       0.50000000       0.11111111 </v>
   <v>      -0.20000000       0.50000000       0.11111111 </v>
   <v>      -0.13333333       0.50000000       0.11111111 </v>
   <v>      -0.06666667       0.50000000       0.11111111 </v>
   <v>       0.00000000      -0.44444444       0.11111111 </v>
   <v>       0.06666667      -0.44444444       0.11111111 </v>
   <v>       0.13333333      -0.44444444       0.11111111 </v>
   <v>       0.20000000      -0.44444444       0.11111111 </v>
   <v>       0.26666667      -0.44444444       0.11111111 </v>
   <v>       0.33333333      -0.44444444       0.11111111 </v>
   <v>       0.40000000      -0.44444444       0.11111111 </v>
   <v>       0.46666667      -0.44444444       0.11111111 </v>
   <v>      -0.46666667      -0.44444444       0.11111111 </v>
   <v>      -0.40000000      -0.44444444       0.11111111 </v>
   <v>      -0.33333333      -0.44444444       0.11111111 </v>
   <v>      -0.26666667      -0.44444444       0.11111111 </v>
   <v>      -0.20000000      -0.44444444       0.11111111 </v>
   <v>      -0.13333333      -0.44444444       0.11111111 </v>
   <v>      -0.06666667      -0.44444444       0.11111111 </v>
   <v>       0.00000000      -0.38888889       0.11111111 </v>
   <v>       0.06666667      -0.38888889       0.11111111 </v>
   <v>       0.13333333      -0.38888889       0.11111111 </v>
   <v>       0.20000000      -0.38888889       0.11111111 </v>
   <v>       0.26666667      -0.38888889       0.11111111 </v>
   <v>       0.33333333      -0.38888889       0.11111111 </v>
   <v>       0.40000000      -0.38888889       0.11111111 </v>
   <v>       0.46666667      -0.38888889       0.11111111 </v>
   <v>      -0.46666667      -0.38888889       0.11111111 </v>
   <v>      -0.40000000      -0.38888889       0.11111111 </v>
   <v>      -0.33333333      -0.38888889       0.11111111 </v>
   <v>      -0.26666667      -0.38888889       0.11111111 </v>
   <v>      -0.20000000      -0.38888889       0.11111111 </v>
   <v>      -0.13333333      -0.38888889       0.11111111 </v>
   <v>      -0.06666667      -0.38888889       0.11111111 </v>
   <v>       0.00000000      -0.33333333       0.11111111 </v>
   <v>       0.06666667      -0.33333333       0.11111111 </v>
   <v>       0.13333333      -0.33333333       0.11111111 </v>
   <v>       0.20000000      -0.33333333       0.11111111 </v>
   <v>       0.26666667      -0.33333333       0.11111111 </v>
   <v>       0.33333333      -0.33333333       0.11111111 </v>
   <v>       0.40000000      -0.33333333       0.11111111 </v>
   <v>       0.46666667      -0.33333333       0.11111111 </v>
   <v>      -0.46666667      -0.33333333       0.11111111 </v>
   <v>      -0.40000000      -0.33333333       0.11111111 </v>
   <v>      -0.33333333      -0.33333333       0.11111111 </v>
   <v>      -0.26666667      -0.33333333       0.11111111 </v>
   <v>      -0.20000000      -0.33333333       0.11111111 </v>
   <v>      -0.13333333      -0.33333333       0.11111111 </v>
   <v>      -0.06666667      -0.33333333       0.11111111 </v>
   <v>       0.00000000      -0.27777778       0.11111111 </v>
   <v>       0.06666667      -0.27777778       0.11111111 </v>
   <v>       0.13333333      -0.27777778       0.11111111 </v>
   <v>       0.20000000      -0.27777778       0.11111111 </v>
   <v>       0.26666667      -0.27777778       0.11111111 </v>
   <v>       0.33333333      -0.27777778       0.11111111 </v>
   <v>       0.40000000      -0.27777778       0.11111111 </v>
   <v>       0.46666667      -0.27777778       0.11111111 </v>
   <v>      -0.46666667      -0.27777778       0.11111111 </v>
   <v>      -0.40000000      -0.27777778       0.11111111 </v>
   <v>      -0.33333333      -0.27777778       0.11111111 </v>
   <v>      -0.26666667      -0.27777778       0.11111111 </v>
   <v>      -0.20000000      -0.27777778       0.11111111 </v>
   <v>      -0.13333333      -0.27777778       0.11111111 </v>
   <v>      -0.06666667      -0.27777778       0.11111111 </v>
   <v>       0.00000000      -0.22222222       0.11111111 </v>
   <v>       0.06666667      -0.22222222       0.11111111 </v>
   <v>       0.13333333      -0.22222222       0.11111111 </v>
   <v>       0.20000000      -0.22222222       0.11111111 </v>
   <v>       0.26666667      -0.22222222       0.11111111 </v>
   <v>       0.33333333      -0.22222222       0.11111111 </v>
   <v>       0.40000000      -0.22222222       0.11111111 </v>
   <v>       0.46666667      -0.22222222       0.11111111 </v>
   <v>      -0.46666667      -0.22222222       0.11111111 </v>
   <v>      -0.40000000      -0.22222222       0.11111111 </v>
   <v>      -0.33333333      -0.22222222       0.11111111 </v>
   <v>      -0.26666667      -0.22222222       0.11111111 </v>
   <v>      -0.20000000      -0.22222222       0.11111111 </v>
   <v>      -0.13333333      -0.22222222       0.11111111 </v>
   <v>      -0.06666667      -0.22222222       0.11111111 </v>
   <v>       0.00000000      -0.16666667       0.11111111 </v>
   <v>       0.06666667      -0.16666667       0.11111111 </v>
   <v>       0.13333333      -0.16666667       0.11111111 </v>
   <v>       0.20000000      -0.16666667       0.11111111 </v>
   <v>       0.26666667      -0.16666667       0.11111111 </v>
   <v>       0.33333333      -0.16666667       0.11111111 </v>
   <v>       0.40000000      -0.16666667       0.11111111 </v>
   <v>       0.46666667      -0.16666667       0.11111111 </v>
   <v>      -0.46666667      -0.16666667       0.11111111 </v>
   <v>      -0.40000000      -0.16666667       0.11111111 </v>
   <v>      -0.33333333      -0.16666667       0.11111111 </v>
   <v>      -0.26666667      -0.16666667       0.11111111 </v>
   <v>      -0.20000000      -0.16666667       0.11111111 </v>
   <v>      -0.13333333      -0.16666667       0.11111111 </v>
   <v>      -0.06666667      -0.16666667       0.11111111 </v>
   <v>       0.00000000      -0.11111111       0.11111111 </v>
   <v>       0.06666667      -0.11111111       0.11111111 </v>
   <v>       0.13333333      -0.11111111       0.11111111 </v>
   <v>       0.20000000      -0.11111111       0.11111111 </v>
   <v>       0.26666667      -0.11111111       0.11111111 </v>
   <v>       0.33333333      -0.11111111       0.11111111 </v>
   <v>       0.40000000      -0.11111111       0.11111111 </v>
   <v>       0.46666667      -0.11111111       0.11111111 </v>
   <v>       0.00000000       0.16666667       0.16666667 </v>
   <v>       0.06666667       0.16666667       0.16666667 </v>
   <v>       0.13333333       0.16666667       0.16666667 </v>
   <v>       0.20000000       0.16666667       0.16666667 </v>
   <v>       0.26666667       0.16666667       0.16666667 </v>
   <v>       0.33333333       0.16666667       0.16666667 </v>
   <v>       0.40000000       0.16666667       0.16666667 </v>
   <v>       0.46666667       0.16666667       0.16666667 </v>
   <v>      -0.46666667       0.16666667       0.16666667 </v>
   <v>      -0.40000000       0.16666667       0.16666667 </v>
   <v>      -0.33333333       0.16666667       0.16666667 </v>
   <v>      -0.26666667       0.16666667       0.16666667 </v>
   <v>      -0.20000000       0.16666667       0.16666667 </v>
   <v>      -0.13333333       0.16666667       0.16666667 </v>
   <v>      -0.06666667       0.16666667       0.16666667 </v>
   <v>       0.00000000       0.22222222       0.16666667 </v>
   <v>       0.06666667       0.22222222       0.16666667 </v>
   <v>       0.13333333       0.22222222       0.16666667 </v>
   <v>       0.20000000       0.22222222       0.16666667 </v>
   <v>       0.26666667       0.22222222       0.16666667 </v>
   <v>       0.33333333       0.22222222       0.16666667 </v>
   <v>       0.40000000       0.22222222       0.16666667 </v>
   <v>       0.46666667       0.22222222       0.16666667 </v>
   <v>      -0.46666667       0.22222222       0.16666667 </v>
   <v>      -0.40000000       0.22222222       0.16666667 </v>
   <v>      -0.33333333       0.22222222       0.16666667 </v>
   <v>      -0.26666667       0.22222222       0.16666667 </v>
   <v>      -0.20000000       0.22222222       0.16666667 </v>
   <v>      -0.13333333       0.22222222       0.16666667 </v>
   <v>      -0.06666667       0.22222222       0.16666667 </v>
   <v>       0.00000000       0.27777778       0.16666667 </v>
   <v>       0.06666667       0.27777778       0.16666667 </v>
   <v>       0.13333333       0.27777778       0.16666667 </v>
   <v>       0.20000000       0.27777778       0.16666667 </v>
   <v>       0.26666667       0.27777778       0.16666667 </v>
   <v>       0.33333333       0.27777778       0.16666667 </v>
   <v>       0.40000000       0.27777778       0.16666667 </v>
   <v>       0.46666667       0.27777778       0.16666667 </v>
   <v>      -0.46666667       0.27777778       0.16666667 </v>
   <v>      -0.40000000       0.27777778       0.16666667 </v>
   <v>      -0.33333333       0.27777778       0.16666667 </v>
   <v>      -0.26666667       0.27777778       0.16666667 </v>
   <v>      -0.20000000       0.27777778       0.16666667 </v>
   <v>      -0.13333333       0.27777778       0.16666667 </v>
   <v>      -0.06666667       0.27777778       0.16666667 </v>
   <v>       0.00000000       0.33333333       0.16666667 </v>
   <v>       0.06666667       0.33333333       0.16666667 </v>
   <v>       0.13333333       0.33333333       0.16666667 </v>
   <v>       0.20000000       0.33333333       0.16666667 </v>
   <v>       0.26666667       0.33333333       0.16666667 </v>
   <v>       0.33333333       0.33333333       0.16666667 </v>
   <v>       0.40000000       0.33333333       0.16666667 </v>
   <v>       0.46666667       0.33333333       0.16666667 </v>
   <v>      -0.46666667       0.33333333       0.16666667 </v>
   <v>      -0.40000000       0.33333333       0.16666667 </v>
   <v>      -0.33333333       0.33333333       0.16666667 </v>
   <v>      -0.26666667       0.33333333       0.16666667 </v>
   <v>      -0.20000000       0.33333333       0.16666667 </v>
   <v>      -0.13333333       0.33333333       0.16666667 </v>
   <v>      -0.06666667       0.33333333       0.16666667 </v>
   <v>       0.00000000       0.38888889       0.16666667 </v>
   <v>       0.06666667       0.38888889       0.16666667 </v>
   <v>       0.13333333       0.38888889       0.16666667 </v>
   <v>       0.20000000       0.38888889       0.16666667 </v>
   <v>       0.26666667       0.38888889       0.16666667 </v>
   <v>       0.33333333       0.38888889       0.16666667 </v>
   <v>       0.40000000       0.38888889       0.16666667 </v>
   <v>       0.46666667       0.38888889       0.16666667 </v>
   <v>      -0.46666667       0.38888889       0.16666667 </v>
   <v>      -0.40000000       0.38888889       0.16666667 </v>
   <v>      -0.33333333       0.38888889       0.16666667 </v>
   <v>      -0.26666667       0.38888889       0.16666667 </v>
   <v>      -0.20000000       0.38888889       0.16666667 </v>
   <v>      -0.13333333       0.38888889       0.16666667 </v>
   <v>      -0.06666667       0.38888889       0.16666667 </v>
   <v>       0.00000000       0.44444444       0.16666667 </v>
   <v>       0.06666667       0.44444444       0.16666667 </v>
   <v>       0.13333333       0.44444444       0.16666667 </v>
   <v>       0.20000000       0.44444444       0.16666667 </v>
   <v>       0.26666667       0.44444444       0.16666667 </v>
   <v>       0.33333333       0.44444444       0.16666667 </v>
   <v>       0.40000000       0.44444444       0.16666667 </v>
   <v>       0.46666667       0.44444444       0.16666667 </v>
   <v>      -0.46666667       0.44444444       0.16666667 </v>
   <v>      -0.40000000       0.44444444       0.16666667 </v>
   <v>      -0.33333333       0.44444444       0.16666667 </v>
   <v>      -0.26666667       0.44444444       0.16666667 </v>
   <v>      -0.20000000       0.44444444       0.16666667 </v>
   <v>      -0.13333333       0.44444444       0.16666667 </v>
   <v>      -0.06666667       0.44444444       0.16666667 </v>
   <v>       0.00000000       0.50000000       0.16666667 </v>
   <v>       0.06666667       0.50000000       0.16666667 </v>
   <v>       0.13333333       0.50000000       0.16666667 </v>
   <v>       0.20000000       0.50000000       0.16666667 </v>
   <v>       0.26666667       0.50000000       0.16666667 </v>
   <v>       0.33333333       0.50000000       0.16666667 </v>
   <v>       0.40000000       0.50000000       0.16666667 </v>
   <v>       0.46666667       0.50000000       0.16666667 </v>
   <v>      -0.46666667       0.50000000       0.16666667 </v>
   <v>      -0.40000000       0.50000000       0.16666667 </v>
   <v>      -0.33333333       0.50000000       0.16666667 </v>
   <v>      -0.26666667       0.50000000       0.16666667 </v>
   <v>      -0.20000000       0.50000000       0.16666667 </v>
   <v>      -0.13333333       0.50000000       0.16666667 </v>
   <v>      -0.06666667       0.50000000       0.16666667 </v>
   <v>       0.00000000      -0.44444444       0.16666667 </v>
   <v>       0.06666667      -0.44444444       0.16666667 </v>
   <v>       0.13333333      -0.44444444       0.16666667 </v>
   <v>       0.20000000      -0.44444444       0.16666667 </v>
   <v>       0.26666667      -0.44444444       0.16666667 </v>
   <v>       0.33333333      -0.44444444       0.16666667 </v>
   <v>       0.40000000      -0.44444444       0.16666667 </v>
   <v>       0.46666667      -0.44444444       0.16666667 </v>
   <v>      -0.46666667      -0.44444444       0.16666667 </v>
   <v>      -0.40000000      -0.44444444       0.16666667 </v>
   <v>      -0.33333333      -0.44444444       0.16666667 </v>
   <v>      -0.26666667      -0.44444444       0.16666667 </v>
   <v>      -0.20000000      -0.44444444       0.16666667 </v>
   <v>      -0.13333333      -0.44444444       0.16666667 </v>
   <v>      -0.06666667      -0.44444444       0.16666667 </v>
   <v>       0.00000000      -0.38888889       0.16666667 </v>
   <v>       0.06666667      -0.38888889       0.16666667 </v>
   <v>       0.13333333      -0.38888889       0.16666667 </v>
   <v>       0.20000000      -0.38888889       0.16666667 </v>
   <v>       0.26666667      -0.38888889       0.16666667 </v>
   <v>       0.33333333      -0.38888889       0.16666667 </v>
   <v>       0.40000000      -0.38888889       0.16666667 </v>
   <v>       0.46666667      -0.38888889       0.16666667 </v>
   <v>      -0.46666667      -0.38888889       0.16666667 </v>
   <v>      -0.40000000      -0.38888889       0.16666667 </v>
   <v>      -0.33333333      -0.38888889       0.16666667 </v>
   <v>      -0.26666667      -0.38888889       0.16666667 </v>
   <v>      -0.20000000      -0.38888889       0.16666667 </v>
   <v>      -0.13333333      -0.38888889       0.16666667 </v>
   <v>      -0.06666667      -0.38888889       0.16666667 </v>
   <v>       0.00000000      -0.33333333       0.16666667 </v>
   <v>       0.06666667      -0.33333333       0.16666667 </v>
   <v>       0.13333333      -0.33333333       0.16666667 </v>
   <v>       0.20000000      -0.33333333       0.16666667 </v>
   <v>       0.26666667      -0.33333333       0.16666667 </v>
   <v>       0.33333333      -0.33333333       0.16666667 </v>
   <v>       0.40000000      -0.33333333       0.16666667 </v>
   <v>       0.46666667      -0.33333333       0.16666667 </v>
   <v>      -0.46666667      -0.33333333       0.16666667 </v>
   <v>      -0.40000000      -0.33333333       0.16666667 </v>
   <v>      -0.33333333      -0.33333333       0.16666667 </v>
   <v>      -0.26666667      -0.33333333       0.16666667 </v>
   <v>      -0.20000000      -0.33333333       0.16666667 </v>
   <v>      -0.13333333      -0.33333333       0.16666667 </v>
   <v>      -0.06666667      -0.33333333       0.16666667 </v>
   <v>       0.00000000      -0.27777778       0.16666667 </v>
   <v>       0.06666667      -0.27777778       0.16666667 </v>
   <v>       0.13333333      -0.27777778       0.16666667 </v>
   <v>       0.20000000      -0.27777778       0.16666667 </v>
   <v>       0.26666667      -0.27777778       0.16666667 </v>
   <v>       0.33333333      -0.27777778       0.16666667 </v>
   <v>       0.40000000      -0.27777778       0.16666667 </v>
   <v>       0.46666667      -0.27777778       0.16666667 </v>
   <v>      -0.46666667      -0.27777778       0.16666667 </v>
   <v>      -0.40000000      -0.27777778       0.16666667 </v>
   <v>      -0.33333333      -0.27777778       0.16666667 </v>
   <v>      -0.26666667      -0.27777778       0.16666667 </v>
   <v>      -0.20000000      -0.27777778       0.16666667 </v>
   <v>      -0.13333333      -0.27777778       0.16666667 </v>
   <v>      -0.06666667      -0.27777778       0.16666667 </v>
   <v>       0.00000000      -0.22222222       0.16666667 </v>
   <v>       0.06666667      -0.22222222       0.16666667 </v>
   <v>       0.13333333      -0.22222222       0.16666667 </v>
   <v>       0.20000000      -0.22222222       0.16666667 </v>
   <v>       0.26666667      -0.22222222       0.16666667 </v>
   <v>       0.33333333      -0.22222222       0.16666667 </v>
   <v>       0.40000000      -0.22222222       0.16666667 </v>
   <v>       0.46666667      -0.22222222       0.16666667 </v>
   <v>      -0.46666667      -0.22222222       0.16666667 </v>
   <v>      -0.40000000      -0.22222222       0.16666667 </v>
   <v>      -0.33333333      -0.22222222       0.16666667 </v>
   <v>      -0.26666667      -0.22222222       0.16666667 </v>
   <v>      -0.20000000      -0.22222222       0.16666667 </v>
   <v>      -0.13333333      -0.22222222       0.16666667 </v>
   <v>      -0.06666667      -0.22222222       0.16666667 </v>
   <v>       0.00000000      -0.16666667       0.16666667 </v>
   <v>       0.06666667      -0.16666667       0.16666667 </v>
   <v>       0.13333333      -0.16666667       0.16666667 </v>
   <v>       0.20000000      -0.16666667       0.16666667 </v>
   <v>       0.26666667      -0.16666667       0.16666667 </v>
   <v>       0.33333333      -0.16666667       0.16666667 </v>
   <v>       0.40000000      -0.16666667       0.16666667 </v>
   <v>       0.46666667      -0.16666667       0.16666667 </v>
   <v>       0.00000000       0.22222222       0.22222222 </v>
   <v>       0.06666667       0.22222222       0.22222222 </v>
   <v>       0.13333333       0.22222222       0.22222222 </v>
   <v>       0.20000000       0.22222222       0.22222222 </v>
   <v>       0.26666667       0.22222222       0.22222222 </v>
   <v>       0.33333333       0.22222222       0.22222222 </v>
   <v>       0.40000000       0.22222222       0.22222222 </v>
   <v>       0.46666667       0.22222222       0.22222222 </v>
   <v>      -0.46666667       0.22222222       0.22222222 </v>
   <v>      -0.40000000       0.22222222       0.22222222 </v>
   <v>      -0.33333333       0.22222222       0.22222222 </v>
   <v>      -0.26666667       0.22222222       0.22222222 </v>
   <v>      -0.20000000       0.22222222       0.22222222 </v>
   <v>      -0.13333333       0.22222222       0.22222222 </v>
   <v>      -0.06666667       0.22222222       0.22222222 </v>
   <v>       0.00000000       0.27777778       0.22222222 </v>
   <v>       0.06666667       0.27777778       0.22222222 </v>
   <v>       0.13333333       0.27777778       0.22222222 </v>
   <v>       0.20000000       0.27777778       0.22222222 </v>
   <v>       0.26666667       0.27777778       0.22222222 </v>
   <v>       0.33333333       0.27777778       0.22222222 </v>
   <v>       0.40000000       0.27777778       0.22222222 </v>
   <v>       0.46666667       0.27777778       0.22222222 </v>
   <v>      -0.46666667       0.27777778       0.22222222 </v>
   <v>      -0.40000000       0.27777778       0.22222222 </v>
   <v>      -0.33333333       0.27777778       0.22222222 </v>
   <v>      -0.26666667       0.27777778       0.22222222 </v>
   <v>      -0.20000000       0.27777778       0.22222222 </v>
   <v>      -0.13333333       0.27777778       0.22222222 </v>
   <v>      -0.06666667       0.27777778       0.22222222 </v>
   <v>       0.00000000       0.33333333       0.22222222 </v>
   <v>       0.06666667       0.33333333       0.22222222 </v>
   <v>       0.13333333       0.33333333       0.22222222 </v>
   <v>       0.20000000       0.33333333       0.22222222 </v>
   <v>       0.26666667       0.33333333       0.22222222 </v>
   <v>       0.33333333       0.33333333       0.22222222 </v>
   <v>       0.40000000       0.33333333       0.22222222 </v>
   <v>       0.46666667       0.33333333       0.22222222 </v>
   <v>      -0.46666667       0.33333333       0.22222222 </v>
   <v>      -0.40000000       0.33333333       0.22222222 </v>
   <v>      -0.33333333       0.33333333       0.22222222 </v>
   <v>      -0.26666667       0.33333333       0.22222222 </v>
   <v>      -0.20000000       0.33333333       0.22222222 </v>
   <v>      -0.13333333       0.33333333       0.22222222 </v>
   <v>      -0.06666667       0.33333333       0.22222222 </v>
   <v>       0.00000000       0.38888889       0.22222222 </v>
   <v>       0.06666667       0.38888889       0.22222222 </v>
   <v>       0.13333333       0.38888889       0.22222222 </v>
   <v>       0.20000000       0.38888889       0.22222222 </v>
   <v>       0.26666667       0.38888889       0.22222222 </v>
   <v>       0.33333333       0.38888889       0.22222222 </v>
   <v>       0.40000000       0.38888889       0.22222222 </v>
   <v>       0.46666667       0.38888889       0.22222222 </v>
   <v>      -0.46666667       0.38888889       0.22222222 </v>
   <v>      -0.40000000       0.38888889       0.22222222 </v>
   <v>      -0.33333333       0.38888889       0.22222222 </v>
   <v>      -0.26666667       0.38888889       0.22222222 </v>
   <v>      -0.20000000       0.38888889       0.22222222 </v>
   <v>      -0.13333333       0.38888889       0.22222222 </v>
   <v>      -0.06666667       0.38888889       0.22222222 </v>
   <v>       0.00000000       0.44444444       0.22222222 </v>
   <v>       0.06666667       0.44444444       0.22222222 </v>
   <v>       0.13333333       0.44444444       0.22222222 </v>
   <v>       0.20000000       0.44444444       0.22222222 </v>
   <v>       0.26666667       0.44444444       0.22222222 </v>
   <v>       0.33333333       0.44444444       0.22222222 </v>
   <v>       0.40000000       0.44444444       0.22222222 </v>
   <v>       0.46666667       0.44444444       0.22222222 </v>
   <v>      -0.46666667       0.44444444       0.22222222 </v>
   <v>      -0.40000000       0.44444444       0.22222222 </v>
   <v>      -0.33333333       0.44444444       0.22222222 </v>
   <v>      -0.26666667       0.44444444       0.22222222 </v>
   <v>      -0.20000000       0.44444444       0.22222222 </v>
   <v>      -0.13333333       0.44444444       0.22222222 </v>
   <v>      -0.06666667       0.44444444       0.22222222 </v>
   <v>       0.00000000       0.50000000       0.22222222 </v>
   <v>       0.06666667       0.50000000       0.22222222 </v>
   <v>       0.13333333       0.50000000       0.22222222 </v>
   <v>       0.20000000       0.50000000       0.22222222 </v>
   <v>       0.26666667       0.50000000       0.22222222 </v>
   <v>       0.33333333       0.50000000       0.22222222 </v>
   <v>       0.40000000       0.50000000       0.22222222 </v>
   <v>       0.46666667       0.50000000       0.22222222 </v>
   <v>      -0.46666667       0.50000000       0.22222222 </v>
   <v>      -0.40000000       0.50000000       0.22222222 </v>
   <v>      -0.33333333       0.50000000       0.22222222 </v>
   <v>      -0.26666667       0.50000000       0.22222222 </v>
   <v>      -0.20000000       0.50000000       0.22222222 </v>
   <v>      -0.13333333       0.50000000       0.22222222 </v>
   <v>      -0.06666667       0.50000000       0.22222222 </v>
   <v>       0.00000000      -0.44444444       0.22222222 </v>
   <v>       0.06666667      -0.44444444       0.22222222 </v>
   <v>       0.13333333      -0.44444444       0.22222222 </v>
   <v>       0.20000000      -0.44444444       0.22222222 </v>
   <v>       0.26666667      -0.44444444       0.22222222 </v>
   <v>       0.33333333      -0.44444444       0.22222222 </v>
   <v>       0.40000000      -0.44444444       0.22222222 </v>
   <v>       0.46666667      -0.44444444       0.22222222 </v>
   <v>      -0.46666667      -0.44444444       0.22222222 </v>
   <v>      -0.40000000      -0.44444444       0.22222222 </v>
   <v>      -0.33333333      -0.44444444       0.22222222 </v>
   <v>      -0.26666667      -0.44444444       0.22222222 </v>
   <v>      -0.20000000      -0.44444444       0.22222222 </v>
   <v>      -0.13333333      -0.44444444       0.22222222 </v>
   <v>      -0.06666667      -0.44444444       0.22222222 </v>
   <v>       0.00000000      -0.38888889       0.22222222 </v>
   <v>       0.06666667      -0.38888889       0.22222222 </v>
   <v>       0.13333333      -0.38888889       0.22222222 </v>
   <v>       0.20000000      -0.38888889       0.22222222 </v>
   <v>       0.26666667      -0.38888889       0.22222222 </v>
   <v>       0.33333333      -0.38888889       0.22222222 </v>
   <v>       0.40000000      -0.38888889       0.22222222 </v>
   <v>       0.46666667      -0.38888889       0.22222222 </v>
   <v>      -0.46666667      -0.38888889       0.22222222 </v>
   <v>      -0.40000000      -0.38888889       0.22222222 </v>
   <v>      -0.33333333      -0.38888889       0.22222222 </v>
   <v>      -0.26666667      -0.38888889       0.22222222 </v>
   <v>      -0.20000000      -0.38888889       0.22222222 </v>
   <v>      -0.13333333      -0.38888889       0.22222222 </v>
   <v>      -0.06666667      -0.38888889       0.22222222 </v>
   <v>       0.00000000      -0.33333333       0.22222222 </v>
   <v>       0.06666667      -0.33333333       0.22222222 </v>
   <v>       0.13333333      -0.33333333       0.22222222 </v>
   <v>       0.20000000      -0.33333333       0.22222222 </v>
   <v>       0.26666667      -0.33333333       0.22222222 </v>
   <v>       0.33333333      -0.33333333       0.22222222 </v>
   <v>       0.40000000      -0.33333333       0.22222222 </v>
   <v>       0.46666667      -0.33333333       0.22222222 </v>
   <v>      -0.46666667      -0.33333333       0.22222222 </v>
   <v>      -0.40000000      -0.33333333       0.22222222 </v>
   <v>      -0.33333333      -0.33333333       0.22222222 </v>
   <v>      -0.26666667      -0.33333333       0.22222222 </v>
   <v>      -0.20000000      -0.33333333       0.22222222 </v>
   <v>      -0.13333333      -0.33333333       0.22222222 </v>
   <v>      -0.06666667      -0.33333333       0.22222222 </v>
   <v>       0.00000000      -0.27777778       0.22222222 </v>
   <v>       0.06666667      -0.27777778       0.22222222 </v>
   <v>       0.13333333      -0.27777778       0.22222222 </v>
   <v>       0.20000000      -0.27777778       0.22222222 </v>
   <v>       0.26666667      -0.27777778       0.22222222 </v>
   <v>       0.33333333      -0.27777778       0.22222222 </v>
   <v>       0.40000000      -0.27777778       0.22222222 </v>
   <v>       0.46666667      -0.27777778       0.22222222 </v>
   <v>      -0.46666667      -0.27777778       0.22222222 </v>
   <v>      -0.40000000      -0.27777778       0.22222222 </v>
   <v>      -0.33333333      -0.27777778       0.22222222 </v>
   <v>      -0.26666667      -0.27777778       0.22222222 </v>
   <v>      -0.20000000      -0.27777778       0.22222222 </v>
   <v>      -0.13333333      -0.27777778       0.22222222 </v>
   <v>      -0.06666667      -0.27777778       0.22222222 </v>
   <v>       0.00000000      -0.22222222       0.22222222 </v>
   <v>       0.06666667      -0.22222222       0.22222222 </v>
   <v>       0.13333333      -0.22222222       0.22222222 </v>
   <v>       0.20000000      -0.22222222       0.22222222 </v>
   <v>       0.26666667      -0.22222222       0.22222222 </v>
   <v>       0.33333333      -0.22222222       0.22222222 </v>
   <v>       0.40000000      -0.22222222       0.22222222 </v>
   <v>       0.46666667      -0.22222222       0.22222222 </v>
   <v>       0.00000000       0.27777778       0.27777778 </v>
   <v>       0.06666667       0.27777778       0.27777778 </v>
   <v>       0.13333333       0.27777778       0.27777778 </v>
   <v>       0.20000000       0.27777778       0.27777778 </v>
   <v>       0.26666667       0.27777778       0.27777778 </v>
   <v>       0.33333333       0.27777778       0.27777778 </v>
   <v>       0.40000000       0.27777778       0.27777778 </v>
   <v>       0.46666667       0.27777778       0.27777778 </v>
   <v>      -0.46666667       0.27777778       0.27777778 </v>
   <v>      -0.40000000       0.27777778       0.27777778 </v>
   <v>      -0.33333333       0.27777778       0.27777778 </v>
   <v>      -0.26666667       0.27777778       0.27777778 </v>
   <v>      -0.20000000       0.27777778       0.27777778 </v>
   <v>      -0.13333333       0.27777778       0.27777778 </v>
   <v>      -0.06666667       0.27777778       0.27777778 </v>
   <v>       0.00000000       0.33333333       0.27777778 </v>
   <v>       0.06666667       0.33333333       0.27777778 </v>
   <v>       0.13333333       0.33333333       0.27777778 </v>
   <v>       0.20000000       0.33333333       0.27777778 </v>
   <v>       0.26666667       0.33333333       0.27777778 </v>
   <v>       0.33333333       0.33333333       0.27777778 </v>
   <v>       0.40000000       0.33333333       0.27777778 </v>
   <v>       0.46666667       0.33333333       0.27777778 </v>
   <v>      -0.46666667       0.33333333       0.27777778 </v>
   <v>      -0.40000000       0.33333333       0.27777778 </v>
   <v>      -0.33333333       0.33333333       0.27777778 </v>
   <v>      -0.26666667       0.33333333       0.27777778 </v>
   <v>      -0.20000000       0.33333333       0.27777778 </v>
   <v>      -0.13333333       0.33333333       0.27777778 </v>
   <v>      -0.06666667       0.33333333       0.27777778 </v>
   <v>       0.00000000       0.38888889       0.27777778 </v>
   <v>       0.06666667       0.38888889       0.27777778 </v>
   <v>       0.13333333       0.38888889       0.27777778 </v>
   <v>       0.20000000       0.38888889       0.27777778 </v>
   <v>       0.26666667       0.38888889       0.27777778 </v>
   <v>       0.33333333       0.38888889       0.27777778 </v>
   <v>       0.40000000       0.38888889       0.27777778 </v>
   <v>       0.46666667       0.38888889       0.27777778 </v>
   <v>      -0.46666667       0.38888889       0.27777778 </v>
   <v>      -0.40000000       0.38888889       0.27777778 </v>
   <v>      -0.33333333       0.38888889       0.27777778 </v>
   <v>      -0.26666667       0.38888889       0.27777778 </v>
   <v>      -0.20000000       0.38888889       0.27777778 </v>
   <v>      -0.13333333       0.38888889       0.27777778 </v>
   <v>      -0.06666667       0.38888889       0.27777778 </v>
   <v>       0.00000000       0.44444444       0.27777778 </v>
   <v>       0.06666667       0.44444444       0.27777778 </v>
   <v>       0.13333333       0.44444444       0.27777778 </v>
   <v>       0.20000000       0.44444444       0.27777778 </v>
   <v>       0.26666667       0.44444444       0.27777778 </v>
   <v>       0.33333333       0.44444444       0.27777778 </v>
   <v>       0.40000000       0.44444444       0.27777778 </v>
   <v>       0.46666667       0.44444444       0.27777778 </v>
   <v>      -0.46666667       0.44444444       0.27777778 </v>
   <v>      -0.40000000       0.44444444       0.27777778 </v>
   <v>      -0.33333333       0.44444444       0.27777778 </v>
   <v>      -0.26666667       0.44444444       0.27777778 </v>
   <v>      -0.20000000       0.44444444       0.27777778 </v>
   <v>      -0.13333333       0.44444444       0.27777778 </v>
   <v>      -0.06666667       0.44444444       0.27777778 </v>
   <v>       0.00000000       0.50000000       0.27777778 </v>
   <v>       0.06666667       0.50000000       0.27777778 </v>
   <v>       0.13333333       0.50000000       0.27777778 </v>
   <v>       0.20000000       0.50000000       0.27777778 </v>
   <v>       0.26666667       0.50000000       0.27777778 </v>
   <v>       0.33333333       0.50000000       0.27777778 </v>
   <v>       0.40000000       0.50000000       0.27777778 </v>
   <v>       0.46666667       0.50000000       0.27777778 </v>
   <v>      -0.46666667       0.50000000       0.27777778 </v>
   <v>      -0.40000000       0.50000000       0.27777778 </v>
   <v>      -0.33333333       0.50000000       0.27777778 </v>
   <v>      -0.26666667       0.50000000       0.27777778 </v>
   <v>      -0.20000000       0.50000000       0.27777778 </v>
   <v>      -0.13333333       0.50000000       0.27777778 </v>
   <v>      -0.06666667       0.50000000       0.27777778 </v>
   <v>       0.00000000      -0.44444444       0.27777778 </v>
   <v>       0.06666667      -0.44444444       0.27777778 </v>
   <v>       0.13333333      -0.44444444       0.27777778 </v>
   <v>       0.20000000      -0.44444444       0.27777778 </v>
   <v>       0.26666667      -0.44444444       0.27777778 </v>
   <v>       0.33333333      -0.44444444       0.27777778 </v>
   <v>       0.40000000      -0.44444444       0.27777778 </v>
   <v>       0.46666667      -0.44444444       0.27777778 </v>
   <v>      -0.46666667      -0.44444444       0.27777778 </v>
   <v>      -0.40000000      -0.44444444       0.27777778 </v>
   <v>      -0.33333333      -0.44444444       0.27777778 </v>
   <v>      -0.26666667      -0.44444444       0.27777778 </v>
   <v>      -0.20000000      -0.44444444       0.27777778 </v>
   <v>      -0.13333333      -0.44444444       0.27777778 </v>
   <v>      -0.06666667      -0.44444444       0.27777778 </v>
   <v>       0.00000000      -0.38888889       0.27777778 </v>
   <v>       0.06666667      -0.38888889       0.27777778 </v>
   <v>       0.13333333      -0.38888889       0.27777778 </v>
   <v>       0.20000000      -0.38888889       0.27777778 </v>
   <v>       0.26666667      -0.38888889       0.27777778 </v>
   <v>       0.33333333      -0.38888889       0.27777778 </v>
   <v>       0.40000000      -0.38888889       0.27777778 </v>
   <v>       0.46666667      -0.38888889       0.27777778 </v>
   <v>      -0.46666667      -0.38888889       0.27777778 </v>
   <v>      -0.40000000      -0.38888889       0.27777778 </v>
   <v>      -0.33333333      -0.38888889       0.27777778 </v>
   <v>      -0.26666667      -0.38888889       0.27777778 </v>
   <v>      -0.20000000      -0.38888889       0.27777778 </v>
   <v>      -0.13333333      -0.38888889       0.27777778 </v>
   <v>      -0.06666667      -0.38888889       0.27777778 </v>
   <v>       0.00000000      -0.33333333       0.27777778 </v>
   <v>       0.06666667      -0.33333333       0.27777778 </v>
   <v>       0.13333333      -0.33333333       0.27777778 </v>
   <v>       0.20000000      -0.33333333       0.27777778 </v>
   <v>       0.26666667      -0.33333333       0.27777778 </v>
   <v>       0.33333333      -0.33333333       0.27777778 </v>
   <v>       0.40000000      -0.33333333       0.27777778 </v>
   <v>       0.46666667      -0.33333333       0.27777778 </v>
   <v>      -0.46666667      -0.33333333       0.27777778 </v>
   <v>      -0.40000000      -0.33333333       0.27777778 </v>
   <v>      -0.33333333      -0.33333333       0.27777778 </v>
   <v>      -0.26666667      -0.33333333       0.27777778 </v>
   <v>      -0.20000000      -0.33333333       0.27777778 </v>
   <v>      -0.13333333      -0.33333333       0.27777778 </v>
   <v>      -0.06666667      -0.33333333       0.27777778 </v>
   <v>       0.00000000      -0.27777778       0.27777778 </v>
   <v>       0.06666667      -0.27777778       0.27777778 </v>
   <v>       0.13333333      -0.27777778       0.27777778 </v>
   <v>       0.20000000      -0.27777778       0.27777778 </v>
   <v>       0.26666667      -0.27777778       0.27777778 </v>
   <v>       0.33333333      -0.27777778       0.27777778 </v>
   <v>       0.40000000      -0.27777778       0.27777778 </v>
   <v>       0.46666667      -0.27777778       0.27777778 </v>
   <v>       0.00000000       0.33333333       0.33333333 </v>
   <v>       0.06666667       0.33333333       0.33333333 </v>
   <v>       0.13333333       0.33333333       0.33333333 </v>
   <v>       0.20000000       0.33333333       0.33333333 </v>
   <v>       0.26666667       0.33333333       0.33333333 </v>
   <v>       0.33333333       0.33333333       0.33333333 </v>
   <v>       0.40000000       0.33333333       0.33333333 </v>
   <v>       0.46666667       0.33333333       0.33333333 </v>
   <v>      -0.46666667       0.33333333       0.33333333 </v>
   <v>      -0.40000000       0.33333333       0.33333333 </v>
   <v>      -0.33333333       0.33333333       0.33333333 </v>
   <v>      -0.26666667       0.33333333       0.33333333 </v>
   <v>      -0.20000000       0.33333333       0.33333333 </v>
   <v>      -0.13333333       0.33333333       0.33333333 </v>
   <v>      -0.06666667       0.33333333       0.33333333 </v>
   <v>       0.00000000       0.38888889       0.33333333 </v>
   <v>       0.06666667       0.38888889       0.33333333 </v>
   <v>       0.13333333       0.38888889       0.33333333 </v>
   <v>       0.20000000       0.38888889       0.33333333 </v>
   <v>       0.26666667       0.38888889       0.33333333 </v>
   <v>       0.33333333       0.38888889       0.33333333 </v>
   <v>       0.40000000       0.38888889       0.33333333 </v>
   <v>       0.46666667       0.38888889       0.33333333 </v>
   <v>      -0.46666667       0.38888889       0.33333333 </v>
   <v>      -0.40000000       0.38888889       0.33333333 </v>
   <v>      -0.33333333       0.38888889       0.33333333 </v>
   <v>      -0.26666667       0.38888889       0.33333333 </v>
   <v>      -0.20000000       0.38888889       0.33333333 </v>
   <v>      -0.13333333       0.38888889       0.33333333 </v>
   <v>      -0.06666667       0.38888889       0.33333333 </v>
   <v>       0.00000000       0.44444444       0.33333333 </v>
   <v>       0.06666667       0.44444444       0.33333333 </v>
   <v>       0.13333333       0.44444444       0.33333333 </v>
   <v>       0.20000000       0.44444444       0.33333333 </v>
   <v>       0.26666667       0.44444444       0.33333333 </v>
   <v>       0.33333333       0.44444444       0.33333333 </v>
   <v>       0.40000000       0.44444444       0.33333333 </v>
   <v>       0.46666667       0.44444444       0.33333333 </v>
   <v>      -0.46666667       0.44444444       0.33333333 </v>
   <v>      -0.40000000       0.44444444       0.33333333 </v>
   <v>      -0.33333333       0.44444444       0.33333333 </v>
   <v>      -0.26666667       0.44444444       0.33333333 </v>
   <v>      -0.20000000       0.44444444       0.33333333 </v>
   <v>      -0.13333333       0.44444444       0.33333333 </v>
   <v>      -0.06666667       0.44444444       0.33333333 </v>
   <v>       0.00000000       0.50000000       0.33333333 </v>
   <v>       0.06666667       0.50000000       0.33333333 </v>
   <v>       0.13333333       0.50000000       0.33333333 </v>
   <v>       0.20000000       0.50000000       0.33333333 </v>
   <v>       0.26666667       0.50000000       0.33333333 </v>
   <v>       0.33333333       0.50000000       0.33333333 </v>
   <v>       0.40000000       0.50000000       0.33333333 </v>
   <v>       0.46666667       0.50000000       0.33333333 </v>
   <v>      -0.46666667       0.50000000       0.33333333 </v>
   <v>      -0.40000000       0.50000000       0.33333333 </v>
   <v>      -0.33333333       0.50000000       0.33333333 </v>
   <v>      -0.26666667       0.50000000       0.33333333 </v>
   <v>      -0.20000000       0.50000000       0.33333333 </v>
   <v>      -0.13333333       0.50000000       0.33333333 </v>
   <v>      -0.06666667       0.50000000       0.33333333 </v>
   <v>       0.00000000      -0.44444444       0.33333333 </v>
   <v>       0.06666667      -0.44444444       0.33333333 </v>
   <v>       0.13333333      -0.44444444       0.33333333 </v>
   <v>       0.20000000      -0.44444444       0.33333333 </v>
   <v>       0.26666667      -0.44444444       0.33333333 </v>
   <v>       0.33333333      -0.44444444       0.33333333 </v>
   <v>       0.40000000      -0.44444444       0.33333333 </v>
   <v>       0.46666667      -0.44444444       0.33333333 </v>
   <v>      -0.46666667      -0.44444444       0.33333333 </v>
   <v>      -0.40000000      -0.44444444       0.33333333 </v>
   <v>      -0.33333333      -0.44444444       0.33333333 </v>
   <v>      -0.26666667      -0.44444444       0.33333333 </v>
   <v>      -0.20000000      -0.44444444       0.33333333 </v>
   <v>      -0.13333333      -0.44444444       0.33333333 </v>
   <v>      -0.06666667      -0.44444444       0.33333333 </v>
   <v>       0.00000000      -0.38888889       0.33333333 </v>
   <v>       0.06666667      -0.38888889       0.33333333 </v>
   <v>       0.13333333      -0.38888889       0.33333333 </v>
   <v>       0.20000000      -0.38888889       0.33333333 </v>
   <v>       0.26666667      -0.38888889       0.33333333 </v>
   <v>       0.33333333      -0.38888889       0.33333333 </v>
   <v>       0.40000000      -0.38888889       0.33333333 </v>
   <v>       0.46666667      -0.38888889       0.33333333 </v>
   <v>      -0.46666667      -0.38888889       0.33333333 </v>
   <v>      -0.40000000      -0.38888889       0.33333333 </v>
   <v>      -0.33333333      -0.38888889       0.33333333 </v>
   <v>      -0.26666667      -0.38888889       0.33333333 </v>
   <v>      -0.20000000      -0.38888889       0.33333333 </v>
   <v>      -0.13333333      -0.38888889       0.33333333 </v>
   <v>      -0.06666667      -0.38888889       0.33333333 </v>
   <v>       0.00000000      -0.33333333       0.33333333 </v>
   <v>       0.06666667      -0.33333333       0.33333333 </v>
   <v>       0.13333333      -0.33333333       0.33333333 </v>
   <v>       0.20000000      -0.33333333       0.33333333 </v>
   <v>       0.26666667      -0.33333333       0.33333333 </v>
   <v>       0.33333333      -0.33333333       0.33333333 </v>
   <v>       0.40000000      -0.33333333       0.33333333 </v>
   <v>       0.46666667      -0.33333333       0.33333333 </v>
   <v>       0.00000000       0.38888889       0.38888889 </v>
   <v>       0.06666667       0.38888889       0.38888889 </v>
   <v>       0.13333333       0.38888889       0.38888889 </v>
   <v>       0.20000000       0.38888889       0.38888889 </v>
   <v>       0.26666667       0.38888889       0.38888889 </v>
   <v>       0.33333333       0.38888889       0.38888889 </v>
   <v>       0.40000000       0.38888889       0.38888889 </v>
   <v>       0.46666667       0.38888889       0.38888889 </v>
   <v>      -0.46666667       0.38888889       0.38888889 </v>
   <v>      -0.40000000       0.38888889       0.38888889 </v>
   <v>      -0.33333333       0.38888889       0.38888889 </v>
   <v>      -0.26666667       0.38888889       0.38888889 </v>
   <v>      -0.20000000       0.38888889       0.38888889 </v>
   <v>      -0.13333333       0.38888889       0.38888889 </v>
   <v>      -0.06666667       0.38888889       0.38888889 </v>
   <v>       0.00000000       0.44444444       0.38888889 </v>
   <v>       0.06666667       0.44444444       0.38888889 </v>
   <v>       0.13333333       0.44444444       0.38888889 </v>
   <v>       0.20000000       0.44444444       0.38888889 </v>
   <v>       0.26666667       0.44444444       0.38888889 </v>
   <v>       0.33333333       0.44444444       0.38888889 </v>
   <v>       0.40000000       0.44444444       0.38888889 </v>
   <v>       0.46666667       0.44444444       0.38888889 </v>
   <v>      -0.46666667       0.44444444       0.38888889 </v>
   <v>      -0.40000000       0.44444444       0.38888889 </v>
   <v>      -0.33333333       0.44444444       0.38888889 </v>
   <v>      -0.26666667       0.44444444       0.38888889 </v>
   <v>      -0.20000000       0.44444444       0.38888889 </v>
   <v>      -0.13333333       0.44444444       0.38888889 </v>
   <v>      -0.06666667       0.44444444       0.38888889 </v>
   <v>       0.00000000       0.50000000       0.38888889 </v>
   <v>       0.06666667       0.50000000       0.38888889 </v>
   <v>       0.13333333       0.50000000       0.38888889 </v>
   <v>       0.20000000       0.50000000       0.38888889 </v>
   <v>       0.26666667       0.50000000       0.38888889 </v>
   <v>       0.33333333       0.50000000       0.38888889 </v>
   <v>       0.40000000       0.50000000       0.38888889 </v>
   <v>       0.46666667       0.50000000       0.38888889 </v>
   <v>      -0.46666667       0.50000000       0.38888889 </v>
   <v>      -0.40000000       0.50000000       0.38888889 </v>
   <v>      -0.33333333       0.50000000       0.38888889 </v>
   <v>      -0.26666667       0.50000000       0.38888889 </v>
   <v>      -0.20000000       0.50000000       0.38888889 </v>
   <v>      -0.13333333       0.50000000       0.38888889 </v>
   <v>      -0.06666667       0.50000000       0.38888889 </v>
   <v>       0.00000000      -0.44444444       0.38888889 </v>
   <v>       0.06666667      -0.44444444       0.38888889 </v>
   <v>       0.13333333      -0.44444444       0.38888889 </v>
   <v>       0.20000000      -0.44444444       0.38888889 </v>
   <v>       0.26666667      -0.44444444       0.38888889 </v>
   <v>       0.33333333      -0.44444444       0.38888889 </v>
   <v>       0.40000000      -0.44444444       0.38888889 </v>
   <v>       0.46666667      -0.44444444       0.38888889 </v>
   <v>      -0.46666667      -0.44444444       0.38888889 </v>
   <v>      -0.40000000      -0.44444444       0.38888889 </v>
   <v>      -0.33333333      -0.44444444       0.38888889 </v>
   <v>      -0.26666667      -0.44444444       0.38888889 </v>
   <v>      -0.20000000      -0.44444444       0.38888889 </v>
   <v>      -0.13333333      -0.44444444       0.38888889 </v>
   <v>      -0.06666667      -0.44444444       0.38888889 </v>
   <v>       0.00000000      -0.38888889       0.38888889 </v>
   <v>       0.06666667      -0.38888889       0.38888889 </v>
   <v>       0.13333333      -0.38888889       0.38888889 </v>
   <v>       0.20000000      -0.38888889       0.38888889 </v>
   <v>       0.26666667      -0.38888889       0.38888889 </v>
   <v>       0.33333333      -0.38888889       0.38888889 </v>
   <v>       0.40000000      -0.38888889       0.38888889 </v>
   <v>       0.46666667      -0.38888889       0.38888889 </v>
[...]
       <r>    5.3853    1.0000 </r>
       <r>    5.5249    1.0000 </r>
       <r>    5.5955    1.0000 </r>
       <r>    5.7256    1.0000 </r>
       <r>    5.8206    1.0000 </r>
       <r>    5.8798    1.0000 </r>
       <r>    5.9034    1.0000 </r>
       <r>    5.9384    1.0000 </r>
       <r>    5.9972    1.0000 </r>
       <r>    6.0341    1.0000 </r>
       <r>    6.2956    1.0000 </r>
       <r>    7.5677    1.0160 </r>
       <r>    7.8157    0.5857 </r>
       <r>    8.4935   -0.0046 </r>
       <r>    9.3154    0.0000 </r>
       <r>   12.2677    0.0000 </r>
       <r>   15.4082    0.0000 </r>
       <r>   15.5936    0.0000 </r>
       <r>   14.0373    0.0000 </r>
      </set>
      <set comment="kpoint 1287">
       <r>    1.5424    1.0000 </r>
       <r>    1.8775    1.0000 </r>
       <r>    2.0454    1.0000 </r>
       <r>    2.2263    1.0000 </r>
       <r>    2.3192    1.0000 </r>
       <r>    2.4392    1.0000 </r>
       <r>    2.5099    1.0000 </r>
       <r>    2.5909    1.0000 </r>
       <r>    2.9961    1.0000 </r>
       <r>    3.0367    1.0000 </r>
       <r>    3.1498    1.0000 </r>
       <r>    3.3905    1.0000 </r>
       <r>    3.5965    1.0000 </r>
       <r>    3.7851    1.0000 </r>
       <r>    3.9062    1.0000 </r>
       <r>    4.3160    1.0000 </r>
       <r>    4.3678    1.0000 </r>
       <r>    4.6533    1.0000 </r>
       <r>    4.9155    1.0000 </r>
       <r>    5.1365    1.0000 </r>
       <r>    5.2568    1.0000 </r>
       <r>    5.3598    1.0000 </r>
       <r>    5.4986    1.0000 </r>
       <r>    5.5478    1.0000 </r>
       <r>    5.7500    1.0000 </r>
       <r>    5.7742    1.0000 </r>
       <r>    5.8814    1.0000 </r>
       <r>    5.9054    1.0000 </r>
       <r>    6.0187    1.0000 </r>
       <r>    6.0284    1.0000 </r>
       <r>    6.1813    1.0000 </r>
       <r>    6.2943    1.0000 </r>
       <r>    7.0749    1.0008 </r>
       <r>    7.2726    1.0105 </r>
       <r>    8.7137   -0.0002 </r>
       <r>    9.1951    0.0000 </r>
       <r>   12.7452    0.0000 </r>
       <r>   14.6885    0.0000 </r>
       <r>   14.1072    0.0000 </r>
       <r>   13.9709    0.0000 </r>
      </set>
      <set comment="kpoint 1288">
       <r>    1.6330    1.0000 </r>
       <r>    1.8599    1.0000 </r>
       <r>    2.1343    1.0000 </r>
       <r>    2.2784    1.0000 </r>
       <r>    2.3661    1.0000 </r>
       <r>    2.4764    1.0000 </r>
       <r>    2.5416    1.0000 </r>
       <r>    2.6732    1.0000 </r>
       <r>    2.9550    1.0000 </r>
       <r>    3.0029    1.0000 </r>
       <r>    3.1255    1.0000 </r>
       <r>    3.2825    1.0000 </r>
       <r>    3.4829    1.0000 </r>
       <r>    3.7712    1.0000 </r>
       <r>    3.8946    1.0000 </r>
       <r>    4.3031    1.0000 </r>
       <r>    4.4380    1.0000 </r>
       <r>    4.6035    1.0000 </r>
       <r>    4.9038    1.0000 </r>
       <r>    5.1607    1.0000 </r>
       <r>    5.2088    1.0000 </r>
       <r>    5.3522    1.0000 </r>
       <r>    5.4942    1.0000 </r>
       <r>    5.5325    1.0000 </r>
       <r>    5.6836    1.0000 </r>
       <r>    5.7978    1.0000 </r>
       <r>    5.8668    1.0000 </r>
       <r>    5.8968    1.0000 </r>
       <r>    6.0129    1.0000 </r>
       <r>    6.2420    1.0000 </r>
       <r>    6.2936    1.0000 </r>
       <r>    6.4429    1.0000 </r>
       <r>    6.6859    1.0000 </r>
       <r>    6.8366    1.0000 </r>
       <r>    8.8937    0.0000 </r>
       <r>    9.0681    0.0000 </r>
       <r>   13.2956    0.0000 </r>
       <r>   14.0067    0.0000 </r>
       <r>   14.1398    0.0000 </r>
       <r>   14.1559    0.0000 </r>
      </set>
     </set>
    </set>
   </array>
  </eigenvalues>
  <separator name="orbital magnetization" >
   <v name="MAGDIPOLOUT">      0.00000000      0.00000000      0.00000000</v>
  </separator>
  <dos>
   <i name="efermi">      7.84621700 </i>
   <total>
    <array>
     <dimension dim="1">gridpoints</dimension>
     <dimension dim="2">spin</dimension>
     <field>energy</field>
     <field>total</field>
     <field>integrated</field>
     <set>
      <set comment="spin 1">
       <r>    -3.8155     0.0000     0.0000 </r>
       <r>    -3.7386     0.0000     0.0000 </r>
       <r>    -3.6617     0.0000     0.0000 </r>
       <r>    -3.5848     0.0000     0.0000 </r>
       <r>    -3.5078     0.0000     0.0000 </r>
       <r>    -3.4309     0.0000     0.0000 </r>
       <r>    -3.3540     0.0000     0.0000 </r>
       <r>    -3.2771     0.0000     0.0000 </r>
       <r>    -3.2002     0.0000     0.0000 </r>
       <r>    -3.1233     0.0000     0.0000 </r>
       <r>    -3.0464     0.0000     0.0000 </r>
       <r>    -2.9695     0.0000     0.0000 </r>
       <r>    -2.8926     0.0000     0.0000 </r>
       <r>    -2.8157     0.0000     0.0000 </r>
       <r>    -2.7388     0.0000     0.0000 </r>
       <r>    -2.6619     0.0000     0.0000 </r>
       <r>    -2.5850     0.0000     0.0000 </r>
       <r>    -2.5081     0.0000     0.0000 </r>
       <r>    -2.4311     0.0000     0.0000 </r>
       <r>    -2.3542     0.0000     0.0000 </r>
       <r>    -2.2773     0.0000     0.0000 </r>
       <r>    -2.2004     0.0000     0.0000 </r>
       <r>    -2.1235     0.0000     0.0000 </r>
       <r>    -2.0466     0.0000     0.0000 </r>
       <r>    -1.9697     0.0000     0.0000 </r>
       <r>    -1.8928     0.0000     0.0000 </r>
       <r>    -1.8159     0.0000     0.0000 </r>
       <r>    -1.7390     0.0000     0.0000 </r>
       <r>    -1.6621     0.0000     0.0000 </r>
       <r>    -1.5852    -0.0001     0.0000 </r>
       <r>    -1.5083    -0.0002     0.0000 </r>
       <r>    -1.4314    -0.0005    -0.0001 </r>
       <r>    -1.3544    -0.0014    -0.0002 </r>
       <r>    -1.2775    -0.0030    -0.0004 </r>
       <r>    -1.2006    -0.0054    -0.0008 </r>
       <r>    -1.1237    -0.0076    -0.0014 </r>
       <r>    -1.0468    -0.0072    -0.0019 </r>
       <r>    -0.9699    -0.0001    -0.0020 </r>
       <r>    -0.8930     0.0185    -0.0005 </r>
       <r>    -0.8161     0.0513     0.0034 </r>
       <r>    -0.7392     0.0976     0.0109 </r>
       <r>    -0.6623     0.1525     0.0226 </r>
       <r>    -0.5854     0.2093     0.0387 </r>
       <r>    -0.5085     0.2627     0.0589 </r>
       <r>    -0.4316     0.3099     0.0828 </r>
       <r>    -0.3547     0.3511     0.1098 </r>
       <r>    -0.2777     0.3879     0.1396 </r>
       <r>    -0.2008     0.4223     0.1721 </r>
       <r>    -0.1239     0.4558     0.2071 </r>
       <r>    -0.0470     0.4891     0.2448 </r>
       <r>     0.0299     0.5227     0.2850 </r>
       <r>     0.1068     0.5568     0.3278 </r>
       <r>     0.1837     0.5917     0.3733 </r>
       <r>     0.2606     0.6281     0.4216 </r>
       <r>     0.3375     0.6665     0.4729 </r>
       <r>     0.4144     0.7076     0.5273 </r>
       <r>     0.4913     0.7529     0.5852 </r>
       <r>     0.5682     0.8054     0.6471 </r>
       <r>     0.6451     0.8696     0.7140 </r>
       <r>     0.7220     0.9508     0.7871 </r>
       <r>     0.7990     1.0541     0.8682 </r>
       <r>     0.8759     1.1818     0.9591 </r>
       <r>     0.9528     1.3276     1.0612 </r>
       <r>     1.0297     1.4722     1.1744 </r>
       <r>     1.1066     1.5881     1.2965 </r>
       <r>     1.1835     1.6652     1.4246 </r>
       <r>     1.2604     1.7476     1.5590 </r>
       <r>     1.3373     1.9484     1.7089 </r>
       <r>     1.4142     2.4098     1.8942 </r>
       <r>     1.4911     3.2132     2.1413 </r>
       <r>     1.5680     4.3001     2.4720 </r>
       <r>     1.6449     5.4793     2.8934 </r>
       <r>     1.7218     6.5360     3.3961 </r>
       <r>     1.7987     7.3735     3.9632 </r>
       <r>     1.8756     8.0821     4.5847 </r>
       <r>     1.9526     8.8808     5.2677 </r>
       <r>     2.0295     9.9735     6.0348 </r>
       <r>     2.1064    11.4122     6.9124 </r>
       <r>     2.1833    13.0399     7.9153 </r>
       <r>     2.2602    14.5243     9.0323 </r>
       <r>     2.3371    15.4594    10.2213 </r>
       <r>     2.4140    15.5137    11.4144 </r>
       <r>     2.4909    14.5858    12.5361 </r>
       <r>     2.5678    12.8959    13.5279 </r>
       <r>     2.6447    10.9370    14.3690 </r>
       <r>     2.7216     9.2801    15.0827 </r>
       <r>     2.7985     8.3265    15.7231 </r>
       <r>     2.8754     8.1499    16.3499 </r>
       <r>     2.9523     8.5229    17.0054 </r>
       <r>     3.0293     9.1076    17.7058 </r>
       <r>     3.1062     9.6696    18.4495 </r>
       <r>     3.1831    10.1636    19.2311 </r>
       <r>     3.2600    10.6517    20.0503 </r>
       <r>     3.3369    11.1604    20.9086 </r>
       <r>     3.4138    11.6168    21.8020 </r>
       <r>     3.4907    11.9059    22.7177 </r>
       <r>     3.5676    11.9689    23.6382 </r>
       <r>     3.6445    11.8427    24.5490 </r>
       <r>     3.7214    11.6164    25.4423 </r>
       <r>     3.7983    11.3668    26.3165 </r>
       <r>     3.8752    11.1344    27.1728 </r>
       <r>     3.9521    10.9343    28.0138 </r>
       <r>     4.0290    10.7510    28.8406 </r>
       <r>     4.1060    10.5023    29.6483 </r>
       <r>     4.1829    10.0404    30.4205 </r>
       <r>     4.2598     9.2453    31.1315 </r>
       <r>     4.3367     8.1553    31.7587 </r>
       <r>     4.4136     7.0013    32.2971 </r>
       <r>     4.4905     6.0922    32.7657 </r>
       <r>     4.5674     5.6466    33.1999 </r>
       <r>     4.6443     5.7218    33.6400 </r>
       <r>     4.7212     6.2790    34.1229 </r>
       <r>     4.7981     7.2950    34.6839 </r>
       <r>     4.8750     8.7957    35.3604 </r>
       <r>     4.9519    10.7737    36.1889 </r>
       <r>     5.0288    13.0677    37.1939 </r>
       <r>     5.1057    15.3348    38.3733 </r>
       <r>     5.1827    17.1803    39.6946 </r>
       <r>     5.2596    18.3665    41.1071 </r>
       <r>     5.3365    18.9352    42.5634 </r>
       <r>     5.4134    19.1493    44.0361 </r>
       <r>     5.4903    19.3323    45.5229 </r>
       <r>     5.5672    19.7500    47.0418 </r>
       <r>     5.6441    20.5787    48.6244 </r>
       <r>     5.7210    21.8722    50.3066 </r>
       <r>     5.7979    23.4705    52.1116 </r>
       <r>     5.8748    24.9279    54.0287 </r>
       <r>     5.9517    25.5952    55.9972 </r>
       <r>     6.0286    24.8671    57.9096 </r>
       <r>     6.1055    22.4671    59.6375 </r>
       <r>     6.1824    18.6100    61.0688 </r>
       <r>     6.2594    13.9620    62.1425 </r>
       <r>     6.3363     9.4073    62.8660 </r>
       <r>     6.4132     5.7148    63.3055 </r>
       <r>     6.4901     3.2697    63.5570 </r>
       <r>     6.5670     2.0109    63.7116 </r>
       <r>     6.6439     1.5848    63.8335 </r>
       <r>     6.7208     1.5829    63.9553 </r>
       <r>     6.7977     1.7093    64.0867 </r>
       <r>     6.8746     1.8206    64.2267 </r>
       <r>     6.9515     1.8806    64.3714 </r>
       <r>     7.0284     1.9000    64.5175 </r>
       <r>     7.1053     1.8984    64.6635 </r>
       <r>     7.1822     1.8898    64.8088 </r>
       <r>     7.2591     1.8804    64.9535 </r>
       <r>     7.3361     1.8698    65.0973 </r>
       <r>     7.4130     1.8547    65.2399 </r>
       <r>     7.4899     1.8314    65.3807 </r>
       <r>     7.5668     1.7990    65.5191 </r>
       <r>     7.6437     1.7610    65.6545 </r>
       <r>     7.7206     1.7246    65.7872 </r>
       <r>     7.7975     1.6982    65.9178 </r>
       <r>     7.8744     1.6876    66.0476 </r>
       <r>     7.9513     1.6931    66.1778 </r>
       <r>     8.0282     1.7077    66.3091 </r>
       <r>     8.1051     1.7205    66.4414 </r>
       <r>     8.1820     1.7221    66.5739 </r>
       <r>     8.2589     1.7108    66.7054 </r>
       <r>     8.3358     1.6922    66.8356 </r>
       <r>     8.4127     1.6747    66.9644 </r>
       <r>     8.4897     1.6626    67.0922 </r>
       <r>     8.5666     1.6553    67.2195 </r>
       <r>     8.6435     1.6497    67.3464 </r>
       <r>     8.7204     1.6430    67.4728 </r>
       <r>     8.7973     1.6343    67.5985 </r>
       <r>     8.8742     1.6249    67.7234 </r>
       <r>     8.9511     1.6183    67.8479 </r>
       <r>     9.0280     1.6173    67.9723 </r>
       <r>     9.1049     1.6213    68.0970 </r>
       <r>     9.1818     1.6247    68.2219 </r>
       <r>     9.2587     1.6214    68.3466 </r>
       <r>     9.3356     1.6100    68.4704 </r>
       <r>     9.4125     1.5943    68.5930 </r>
       <r>     9.4894     1.5778    68.7144 </r>
       <r>     9.5664     1.5604    68.8344 </r>
       <r>     9.6433     1.5383    68.9527 </r>
       <r>     9.7202     1.5089    69.0687 </r>
       <r>     9.7971     1.4749    69.1822 </r>
       <r>     9.8740     1.4437    69.2932 </r>
       <r>     9.9509     1.4240    69.4027 </r>
       <r>    10.0278     1.4191    69.5119 </r>
       <r>    10.1047     1.4235    69.6213 </r>
       <r>    10.1816     1.4247    69.7309 </r>
       <r>    10.2585     1.4102    69.8394 </r>
       <r>    10.3354     1.3755    69.9451 </r>
       <r>    10.4123     1.3272    70.0472 </r>
       <r>    10.4892     1.2776    70.1455 </r>
       <r>    10.5661     1.2360    70.2405 </r>
       <r>    10.6431     1.2033    70.3331 </r>
       <r>    10.7200     1.1737    70.4233 </r>
       <r>    10.7969     1.1426    70.5112 </r>
       <r>    10.8738     1.1138    70.5969 </r>
       <r>    10.9507     1.1000    70.6815 </r>
       <r>    11.0276     1.1173    70.7674 </r>
       <r>    11.1045     1.1772    70.8579 </r>
       <r>    11.1814     1.2820    70.9565 </r>
       <r>    11.2583     1.4253    71.0661 </r>
       <r>    11.3352     1.5931    71.1887 </r>
       <r>    11.4121     1.7632    71.3243 </r>
       <r>    11.4890     1.9077    71.4710 </r>
       <r>    11.5659     2.0001    71.6248 </r>
       <r>    11.6428     2.0285    71.7808 </r>
       <r>    11.7198     2.0020    71.9348 </r>
       <r>    11.7967     1.9461    72.0844 </r>
       <r>    11.8736     1.8876    72.2296 </r>
       <r>    11.9505     1.8416    72.3712 </r>
       <r>    12.0274     1.8102    72.5105 </r>
       <r>    12.1043     1.7892    72.6481 </r>
       <r>    12.1812     1.7759    72.7846 </r>
       <r>    12.2581     1.7714    72.9209 </r>
       <r>    12.3350     1.7780    73.0576 </r>
       <r>    12.4119     1.7948    73.1956 </r>
       <r>    12.4888     1.8157    73.3353 </r>
       <r>    12.5657     1.8309    73.4761 </r>
       <r>    12.6426     1.8310    73.6169 </r>
       <r>    12.7195     1.8117    73.7562 </r>
       <r>    12.7965     1.7757    73.8928 </r>
       <r>    12.8734     1.7326    74.0261 </r>
       <r>    12.9503     1.6954    74.1564 </r>
       <r>    13.0272     1.6751    74.2853 </r>
       <r>    13.1041     1.6765    74.4142 </r>
       <r>    13.1810     1.6954    74.5446 </r>
       <r>    13.2579     1.7189    74.6768 </r>
       <r>    13.3348     1.7314    74.8099 </r>
       <r>    13.4117     1.7221    74.9424 </r>
       <r>    13.4886     1.6921    75.0725 </r>
       <r>    13.5655     1.6551    75.1998 </r>
       <r>    13.6424     1.6317    75.3253 </r>
       <r>    13.7193     1.6397    75.4514 </r>
       <r>    13.7962     1.6859    75.5811 </r>
       <r>    13.8731     1.7632    75.7167 </r>
       <r>    13.9501     1.8534    75.8592 </r>
       <r>    14.0270     1.9348    76.0080 </r>
       <r>    14.1039     1.9927    76.1612 </r>
       <r>    14.1808     2.0251    76.3170 </r>
       <r>    14.2577     2.0400    76.4739 </r>
       <r>    14.3346     2.0464    76.6313 </r>
       <r>    14.4115     2.0485    76.7888 </r>
       <r>    14.4884     2.0459    76.9461 </r>
       <r>    14.5653     2.0367    77.1028 </r>
       <r>    14.6422     2.0209    77.2582 </r>
       <r>    14.7191     2.0001    77.4120 </r>
       <r>    14.7960     1.9785    77.5642 </r>
       <r>    14.8729     1.9606    77.7150 </r>
       <r>    14.9498     1.9480    77.8648 </r>
       <r>    15.0268     1.9361    78.0137 </r>
       <r>    15.1037     1.9144    78.1609 </r>
       <r>    15.1806     1.8724    78.3049 </r>
       <r>    15.2575     1.8069    78.4439 </r>
       <r>    15.3344     1.7256    78.5766 </r>
       <r>    15.4113     1.6436    78.7030 </r>
       <r>    15.4882     1.5760    78.8242 </r>
       <r>    15.5651     1.5325    78.9421 </r>
       <r>    15.6420     1.5180    79.0588 </r>
       <r>    15.7189     1.5366    79.1770 </r>
       <r>    15.7958     1.5897    79.2992 </r>
       <r>    15.8727     1.6641    79.4272 </r>
       <r>    15.9496     1.7196    79.5595 </r>
       <r>    16.0265     1.6937    79.6897 </r>
       <r>    16.1035     1.5317    79.8075 </r>
       <r>    16.1804     1.2273    79.9019 </r>
       <r>    16.2573     0.8382    79.9664 </r>
       <r>    16.3342     0.4590    80.0017 </r>
       <r>    16.4111     0.1709    80.0148 </r>
       <r>    16.4880     0.0050    80.0152 </r>
       <r>    16.5649    -0.0580    80.0107 </r>
       <r>    16.6418    -0.0606    80.0061 </r>
       <r>    16.7187    -0.0415    80.0029 </r>
       <r>    16.7956    -0.0223    80.0012 </r>
       <r>    16.8725    -0.0099    80.0004 </r>
       <r>    16.9494    -0.0037    80.0001 </r>
       <r>    17.0263    -0.0012    80.0000 </r>
       <r>    17.1032    -0.0003    80.0000 </r>
       <r>    17.1802    -0.0001    80.0000 </r>
       <r>    17.2571     0.0000    80.0000 </r>
       <r>    17.3340     0.0000    80.0000 </r>
       <r>    17.4109     0.0000    80.0000 </r>
       <r>    17.4878     0.0000    80.0000 </r>
       <r>    17.5647     0.0000    80.0000 </r>
       <r>    17.6416     0.0000    80.0000 </r>
       <r>    17.7185     0.0000    80.0000 </r>
       <r>    17.7954     0.0000    80.0000 </r>
       <r>    17.8723     0.0000    80.0000 </r>
       <r>    17.9492     0.0000    80.0000 </r>
       <r>    18.0261     0.0000    80.0000 </r>
       <r>    18.1030     0.0000    80.0000 </r>
       <r>    18.1799     0.0000    80.0000 </r>
       <r>    18.2569     0.0000    80.0000 </r>
       <r>    18.3338     0.0000    80.0000 </r>
       <r>    18.4107     0.0000    80.0000 </r>
       <r>    18.4876     0.0000    80.0000 </r>
       <r>    18.5645     0.0000    80.0000 </r>
       <r>    18.6414     0.0000    80.0000 </r>
       <r>    18.7183     0.0000    80.0000 </r>
       <r>    18.7952     0.0000    80.0000 </r>
       <r>    18.8721     0.0000    80.0000 </r>
       <r>    18.9490     0.0000    80.0000 </r>
       <r>    19.0259     0.0000    80.0000 </r>
       <r>    19.1028     0.0000    80.0000 </r>
       <r>    19.1797     0.0000    80.0000 </r>
       <r>    19.2566     0.0000    80.0000 </r>
      </set>
     </set>
    </array>
   </total>
  </dos>
 </calculation>
 <structure name="finalpos" >
  <crystal>
   <varray name="basis" >
    <v>      -1.97870325      -3.82289142      -1.97870325 </v>
    <v>      -3.96265861       1.91471131       1.97830445 </v>
    <v>       1.97830445       1.91471131      -3.96265861 </v>
   </varray>
   <i name="volume">     90.08437626 </i>
   <varray name="rec_basis" >
    <v>      -0.12627305      -0.13086592      -0.12627305 </v>
    <v>      -0.21021913       0.13049325      -0.04189625 </v>
    <v>      -0.04189625       0.13049325      -0.21021913 </v>
   </varray>
  </crystal>
  <varray name="positions" >
   <v>       0.00000000       0.67000614       0.32999386 </v>
   <v>       0.00000000       0.32950441       0.67049559 </v>
   <v>       0.50000000       0.16862270       0.83137730 </v>
   <v>       0.50000000       0.82485723       0.17514277 </v>
   <v>       0.50000000       0.49636770       0.50363230 </v>
   <v>       0.00000000       0.01064182       0.98935818 </v>
  </varray>
 </structure>
</modeling>
