<?xml version="1.0" encoding="ISO-8859-1"?>
<modeling>
 <generator>
  <i name="program" type="string">vasp </i>
  <i name="version" type="string">5.3.5  </i>
  <i name="subversion" type="string">31Mar14 (build Jun 20 2014 13:15:13) complex                          parallel </i>
  <i name="platform" type="string">LinuxIFC </i>
  <i name="date" type="string">2025 12 16 </i>
  <i name="time" type="string">17:25:57 </i>
 </generator>
 <incar>
  <i type="string" name="PREC">accurate</i>
  <i type="int" name="IALGO">    68</i>
  <i type="logical" name="ADDGRID"> T  </i>
  <i type="int" name="NELM">   100</i>
  <i type="int" name="NELMIN">     4</i>
  <i type="int" name="IBRION">     2</i>
  <i name="EDIFF">      0.00000100</i>
  <i name="EDIFFG">     -0.02000000</i>
  <i type="int" name="NSW">    30</i>
  <i type="int" name="ISIF">     3</i>
  <i name="ENCUT">    600.00000000</i>
  <i type="logical" name="LREAL"> F  </i>
  <i type="int" name="ISMEAR">     0</i>
  <i name="SIGMA">      0.10000000</i>
  <i type="logical" name="LWAVE"> F  </i>
  <i type="logical" name="LCHARG"> F  </i>
  <i type="int" name="NELM">   100</i>
 </incar>
 <kpoints>
  <generation param="Auto">
   <i name="subdivisionlength">     20.00000000 </i>
   <v type="int" name="divisions">       4        4        3 </v>
   <v name="usershift">      0.00000000       0.00000000       0.00000000 </v>
   <v name="genvec1">      0.25000000       0.00000000       0.00000000 </v>
   <v name="genvec2">      0.00000000       0.25000000       0.00000000 </v>
   <v name="genvec3">      0.00000000       0.00000000       0.33333333 </v>
   <v name="shift">      0.00000000       0.00000000       0.00000000 </v>
  </generation>
  <varray name="kpointlist" >
   <v>       0.00000000       0.00000000       0.00000000 </v>
   <v>       0.25000000       0.00000000       0.00000000 </v>
   <v>       0.50000000       0.00000000       0.00000000 </v>
   <v>       0.00000000       0.25000000       0.00000000 </v>
   <v>       0.25000000       0.25000000       0.00000000 </v>
   <v>       0.50000000       0.25000000       0.00000000 </v>
   <v>      -0.25000000       0.25000000       0.00000000 </v>
   <v>       0.00000000       0.50000000       0.00000000 </v>
   <v>       0.25000000       0.50000000       0.00000000 </v>
   <v>       0.50000000       0.50000000       0.00000000 </v>
   <v>       0.00000000       0.00000000       0.33333333 </v>
   <v>       0.25000000       0.00000000       0.33333333 </v>
   <v>       0.50000000       0.00000000       0.33333333 </v>
   <v>      -0.25000000       0.00000000       0.33333333 </v>
   <v>       0.00000000       0.25000000       0.33333333 </v>
   <v>       0.25000000       0.25000000       0.33333333 </v>
   <v>       0.50000000       0.25000000       0.33333333 </v>
   <v>      -0.25000000       0.25000000       0.33333333 </v>
   <v>       0.00000000       0.50000000       0.33333333 </v>
   <v>       0.25000000       0.50000000       0.33333333 </v>
   <v>       0.50000000       0.50000000       0.33333333 </v>
   <v>      -0.25000000       0.50000000       0.33333333 </v>
   <v>       0.00000000      -0.25000000       0.33333333 </v>
   <v>       0.25000000      -0.25000000       0.33333333 </v>
   <v>       0.50000000      -0.25000000       0.33333333 </v>
   <v>      -0.25000000      -0.25000000       0.33333333 </v>
  </varray>
  <varray name="weights" >
   <v>       0.02083333 </v>
   <v>       0.04166667 </v>
   <v>       0.02083333 </v>
   <v>       0.04166667 </v>
   <v>       0.04166667 </v>
   <v>       0.04166667 </v>
   <v>       0.04166667 </v>
   <v>       0.02083333 </v>
   <v>       0.04166667 </v>
   <v>       0.02083333 </v>
   <v>       0.04166667 </v>
   <v>       0.04166667 </v>
   <v>       0.04166667 </v>
   <v>       0.04166667 </v>
   <v>       0.04166667 </v>
   <v>       0.04166667 </v>
   <v>       0.04166667 </v>
   <v>       0.04166667 </v>
   <v>       0.04166667 </v>
   <v>       0.04166667 </v>
   <v>       0.04166667 </v>
   <v>       0.04166667 </v>
   <v>       0.04166667 </v>
   <v>       0.04166667 </v>
   <v>       0.04166667 </v>
   <v>       0.04166667 </v>
  </varray>
 </kpoints>
 <parameters>
  <separator name="general" >
   <i type="string" name="SYSTEM">unknown system</i>
   <i type="logical" name="LCOMPAT"> F  </i>
  </separator>
  <separator name="electronic" >
   <i type="string" name="PREC">accura</i>
   <i name="ENMAX">    600.00000000</i>
   <i name="ENAUG">    644.87300000</i>
   <i name="EDIFF">      0.00000100</i>
   <i type="int" name="IALGO">    68</i>
   <i type="int" name="IWAVPR">    11</i>
   <i type="int" name="NBANDS">    44</i>
   <i name="NELECT">     64.00000000</i>
   <i type="int" name="TURBO">     0</i>
   <i type="int" name="IRESTART">     0</i>
   <i type="int" name="NREBOOT">     0</i>
   <i type="int" name="NMIN">     0</i>
   <i name="EREF">      0.00000000</i>
   <separator name="electronic smearing" >
    <i type="int" name="ISMEAR">     0</i>
    <i name="SIGMA">      0.10000000</i>
    <i name="KSPACING">      0.50000000</i>
    <i type="logical" name="KGAMMA"> T  </i>
   </separator>
   <separator name="electronic projectors" >
    <i type="logical" name="LREAL"> F  </i>
    <v name="ROPT">      0.00000000      0.00000000      0.00000000      0.00000000</v>
    <i type="int" name="LMAXPAW">  -100</i>
    <i type="int" name="LMAXMIX">     2</i>
    <i type="logical" name="NLSPLINE"> F  </i>
   </separator>
   <separator name="electronic startup" >
    <i type="int" name="ISTART">     0</i>
    <i type="int" name="ICHARG">     2</i>
    <i type="int" name="INIWAV">     1</i>
   </separator>
   <separator name="electronic spin" >
    <i type="int" name="ISPIN">     1</i>
    <i type="logical" name="LNONCOLLINEAR"> F  </i>
    <v name="MAGMOM">      1.00000000      1.00000000      1.00000000      1.00000000      1.00000000      1.00000000      1.00000000      1.00000000      1.00000000      1.00000000      1.00000000      1.00000000      1.00000000      1.00000000      1.00000000      1.00000000</v>
    <i name="NUPDOWN">     -1.00000000</i>
    <i type="logical" name="LSORBIT"> F  </i>
    <v name="SAXIS">      0.00000000      0.00000000      1.00000000</v>
    <i type="logical" name="LSPIRAL"> F  </i>
    <v name="QSPIRAL">      0.00000000      0.00000000      0.00000000</v>
    <i type="logical" name="LZEROZ"> F  </i>
   </separator>
   <separator name="electronic exchange-correlation" >
    <i type="logical" name="LASPH"> F  </i>
    <i type="logical" name="LMETAGGA"> F  </i>
   </separator>
   <separator name="electronic convergence" >
    <i type="int" name="NELM">   100</i>
    <i type="int" name="NELMDL">     0</i>
    <i type="int" name="NELMIN">     4</i>
    <i name="ENINI">    600.00000000</i>
    <separator name="electronic convergence detail" >
     <i type="logical" name="LDIAG"> T  </i>
     <i type="logical" name="LSUBROT"> F  </i>
     <i name="WEIMIN">      0.00100000</i>
     <i name="EBREAK">      0.00000001</i>
     <i name="DEPER">      0.30000000</i>
     <i type="int" name="NRMM">     4</i>
     <i name="TIME">      0.40000000</i>
    </separator>
   </separator>
   <separator name="electronic mixer" >
    <i name="AMIX">      0.40000000</i>
    <i name="BMIX">      1.00000000</i>
    <i name="AMIN">      0.10000000</i>
    <i name="AMIX_MAG">      1.60000000</i>
    <i name="BMIX_MAG">      1.00000000</i>
    <separator name="electronic mixer details" >
     <i type="int" name="IMIX">     4</i>
     <i type="int" name="MAXMIX">   -45</i>
     <i name="WC">    100.00000000</i>
     <i type="int" name="INIMIX">     1</i>
     <i type="int" name="MIXPRE">     1</i>
     <i type="int" name="MREMOVE">     5</i>
    </separator>
   </separator>
   <separator name="electronic dipolcorrection" >
    <i type="logical" name="LDIPOL"> F  </i>
    <i type="logical" name="LMONO"> F  </i>
    <i type="int" name="IDIPOL">     0</i>
    <i name="EPSILON">      1.00000000</i>
    <v name="DIPOL">   -100.00000000   -100.00000000   -100.00000000</v>
    <i name="EFIELD">      0.00000000</i>
   </separator>
  </separator>
  <separator name="grids" >
   <i type="int" name="NGX">    48</i>
   <i type="int" name="NGY">    48</i>
   <i type="int" name="NGZ">    50</i>
   <i type="int" name="NGXF">    96</i>
   <i type="int" name="NGYF">    96</i>
   <i type="int" name="NGZF">   100</i>
   <i type="logical" name="ADDGRID"> T  </i>
  </separator>
  <separator name="ionic" >
   <i type="int" name="NSW">    30</i>
   <i type="int" name="IBRION">     2</i>
   <i type="int" name="ISIF">     3</i>
   <i name="PSTRESS">      0.00000000</i>
   <i name="EDIFFG">     -0.02000000</i>
   <i type="int" name="NFREE">     1</i>
   <i name="POTIM">      0.50000000</i>
   <i name="SMASS">     -3.00000000</i>
   <i name="SCALEE">      1.00000000</i>
  </separator>
  <separator name="ionic md" >
   <i name="TEBEG">      0.00010000</i>
   <i name="TEEND">      0.00010000</i>
   <i type="int" name="NBLOCK">     1</i>
   <i type="int" name="KBLOCK">    30</i>
   <i type="int" name="NPACO">   256</i>
   <i name="APACO">     16.00000000</i>
  </separator>
  <separator name="symmetry" >
   <i type="int" name="ISYM">     2</i>
   <i name="SYMPREC">      0.00001000</i>
  </separator>
  <separator name="dos" >
   <i type="logical" name="LORBIT"> F  </i>
   <v name="RWIGS">     -1.00000000     -1.00000000     -1.00000000     -1.00000000</v>
   <i type="int" name="NEDOS">   301</i>
   <i name="EMIN">     10.00000000</i>
   <i name="EMAX">    -10.00000000</i>
   <i name="EFERMI">      0.00000000</i>
  </separator>
  <separator name="writing" >
   <i type="int" name="NWRITE">     2</i>
   <i type="logical" name="LWAVE"> F  </i>
   <i type="logical" name="LCHARG"> F  </i>
   <i type="logical" name="LPARD"> F  </i>
   <i type="logical" name="LVTOT"> F  </i>
   <i type="logical" name="LVHAR"> F  </i>
   <i type="logical" name="LELF"> F  </i>
   <i type="logical" name="LOPTICS"> F  </i>
   <v name="STM">      0.00000000      0.00000000      0.00000000      0.00000000      0.00000000      0.00000000      0.00000000</v>
  </separator>
  <separator name="performance" >
   <i type="int" name="NPAR">     4</i>
   <i type="int" name="NSIM">     4</i>
   <i type="int" name="NBLK">    -1</i>
   <i type="logical" name="LPLANE"> T  </i>
   <i type="logical" name="LSCALAPACK"> T  </i>
   <i type="logical" name="LSCAAWARE"> F  </i>
   <i type="logical" name="LSCALU"> F  </i>
   <i type="logical" name="LASYNC"> F  </i>
   <i type="logical" name="LORBITALREAL"> F  </i>
  </separator>
  <separator name="miscellaneous" >
   <i type="int" name="IDIOT">     3</i>
   <i type="logical" name="LMUSIC"> F  </i>
   <v name="POMASS">     28.08500000     26.98100000     12.01100000     14.00100000</v>
   <v name="DARWINR">      0.00000000      0.00000000      0.00000000      0.00000000</v>
   <v name="DARWINV">      1.00000000      1.00000000      1.00000000      1.00000000</v>
   <i type="logical" name="LCORR"> T  </i>
  </separator>
  <i type="logical" name="GGA_COMPAT"> T  </i>
  <i type="logical" name="LBERRY"> F  </i>
  <i type="int" name="ICORELEVEL">     0</i>
  <i type="logical" name="LDAU"> F  </i>
  <i type="int" name="I_CONSTRAINED_M">     0</i>
  <separator name="electronic exchange-correlation" >
   <i type="string" name="GGA">--</i>
   <i type="int" name="VOSKOWN">     0</i>
   <i type="logical" name="LHFCALC"> F  </i>
   <i type="string" name="PRECFOCK"></i>
   <i type="logical" name="LSYMGRAD"> F  </i>
   <i type="logical" name="LHFONE"> F  </i>
   <i type="logical" name="LRHFCALC"> F  </i>
   <i type="logical" name="LTHOMAS"> F  </i>
   <i type="logical" name="LMODELHF"> F  </i>
   <i name="ENCUT4O">     -1.00000000</i>
   <i type="int" name="EXXOEP">     0</i>
   <i type="int" name="FOURORBIT">     0</i>
   <i name="AEXX">      0.00000000</i>
   <i name="HFALPHA">      0.00000000</i>
   <i name="MCALPHA">      0.00000000</i>
   <i name="ALDAX">      1.00000000</i>
   <i name="AGGAX">      1.00000000</i>
   <i name="ALDAC">      1.00000000</i>
   <i name="AGGAC">      1.00000000</i>
   <i type="int" name="NKREDX">     1</i>
   <i type="int" name="NKREDY">     1</i>
   <i type="int" name="NKREDZ">     1</i>
   <i type="logical" name="SHIFTRED"> F  </i>
   <i type="logical" name="ODDONLY"> F  </i>
   <i type="logical" name="EVENONLY"> F  </i>
   <i type="int" name="LMAXFOCK">     0</i>
   <i type="int" name="NMAXFOCKAE">     0</i>
   <i type="logical" name="LFOCKAEDFT"> F  </i>
   <i name="HFSCREEN">      0.00000000</i>
   <i name="HFSCREENC">      0.00000000</i>
   <i type="int" name="NBANDSGWLOW">     0</i>
  </separator>
  <separator name="vdW DFT" >
   <i type="logical" name="LUSE_VDW"> F  </i>
   <i name="Zab_VDW">     -0.84910000</i>
   <i name="PARAM1">      0.12340000</i>
   <i name="PARAM2">      1.00000000</i>
   <i name="PARAM3">      0.00000000</i>
  </separator>
  <separator name="model GW" >
   <i type="int" name="MODEL_GW">     0</i>
   <i name="MODEL_EPS0">      6.36927403</i>
   <i name="MODEL_ALPHA">      1.00000000</i>
  </separator>
  <separator name="linear response parameters" >
   <i type="logical" name="LEPSILON"> F  </i>
   <i type="logical" name="LRPA"> F  </i>
   <i type="logical" name="LNABLA"> F  </i>
   <i type="logical" name="LVEL"> F  </i>
   <i type="int" name="KINTER">     0</i>
   <i name="CSHIFT">      0.10000000</i>
   <i name="OMEGAMAX">     -1.00000000</i>
   <i name="DEG_THRESHOLD">      0.00200000</i>
  </separator>
  <separator name="orbital magnetization" >
   <i type="logical" name="NUCIND"> F  </i>
   <v name="MAGPOS">      0.00000000      0.00000000      0.00000000</v>
   <i type="logical" name="LNICSALL"> T  </i>
   <i type="logical" name="ORBITALMAG"> F  </i>
   <i type="logical" name="LMAGBLOCH"> F  </i>
   <i type="logical" name="LCHIMAG"> F  </i>
   <i type="logical" name="LGAUGE"> T  </i>
   <i type="int" name="MAGATOM">     0</i>
   <v name="MAGDIPOL">      0.00000000      0.00000000      0.00000000</v>
   <v name="AVECCONST">      0.00000000      0.00000000      0.00000000</v>
  </separator>
  <separator name="response functions" >
   <i type="logical" name="LADDER"> F  </i>
   <i type="logical" name="LFXC"> F  </i>
   <i type="logical" name="LHARTREE"> T  </i>
   <i type="int" name="IBSE">     0</i>
   <i type="logical" name="LTCTE"> F  </i>
   <i type="logical" name="LTETE"> F  </i>
   <i type="logical" name="LTRIPLET"> F  </i>
   <i type="logical" name="LFXCEPS"> F  </i>
   <i type="logical" name="LFXHEG"> F  </i>
   <i type="logical" name="L2ORDER"> F  </i>
   <i type="logical" name="LUSEW"> F  </i>
   <i name="ENCUTGW">     -2.00000000</i>
   <i name="ENCUTGWSOFT">     -2.00000000</i>
   <i name="ENCUTLF">     -1.00000000</i>
   <i type="int" name="LMAXMP2">    -1</i>
   <i name="SCISSOR">      0.00000000</i>
   <i type="int" name="NOMEGA">     0</i>
   <i type="int" name="NOMEGAR">     0</i>
   <i type="int" name="NBANDSGW">    -1</i>
   <i type="int" name="NBANDSO">    -1</i>
   <i type="int" name="NBANDSV">    -1</i>
   <i type="int" name="NELM">   100</i>
   <i type="int" name="DIM">     3</i>
   <i type="int" name="ANTIRES">     0</i>
   <i name="OMEGAMAX">    -30.00000000</i>
   <i name="OMEGAMIN">    -30.00000000</i>
   <i name="OMEGATL">   -200.00000000</i>
   <i type="int" name="OMEGAGRID">     0</i>
   <i name="CSHIFT">     -0.10000000</i>
   <i type="logical" name="SELFENERGY"> F  </i>
   <i type="logical" name="LSPECTRAL"> F  </i>
   <i type="logical" name="ODDONLYGW"> F  </i>
   <i type="logical" name="EVENONLYGW"> F  </i>
   <i type="int" name="NKREDLFX">     1</i>
   <i type="int" name="NKREDLFY">     1</i>
   <i type="int" name="NKREDLFZ">     1</i>
   <i type="int" name="MAXMEM">  1800</i>
   <i type="int" name="TELESCOPE">     0</i>
   <i type="int" name="TAUPAR">     1</i>
  </separator>
  <separator name="External order field" >
   <i name="OFIELD_KAPPA">      0.00000000</i>
   <v name="OFIELD_K">      0.00000000      0.00000000      0.00000000</v>
   <i name="OFIELD_Q6_NEAR">      0.00000000</i>
   <i name="OFIELD_Q6_FAR">      0.00000000</i>
   <i name="OFIELD_A">      0.00000000</i>
  </separator>
 </parameters>
 <atominfo>
  <atoms>      16 </atoms>
  <types>       4 </types>
  <array name="atoms" >
   <dimension dim="1">ion</dimension>
   <field type="string">element</field>
   <field type="int">atomtype</field>
   <set>
    <rc><c>Si</c><c>   1</c></rc>
    <rc><c>Si</c><c>   1</c></rc>
    <rc><c>Si</c><c>   1</c></rc>
    <rc><c>Al</c><c>   2</c></rc>
    <rc><c>Al</c><c>   2</c></rc>
    <rc><c>Al</c><c>   2</c></rc>
    <rc><c>Al</c><c>   2</c></rc>
    <rc><c>Al</c><c>   2</c></rc>
    <rc><c>C </c><c>   3</c></rc>
    <rc><c>C </c><c>   3</c></rc>
    <rc><c>C </c><c>   3</c></rc>
    <rc><c>N </c><c>   4</c></rc>
    <rc><c>N </c><c>   4</c></rc>
    <rc><c>N </c><c>   4</c></rc>
    <rc><c>N </c><c>   4</c></rc>
    <rc><c>N </c><c>   4</c></rc>
   </set>
  </array>
  <array name="atomtypes" >
   <dimension dim="1">type</dimension>
   <field type="int">atomspertype</field>
   <field type="string">element</field>
   <field>mass</field>
   <field>valence</field>
   <field type="string">pseudopotential</field>
   <set>
    <rc><c>   3</c><c>Si</c><c>     28.08500000</c><c>      4.00000000</c><c>  PAW_PBE Si 05Jan2001                  </c></rc>
    <rc><c>   5</c><c>Al</c><c>     26.98100000</c><c>      3.00000000</c><c>  PAW_PBE Al 04Jan2001                  </c></rc>
    <rc><c>   3</c><c>C </c><c>     12.01100000</c><c>      4.00000000</c><c>  PAW_PBE C 08Apr2002                   </c></rc>
    <rc><c>   5</c><c>N </c><c>     14.00100000</c><c>      5.00000000</c><c>  PAW_PBE N_s 07Sep2000                 </c></rc>
   </set>
  </array>
 </atominfo>
 <structure name="initialpos" >
  <crystal>
   <varray name="basis" >
    <v>       5.40075939      -0.00157945       0.00070041 </v>
    <v>      -2.70195971       5.28053991       0.01797332 </v>
    <v>       0.00131635      -1.85765315       5.95004421 </v>
   </varray>
   <i name="volume">    169.84730750 </i>
   <varray name="rec_basis" >
    <v>       0.18518300       0.09465445       0.02951094 </v>
    <v>       0.00004767       0.18919791       0.05906915 </v>
    <v>      -0.00002194      -0.00058265       0.16788407 </v>
   </varray>
  </crystal>
  <varray name="positions" >
   <v>       0.41226759       0.50176811       0.87246090 </v>
   <v>       0.92418780       0.49824116       0.62351886 </v>
   <v>       0.41018690       0.49889288       0.37726531 </v>
   <v>       0.83369443       0.00684029       0.25041144 </v>
   <v>       0.33387439       0.99966640       0.99823012 </v>
   <v>       0.83906439       0.00890279       0.75378647 </v>
   <v>       0.34134041       0.01090954       0.50472566 </v>
   <v>       0.91257886       0.49422875       0.12458143 </v>
   <v>       0.14162831       0.61022957       0.89506149 </v>
   <v>       0.64496254       0.60708454       0.65022336 </v>
   <v>       0.14787271       0.61737842       0.41162384 </v>
   <v>       0.62183123       0.61230315       0.15400278 </v>
   <v>       0.72260312       0.11705705       0.03070372 </v>
   <v>       0.24148789       0.14501226       0.78905537 </v>
   <v>       0.73813837       0.13422924       0.53233008 </v>
   <v>       0.23428107       0.13725586       0.28201918 </v>
  </varray>
 </structure>
 <calculation>
  <scstep>
   <time name="dav">    0.87    0.87</time>
   <time name="total">    0.97    0.98</time>
   <energy>
    <i name="alphaZ">     58.22776832 </i>
    <i name="ewald">  -2295.10971052 </i>
    <i name="hartreedc">   -387.15904196 </i>
    <i name="XCdc">    -15.82670162 </i>
    <i name="pawpsdc">   1945.63031815 </i>
    <i name="pawaedc">  -1740.71259224 </i>
    <i name="eentropy">     -0.02139961 </i>
    <i name="bandstr">    456.52017851 </i>
    <i name="atom">   2341.07853652 </i>
    <i name="e_fr_energy">    362.62735554 </i>
    <i name="e_wo_entrp">    362.64875515 </i>
    <i name="e_0_energy">    362.63805535 </i>
   </energy>
  </scstep>
  <scstep>
   <time name="dav">    0.97    0.97</time>
   <time name="total">    0.97    0.98</time>
   <energy>
    <i name="e_fr_energy">   -100.85639586 </i>
    <i name="e_wo_entrp">   -100.85639586 </i>
    <i name="e_0_energy">   -100.85639586 </i>
   </energy>
  </scstep>
  <scstep>
   <time name="dav">    1.06    1.06</time>
   <time name="total">    1.06    1.07</time>
   <energy>
    <i name="e_fr_energy">   -135.31229581 </i>
    <i name="e_wo_entrp">   -135.31229581 </i>
    <i name="e_0_energy">   -135.31229581 </i>
   </energy>
  </scstep>
  <scstep>
   <time name="dav">    1.02    1.02</time>
   <time name="total">    1.02    1.03</time>
   <energy>
    <i name="e_fr_energy">   -136.14199864 </i>
    <i name="e_wo_entrp">   -136.14199864 </i>
    <i name="e_0_energy">   -136.14199864 </i>
   </energy>
  </scstep>
  <scstep>
   <time name="dav">    1.00    1.00</time>
   <time name="total">    1.14    1.15</time>
   <energy>
    <i name="e_fr_energy">   -136.16665481 </i>
    <i name="e_wo_entrp">   -136.16665481 </i>
    <i name="e_0_energy">   -136.16665481 </i>
   </energy>
  </scstep>
  <scstep>
   <time name="diag">    0.20    0.20</time>
   <time name="diis">    0.69    0.69</time>
   <time name="orth">    0.03    0.03</time>
   <time name="total">    1.16    1.17</time>
   <energy>
    <i name="e_fr_energy">   -118.46045621 </i>
    <i name="e_wo_entrp">   -118.46045621 </i>
    <i name="e_0_energy">   -118.46045621 </i>
   </energy>
  </scstep>
  <scstep>
   <time name="diag">    0.20    0.20</time>
   <time name="diis">    0.72    0.72</time>
   <time name="orth">    0.03    0.03</time>
   <time name="total">    1.18    1.19</time>
   <energy>
    <i name="e_fr_energy">   -118.47438967 </i>
    <i name="e_wo_entrp">   -118.47438967 </i>
    <i name="e_0_energy">   -118.47438967 </i>
   </energy>
  </scstep>
  <scstep>
   <time name="diag">    0.20    0.20</time>
   <time name="diis">    0.71    0.71</time>
   <time name="orth">    0.03    0.03</time>
   <time name="total">    1.17    1.19</time>
   <energy>
    <i name="e_fr_energy">   -119.11150083 </i>
    <i name="e_wo_entrp">   -119.11150083 </i>
    <i name="e_0_energy">   -119.11150083 </i>
   </energy>
  </scstep>
  <scstep>
   <time name="diag">    0.20    0.20</time>
   <time name="diis">    0.66    0.66</time>
   <time name="orth">    0.03    0.03</time>
   <time name="total">    1.12    1.13</time>
   <energy>
    <i name="e_fr_energy">   -118.37769946 </i>
    <i name="e_wo_entrp">   -118.37769946 </i>
    <i name="e_0_energy">   -118.37769946 </i>
   </energy>
  </scstep>
  <scstep>
   <time name="diag">    0.20    0.20</time>
   <time name="diis">    0.67    0.67</time>
   <time name="orth">    0.03    0.03</time>
   <time name="total">    1.13    1.14</time>
   <energy>
    <i name="e_fr_energy">   -118.38629575 </i>
    <i name="e_wo_entrp">   -118.38629575 </i>
    <i name="e_0_energy">   -118.38629575 </i>
   </energy>
  </scstep>
  <scstep>
   <time name="diag">    0.20    0.20</time>
   <time name="diis">    0.69    0.69</time>
   <time name="orth">    0.03    0.03</time>
   <time name="total">    1.15    1.16</time>
   <energy>
    <i name="e_fr_energy">   -118.38535839 </i>
    <i name="e_wo_entrp">   -118.38535839 </i>
    <i name="e_0_energy">   -118.38535839 </i>
   </energy>
  </scstep>
  <scstep>
   <time name="diag">    0.20    0.20</time>
   <time name="diis">    0.72    0.72</time>
   <time name="orth">    0.03    0.03</time>
   <time name="total">    1.17    1.19</time>
   <energy>
    <i name="e_fr_energy">   -118.38335842 </i>
    <i name="e_wo_entrp">   -118.38335842 </i>
    <i name="e_0_energy">   -118.38335842 </i>
   </energy>
  </scstep>
  <scstep>
   <time name="diag">    0.20    0.20</time>
   <time name="diis">    0.69    0.69</time>
   <time name="orth">    0.03    0.03</time>
   <time name="total">    1.16    1.17</time>
   <energy>
    <i name="e_fr_energy">   -118.38322567 </i>
    <i name="e_wo_entrp">   -118.38322567 </i>
    <i name="e_0_energy">   -118.38322567 </i>
   </energy>
  </scstep>
  <scstep>
   <time name="diag">    0.20    0.20</time>
   <time name="diis">    0.69    0.69</time>
   <time name="orth">    0.03    0.03</time>
   <time name="total">    1.15    1.17</time>
   <energy>
    <i name="e_fr_energy">   -118.38317514 </i>
    <i name="e_wo_entrp">   -118.38317514 </i>
    <i name="e_0_energy">   -118.38317514 </i>
   </energy>
  </scstep>
  <scstep>
   <time name="diag">    0.20    0.20</time>
   <time name="diis">    0.66    0.66</time>
   <time name="orth">    0.03    0.03</time>
   <time name="total">    1.12    1.14</time>
   <energy>
    <i name="e_fr_energy">   -118.38316907 </i>
    <i name="e_wo_entrp">   -118.38316907 </i>
    <i name="e_0_energy">   -118.38316907 </i>
   </energy>
  </scstep>
  <scstep>
   <time name="diag">    0.20    0.20</time>
   <time name="diis">    0.66    0.66</time>
   <time name="orth">    0.03    0.03</time>
   <time name="total">    1.11    1.13</time>
   <energy>
    <i name="e_fr_energy">   -118.38317099 </i>
    <i name="e_wo_entrp">   -118.38317099 </i>
    <i name="e_0_energy">   -118.38317099 </i>
   </energy>
  </scstep>
  <scstep>
   <time name="diag">    0.20    0.20</time>
   <time name="diis">    0.63    0.63</time>
   <time name="orth">    0.03    0.03</time>
   <time name="total">    1.09    1.10</time>
   <energy>
    <i name="e_fr_energy">   -118.38316932 </i>
    <i name="e_wo_entrp">   -118.38316932 </i>
    <i name="e_0_energy">   -118.38316932 </i>
   </energy>
  </scstep>
  <scstep>
   <time name="diag">    0.20    0.20</time>
   <time name="diis">    0.52    0.52</time>
   <time name="orth">    0.03    0.03</time>
   <time name="total">    0.84    0.86</time>
   <energy>
    <i name="alphaZ">     58.22776832 </i>
    <i name="ewald">  -2295.10971052 </i>
    <i name="hartreedc">   -506.43027434 </i>
    <i name="XCdc">     -5.66703757 </i>
    <i name="pawpsdc">  10752.27106468 </i>
    <i name="pawaedc"> -10552.43155052 </i>
    <i name="eentropy">      0.00000000 </i>
    <i name="bandstr">     89.67803408 </i>
    <i name="atom">   2341.07853652 </i>
    <i name="e_fr_energy">   -118.38316936 </i>
    <i name="e_wo_entrp">   -118.38316936 </i>
    <i name="e_0_energy">   -118.38316936 </i>
   </energy>
  </scstep>
  <structure>
   <crystal>
    <varray name="basis" >
     <v>       5.40075939      -0.00157945       0.00070041 </v>
     <v>      -2.70195971       5.28053991       0.01797332 </v>
     <v>       0.00131635      -1.85765315       5.95004421 </v>
    </varray>
    <i name="volume">    169.84730750 </i>
    <varray name="rec_basis" >
     <v>       0.18518300       0.09465445       0.02951094 </v>
     <v>       0.00004767       0.18919791       0.05906915 </v>
     <v>      -0.00002194      -0.00058265       0.16788407 </v>
    </varray>
   </crystal>
   <varray name="positions" >
    <v>       0.41226759       0.50176811       0.87246090 </v>
    <v>       0.92418780       0.49824116       0.62351886 </v>
    <v>       0.41018690       0.49889288       0.37726531 </v>
    <v>       0.83369443       0.00684029       0.25041144 </v>
    <v>       0.33387439       0.99966640       0.99823012 </v>
    <v>       0.83906439       0.00890279       0.75378647 </v>
    <v>       0.34134041       0.01090954       0.50472566 </v>
    <v>       0.91257886       0.49422875       0.12458143 </v>
    <v>       0.14162831       0.61022957       0.89506149 </v>
    <v>       0.64496254       0.60708454       0.65022336 </v>
    <v>       0.14787271       0.61737842       0.41162384 </v>
    <v>       0.62183123       0.61230315       0.15400278 </v>
    <v>       0.72260312       0.11705705       0.03070372 </v>
    <v>       0.24148789       0.14501226       0.78905537 </v>
    <v>       0.73813837       0.13422924       0.53233008 </v>
    <v>       0.23428107       0.13725586       0.28201918 </v>
   </varray>
  </structure>
  <varray name="forces" >
   <v>       0.00044913      -0.00301171      -0.00311824 </v>
   <v>      -0.00432768       0.00024495       0.00138934 </v>
   <v>       0.00459208       0.00710496       0.00521155 </v>
   <v>       0.00341056      -0.00435002       0.00029266 </v>
   <v>       0.00936201       0.00115945       0.00119158 </v>
   <v>      -0.00606805       0.00069861      -0.00044602 </v>
   <v>       0.00124413       0.01078036       0.00239477 </v>
   <v>       0.00154288      -0.01025772      -0.00005464 </v>
   <v>      -0.00054023      -0.00377394      -0.00386979 </v>
   <v>      -0.00530049       0.00684166      -0.00082789 </v>
   <v>      -0.00581488       0.00950273       0.00024553 </v>
   <v>      -0.00633209      -0.00254869       0.00011935 </v>
   <v>       0.00981386      -0.00228842      -0.00037775 </v>
   <v>      -0.00387394      -0.00786852      -0.00887506 </v>
   <v>      -0.00306659       0.00147416       0.00071096 </v>
   <v>       0.00490930      -0.00370787       0.00601364 </v>
  </varray>
  <varray name="stress" >
   <v>      -0.04920125       0.06482876      -0.07916900 </v>
   <v>       0.06482877       0.29393289       0.09443615 </v>
   <v>      -0.07916869       0.09443600      -0.00908789 </v>
  </varray>
  <energy>
   <i name="e_fr_energy">   -118.38316936 </i>
   <i name="e_wo_entrp">   -118.38316936 </i>
   <i name="e_0_energy">      0.00000000 </i>
  </energy>
  <time name="totalsc">   22.45   22.74</time>
  <eigenvalues>
   <array>
    <dimension dim="1">band</dimension>
    <dimension dim="2">kpoint</dimension>
    <dimension dim="3">spin</dimension>
    <field>eigene</field>
    <field>occ</field>
    <set>
     <set comment="spin 1">
      <set comment="kpoint 1">
       <r>   -8.9015    1.0000 </r>
       <r>   -7.3449    1.0000 </r>
       <r>   -7.0777    1.0000 </r>
       <r>   -6.8781    1.0000 </r>
       <r>   -6.4940    1.0000 </r>
       <r>   -4.3300    1.0000 </r>
       <r>   -2.9233    1.0000 </r>
       <r>   -2.7304    1.0000 </r>
       <r>   -0.3306    1.0000 </r>
       <r>    0.0202    1.0000 </r>
       <r>    0.3543    1.0000 </r>
       <r>    0.8024    1.0000 </r>
       <r>    1.5553    1.0000 </r>
       <r>    1.7510    1.0000 </r>
       <r>    1.9479    1.0000 </r>
       <r>    2.8724    1.0000 </r>
       <r>    3.0068    1.0000 </r>
       <r>    3.4348    1.0000 </r>
       <r>    3.9626    1.0000 </r>
       <r>    4.0606    1.0000 </r>
       <r>    4.4233    1.0000 </r>
       <r>    4.6025    1.0000 </r>
       <r>    4.6339    1.0000 </r>
       <r>    5.0284    1.0000 </r>
       <r>    5.2805    1.0000 </r>
       <r>    5.5881    1.0000 </r>
       <r>    5.7922    1.0000 </r>
       <r>    6.3749    1.0000 </r>
       <r>    6.4077    1.0000 </r>
       <r>    7.0078    1.0000 </r>
       <r>    7.1924    1.0000 </r>
       <r>    7.5504    1.0000 </r>
       <r>   10.8860    0.0000 </r>
       <r>   11.0684    0.0000 </r>
       <r>   11.5366    0.0000 </r>
       <r>   12.2089    0.0000 </r>
       <r>   12.2866    0.0000 </r>
       <r>   13.0633    0.0000 </r>
       <r>   13.5558    0.0000 </r>
       <r>   13.6949    0.0000 </r>
       <r>   14.2653    0.0000 </r>
       <r>   14.5456    0.0000 </r>
       <r>   14.8517    0.0000 </r>
       <r>   15.1739    0.0000 </r>
      </set>
      <set comment="kpoint 2">
       <r>   -8.6964    1.0000 </r>
       <r>   -7.4374    1.0000 </r>
       <r>   -7.0950    1.0000 </r>
       <r>   -7.0282    1.0000 </r>
       <r>   -6.5137    1.0000 </r>
       <r>   -4.2952    1.0000 </r>
       <r>   -3.3282    1.0000 </r>
       <r>   -2.8487    1.0000 </r>
       <r>   -0.1111    1.0000 </r>
       <r>    0.3033    1.0000 </r>
       <r>    0.5539    1.0000 </r>
       <r>    1.1305    1.0000 </r>
       <r>    1.2723    1.0000 </r>
       <r>    1.7325    1.0000 </r>
       <r>    2.1100    1.0000 </r>
       <r>    2.6999    1.0000 </r>
       <r>    3.6314    1.0000 </r>
       <r>    3.6940    1.0000 </r>
       <r>    3.8769    1.0000 </r>
       <r>    4.1966    1.0000 </r>
       <r>    4.5200    1.0000 </r>
       <r>    4.6898    1.0000 </r>
       <r>    4.8306    1.0000 </r>
       <r>    5.0614    1.0000 </r>
       <r>    5.2367    1.0000 </r>
       <r>    5.4518    1.0000 </r>
       <r>    5.7978    1.0000 </r>
       <r>    5.9224    1.0000 </r>
       <r>    6.1723    1.0000 </r>
       <r>    6.4605    1.0000 </r>
       <r>    6.7926    1.0000 </r>
       <r>    7.4599    1.0000 </r>
       <r>   11.0678    0.0000 </r>
       <r>   11.4326    0.0000 </r>
       <r>   11.8346    0.0000 </r>
       <r>   11.9841    0.0000 </r>
       <r>   12.3855    0.0000 </r>
       <r>   12.6939    0.0000 </r>
       <r>   12.7751    0.0000 </r>
       <r>   13.8168    0.0000 </r>
       <r>   14.3111    0.0000 </r>
       <r>   14.6786    0.0000 </r>
       <r>   15.0219    0.0000 </r>
       <r>   15.6816    0.0000 </r>
      </set>
      <set comment="kpoint 3">
       <r>   -8.3472    1.0000 </r>
       <r>   -7.7493    1.0000 </r>
       <r>   -7.2024    1.0000 </r>
       <r>   -7.0213    1.0000 </r>
       <r>   -6.5234    1.0000 </r>
       <r>   -4.1937    1.0000 </r>
       <r>   -3.8068    1.0000 </r>
       <r>   -2.7707    1.0000 </r>
       <r>   -0.4591    1.0000 </r>
       <r>    0.5775    1.0000 </r>
       <r>    0.8830    1.0000 </r>
       <r>    1.1375    1.0000 </r>
       <r>    1.5797    1.0000 </r>
       <r>    2.0605    1.0000 </r>
       <r>    2.5654    1.0000 </r>
       <r>    3.1095    1.0000 </r>
       <r>    3.3137    1.0000 </r>
       <r>    3.5163    1.0000 </r>
       <r>    4.0499    1.0000 </r>
       <r>    4.1251    1.0000 </r>
       <r>    4.4495    1.0000 </r>
       <r>    4.5693    1.0000 </r>
       <r>    4.7602    1.0000 </r>
       <r>    4.9305    1.0000 </r>
       <r>    5.2068    1.0000 </r>
       <r>    5.3999    1.0000 </r>
       <r>    5.7441    1.0000 </r>
       <r>    5.9199    1.0000 </r>
       <r>    6.2331    1.0000 </r>
       <r>    6.3946    1.0000 </r>
       <r>    6.4865    1.0000 </r>
       <r>    7.3780    1.0000 </r>
       <r>   10.8467    0.0000 </r>
       <r>   11.1858    0.0000 </r>
       <r>   11.4834    0.0000 </r>
       <r>   12.1102    0.0000 </r>
       <r>   12.2060    0.0000 </r>
       <r>   12.7576    0.0000 </r>
       <r>   13.4514    0.0000 </r>
       <r>   13.9575    0.0000 </r>
       <r>   14.0359    0.0000 </r>
       <r>   14.4948    0.0000 </r>
       <r>   14.6897    0.0000 </r>
       <r>   14.8172    0.0000 </r>
      </set>
      <set comment="kpoint 4">
       <r>   -8.7226    1.0000 </r>
       <r>   -7.5516    1.0000 </r>
       <r>   -7.0708    1.0000 </r>
       <r>   -6.8901    1.0000 </r>
       <r>   -6.5155    1.0000 </r>
       <r>   -4.6252    1.0000 </r>
       <r>   -2.9236    1.0000 </r>
       <r>   -2.7752    1.0000 </r>
       <r>   -0.0765    1.0000 </r>
       <r>    0.3876    1.0000 </r>
       <r>    0.8644    1.0000 </r>
       <r>    1.3249    1.0000 </r>
       <r>    1.4414    1.0000 </r>
       <r>    1.8707    1.0000 </r>
       <r>    2.2005    1.0000 </r>
       <r>    2.4584    1.0000 </r>
       <r>    3.0354    1.0000 </r>
       <r>    3.3145    1.0000 </r>
       <r>    3.5655    1.0000 </r>
       <r>    3.7372    1.0000 </r>
       <r>    4.2731    1.0000 </r>
       <r>    4.4939    1.0000 </r>
       <r>    4.7840    1.0000 </r>
       <r>    5.1299    1.0000 </r>
       <r>    5.4390    1.0000 </r>
       <r>    5.6160    1.0000 </r>
       <r>    5.7347    1.0000 </r>
       <r>    5.8665    1.0000 </r>
       <r>    6.0836    1.0000 </r>
       <r>    6.5100    1.0000 </r>
       <r>    7.0417    1.0000 </r>
       <r>    7.5588    1.0000 </r>
       <r>   10.8242    0.0000 </r>
       <r>   11.5280    0.0000 </r>
       <r>   11.7364    0.0000 </r>
       <r>   12.1555    0.0000 </r>
       <r>   12.3906    0.0000 </r>
       <r>   13.1964    0.0000 </r>
       <r>   13.6663    0.0000 </r>
       <r>   14.2886    0.0000 </r>
       <r>   14.4752    0.0000 </r>
       <r>   15.0647    0.0000 </r>
       <r>   15.3575    0.0000 </r>
       <r>   15.4595    0.0000 </r>
      </set>
      <set comment="kpoint 5">
       <r>   -8.4093    1.0000 </r>
       <r>   -7.7670    1.0000 </r>
       <r>   -7.1013    1.0000 </r>
       <r>   -7.0102    1.0000 </r>
       <r>   -6.5547    1.0000 </r>
       <r>   -4.6435    1.0000 </r>
       <r>   -3.1719    1.0000 </r>
       <r>   -2.8487    1.0000 </r>
       <r>   -0.1100    1.0000 </r>
       <r>    0.5475    1.0000 </r>
       <r>    1.1151    1.0000 </r>
       <r>    1.3020    1.0000 </r>
       <r>    1.7982    1.0000 </r>
       <r>    2.0345    1.0000 </r>
       <r>    2.4249    1.0000 </r>
       <r>    2.5669    1.0000 </r>
       <r>    2.9323    1.0000 </r>
       <r>    3.4481    1.0000 </r>
       <r>    3.8051    1.0000 </r>
       <r>    3.9995    1.0000 </r>
       <r>    4.3155    1.0000 </r>
       <r>    4.4708    1.0000 </r>
       <r>    4.8301    1.0000 </r>
       <r>    5.0420    1.0000 </r>
       <r>    5.2547    1.0000 </r>
       <r>    5.4746    1.0000 </r>
       <r>    5.5975    1.0000 </r>
       <r>    5.8848    1.0000 </r>
       <r>    5.9749    1.0000 </r>
       <r>    6.1678    1.0000 </r>
       <r>    6.4542    1.0000 </r>
       <r>    7.4569    1.0000 </r>
       <r>   11.1519    0.0000 </r>
       <r>   11.6674    0.0000 </r>
       <r>   11.8111    0.0000 </r>
       <r>   12.4111    0.0000 </r>
       <r>   12.6112    0.0000 </r>
       <r>   12.6989    0.0000 </r>
       <r>   13.3791    0.0000 </r>
       <r>   13.9938    0.0000 </r>
       <r>   14.1727    0.0000 </r>
       <r>   14.8401    0.0000 </r>
       <r>   14.9528    0.0000 </r>
       <r>   15.5476    0.0000 </r>
      </set>
      <set comment="kpoint 6">
       <r>   -8.4020    1.0000 </r>
       <r>   -7.6180    1.0000 </r>
       <r>   -7.2266    1.0000 </r>
       <r>   -7.0388    1.0000 </r>
       <r>   -6.5631    1.0000 </r>
       <r>   -4.2830    1.0000 </r>
       <r>   -3.6887    1.0000 </r>
       <r>   -2.7659    1.0000 </r>
       <r>   -0.4832    1.0000 </r>
       <r>    0.3588    1.0000 </r>
       <r>    0.8472    1.0000 </r>
       <r>    1.3234    1.0000 </r>
       <r>    1.5242    1.0000 </r>
       <r>    2.3057    1.0000 </r>
       <r>    2.5705    1.0000 </r>
       <r>    2.8800    1.0000 </r>
       <r>    3.2715    1.0000 </r>
       <r>    3.7279    1.0000 </r>
       <r>    4.1150    1.0000 </r>
       <r>    4.2542    1.0000 </r>
       <r>    4.4852    1.0000 </r>
       <r>    4.5513    1.0000 </r>
       <r>    4.7019    1.0000 </r>
       <r>    4.8907    1.0000 </r>
       <r>    5.2011    1.0000 </r>
       <r>    5.4870    1.0000 </r>
       <r>    5.7059    1.0000 </r>
       <r>    5.8082    1.0000 </r>
       <r>    6.1110    1.0000 </r>
       <r>    6.2457    1.0000 </r>
       <r>    6.6163    1.0000 </r>
       <r>    7.4013    1.0000 </r>
       <r>   10.6617    0.0000 </r>
       <r>   11.2310    0.0000 </r>
       <r>   11.5659    0.0000 </r>
       <r>   11.6667    0.0000 </r>
       <r>   12.3240    0.0000 </r>
       <r>   12.7741    0.0000 </r>
       <r>   13.0102    0.0000 </r>
       <r>   13.6811    0.0000 </r>
       <r>   14.5301    0.0000 </r>
       <r>   14.9519    0.0000 </r>
       <r>   15.1114    0.0000 </r>
       <r>   15.3634    0.0000 </r>
      </set>
      <set comment="kpoint 7">
       <r>   -8.7108    1.0000 </r>
       <r>   -7.4157    1.0000 </r>
       <r>   -7.0787    1.0000 </r>
       <r>   -6.9999    1.0000 </r>
       <r>   -6.5592    1.0000 </r>
       <r>   -4.3076    1.0000 </r>
       <r>   -3.3401    1.0000 </r>
       <r>   -2.8464    1.0000 </r>
       <r>   -0.1055    1.0000 </r>
       <r>    0.2933    1.0000 </r>
       <r>    0.5117    1.0000 </r>
       <r>    1.1247    1.0000 </r>
       <r>    1.3942    1.0000 </r>
       <r>    1.6580    1.0000 </r>
       <r>    2.1127    1.0000 </r>
       <r>    2.8386    1.0000 </r>
       <r>    3.4484    1.0000 </r>
       <r>    3.7027    1.0000 </r>
       <r>    4.0018    1.0000 </r>
       <r>    4.3440    1.0000 </r>
       <r>    4.4713    1.0000 </r>
       <r>    4.6628    1.0000 </r>
       <r>    4.8017    1.0000 </r>
       <r>    4.9998    1.0000 </r>
       <r>    5.1660    1.0000 </r>
       <r>    5.4573    1.0000 </r>
       <r>    5.7825    1.0000 </r>
       <r>    5.9699    1.0000 </r>
       <r>    6.0932    1.0000 </r>
       <r>    6.4257    1.0000 </r>
       <r>    6.9113    1.0000 </r>
       <r>    7.4623    1.0000 </r>
       <r>   10.9767    0.0000 </r>
       <r>   11.5083    0.0000 </r>
       <r>   11.7314    0.0000 </r>
       <r>   11.8655    0.0000 </r>
       <r>   12.2252    0.0000 </r>
       <r>   12.6731    0.0000 </r>
       <r>   12.7807    0.0000 </r>
       <r>   13.8548    0.0000 </r>
       <r>   14.3629    0.0000 </r>
       <r>   14.9543    0.0000 </r>
       <r>   15.1312    0.0000 </r>
       <r>   15.4721    0.0000 </r>
      </set>
      <set comment="kpoint 8">
       <r>   -8.4298    1.0000 </r>
       <r>   -7.8592    1.0000 </r>
       <r>   -7.0779    1.0000 </r>
       <r>   -6.9164    1.0000 </r>
       <r>   -6.5409    1.0000 </r>
       <r>   -4.8355    1.0000 </r>
       <r>   -2.9184    1.0000 </r>
       <r>   -2.8200    1.0000 </r>
       <r>    0.2766    1.0000 </r>
       <r>    0.3616    1.0000 </r>
       <r>    1.4895    1.0000 </r>
       <r>    1.5420    1.0000 </r>
       <r>    1.7777    1.0000 </r>
       <r>    2.1732    1.0000 </r>
       <r>    2.4404    1.0000 </r>
       <r>    2.8251    1.0000 </r>
       <r>    2.9071    1.0000 </r>
       <r>    2.9795    1.0000 </r>
       <r>    3.4799    1.0000 </r>
       <r>    3.6241    1.0000 </r>
       <r>    4.0400    1.0000 </r>
       <r>    4.2676    1.0000 </r>
       <r>    4.3030    1.0000 </r>
       <r>    4.5242    1.0000 </r>
       <r>    4.9380    1.0000 </r>
       <r>    5.5715    1.0000 </r>
       <r>    5.7314    1.0000 </r>
       <r>    5.8183    1.0000 </r>
       <r>    5.9524    1.0000 </r>
       <r>    6.3824    1.0000 </r>
       <r>    6.9568    1.0000 </r>
       <r>    7.5825    1.0000 </r>
       <r>   11.0530    0.0000 </r>
       <r>   12.0424    0.0000 </r>
       <r>   12.2404    0.0000 </r>
       <r>   12.2875    0.0000 </r>
       <r>   13.0258    0.0000 </r>
       <r>   13.1905    0.0000 </r>
       <r>   13.6273    0.0000 </r>
       <r>   13.8880    0.0000 </r>
       <r>   14.4813    0.0000 </r>
       <r>   14.7638    0.0000 </r>
       <r>   14.9667    0.0000 </r>
       <r>   15.3520    0.0000 </r>
      </set>
      <set comment="kpoint 9">
       <r>   -8.4427    1.0000 </r>
       <r>   -7.7143    1.0000 </r>
       <r>   -7.0732    1.0000 </r>
       <r>   -7.0173    1.0000 </r>
       <r>   -6.5895    1.0000 </r>
       <r>   -4.6524    1.0000 </r>
       <r>   -3.1821    1.0000 </r>
       <r>   -2.8486    1.0000 </r>
       <r>   -0.1073    1.0000 </r>
       <r>    0.4939    1.0000 </r>
       <r>    1.0257    1.0000 </r>
       <r>    1.4098    1.0000 </r>
       <r>    1.8982    1.0000 </r>
       <r>    2.0823    1.0000 </r>
       <r>    2.2600    1.0000 </r>
       <r>    2.6933    1.0000 </r>
       <r>    2.9820    1.0000 </r>
       <r>    3.6185    1.0000 </r>
       <r>    3.7178    1.0000 </r>
       <r>    3.9444    1.0000 </r>
       <r>    4.2696    1.0000 </r>
       <r>    4.4122    1.0000 </r>
       <r>    4.7671    1.0000 </r>
       <r>    4.9915    1.0000 </r>
       <r>    5.2220    1.0000 </r>
       <r>    5.5195    1.0000 </r>
       <r>    5.5981    1.0000 </r>
       <r>    5.8885    1.0000 </r>
       <r>    5.9503    1.0000 </r>
       <r>    6.2992    1.0000 </r>
       <r>    6.4245    1.0000 </r>
       <r>    7.4659    1.0000 </r>
       <r>   11.2305    0.0000 </r>
       <r>   11.5085    0.0000 </r>
       <r>   11.8588    0.0000 </r>
       <r>   11.9538    0.0000 </r>
       <r>   12.6633    0.0000 </r>
       <r>   12.7145    0.0000 </r>
       <r>   13.2816    0.0000 </r>
       <r>   13.9324    0.0000 </r>
       <r>   14.6097    0.0000 </r>
       <r>   14.8623    0.0000 </r>
       <r>   15.1577    0.0000 </r>
       <r>   15.4142    0.0000 </r>
      </set>
      <set comment="kpoint 10">
       <r>   -8.4171    1.0000 </r>
       <r>   -7.6458    1.0000 </r>
       <r>   -7.1375    1.0000 </r>
       <r>   -7.0353    1.0000 </r>
       <r>   -6.5957    1.0000 </r>
       <r>   -4.2367    1.0000 </r>
       <r>   -3.8003    1.0000 </r>
       <r>   -2.7722    1.0000 </r>
       <r>   -0.4532    1.0000 </r>
       <r>    0.5034    1.0000 </r>
       <r>    0.8491    1.0000 </r>
       <r>    1.1311    1.0000 </r>
       <r>    1.7370    1.0000 </r>
       <r>    2.0987    1.0000 </r>
       <r>    2.6971    1.0000 </r>
       <r>    3.0727    1.0000 </r>
       <r>    3.1641    1.0000 </r>
       <r>    3.7357    1.0000 </r>
       <r>    3.9955    1.0000 </r>
       <r>    4.1771    1.0000 </r>
       <r>    4.4320    1.0000 </r>
       <r>    4.5364    1.0000 </r>
       <r>    4.7201    1.0000 </r>
       <r>    4.8147    1.0000 </r>
       <r>    5.1160    1.0000 </r>
       <r>    5.4665    1.0000 </r>
       <r>    5.6883    1.0000 </r>
       <r>    5.9046    1.0000 </r>
       <r>    6.2495    1.0000 </r>
       <r>    6.3274    1.0000 </r>
       <r>    6.6659    1.0000 </r>
       <r>    7.3867    1.0000 </r>
       <r>   10.7387    0.0000 </r>
       <r>   11.1817    0.0000 </r>
       <r>   11.4780    0.0000 </r>
       <r>   12.0453    0.0000 </r>
       <r>   12.3167    0.0000 </r>
       <r>   12.4107    0.0000 </r>
       <r>   12.8096    0.0000 </r>
       <r>   13.6494    0.0000 </r>
       <r>   14.0662    0.0000 </r>
       <r>   14.6804    0.0000 </r>
       <r>   15.2319    0.0000 </r>
       <r>   15.6276    0.0000 </r>
      </set>
      <set comment="kpoint 11">
       <r>   -8.6575    1.0000 </r>
       <r>   -7.8827    1.0000 </r>
       <r>   -6.9736    1.0000 </r>
       <r>   -6.8168    1.0000 </r>
       <r>   -6.4539    1.0000 </r>
       <r>   -4.4399    1.0000 </r>
       <r>   -2.9813    1.0000 </r>
       <r>   -2.4956    1.0000 </r>
       <r>   -0.1806    1.0000 </r>
       <r>    0.2287    1.0000 </r>
       <r>    0.6774    1.0000 </r>
       <r>    1.1168    1.0000 </r>
       <r>    1.4960    1.0000 </r>
       <r>    1.7350    1.0000 </r>
       <r>    1.8806    1.0000 </r>
       <r>    2.7742    1.0000 </r>
       <r>    3.0131    1.0000 </r>
       <r>    3.1712    1.0000 </r>
       <r>    3.6223    1.0000 </r>
       <r>    3.8551    1.0000 </r>
       <r>    4.3801    1.0000 </r>
       <r>    4.5222    1.0000 </r>
       <r>    4.6805    1.0000 </r>
       <r>    4.9328    1.0000 </r>
       <r>    5.3056    1.0000 </r>
       <r>    5.3844    1.0000 </r>
       <r>    5.6198    1.0000 </r>
       <r>    6.2373    1.0000 </r>
       <r>    6.5976    1.0000 </r>
       <r>    6.7031    1.0000 </r>
       <r>    6.8966    1.0000 </r>
       <r>    7.0671    1.0000 </r>
       <r>   11.6387    0.0000 </r>
       <r>   12.1704    0.0000 </r>
       <r>   12.4443    0.0000 </r>
       <r>   12.6712    0.0000 </r>
       <r>   13.0711    0.0000 </r>
       <r>   13.2694    0.0000 </r>
       <r>   13.5967    0.0000 </r>
       <r>   14.0405    0.0000 </r>
       <r>   14.4782    0.0000 </r>
       <r>   14.6704    0.0000 </r>
       <r>   14.8757    0.0000 </r>
       <r>   15.0763    0.0000 </r>
      </set>
      <set comment="kpoint 12">
       <r>   -8.4315    1.0000 </r>
       <r>   -7.8426    1.0000 </r>
       <r>   -7.1500    1.0000 </r>
       <r>   -6.9190    1.0000 </r>
       <r>   -6.5444    1.0000 </r>
       <r>   -4.3513    1.0000 </r>
       <r>   -3.2728    1.0000 </r>
       <r>   -2.8987    1.0000 </r>
       <r>    0.1375    1.0000 </r>
       <r>    0.6667    1.0000 </r>
       <r>    1.0069    1.0000 </r>
       <r>    1.2852    1.0000 </r>
       <r>    1.5225    1.0000 </r>
       <r>    1.9119    1.0000 </r>
       <r>    2.0021    1.0000 </r>
       <r>    2.8278    1.0000 </r>
       <r>    3.0861    1.0000 </r>
       <r>    3.3660    1.0000 </r>
       <r>    3.7677    1.0000 </r>
       <r>    3.8636    1.0000 </r>
       <r>    4.0427    1.0000 </r>
       <r>    4.3215    1.0000 </r>
       <r>    4.6367    1.0000 </r>
       <r>    4.8796    1.0000 </r>
       <r>    5.1138    1.0000 </r>
       <r>    5.3302    1.0000 </r>
       <r>    5.6649    1.0000 </r>
       <r>    6.2456    1.0000 </r>
       <r>    6.3862    1.0000 </r>
       <r>    6.5090    1.0000 </r>
       <r>    6.6990    1.0000 </r>
       <r>    6.9839    1.0000 </r>
       <r>   11.9406    0.0000 </r>
       <r>   12.1393    0.0000 </r>
       <r>   12.2054    0.0000 </r>
       <r>   12.5649    0.0000 </r>
       <r>   13.0077    0.0000 </r>
       <r>   13.1206    0.0000 </r>
       <r>   13.3504    0.0000 </r>
       <r>   13.7914    0.0000 </r>
       <r>   14.2461    0.0000 </r>
       <r>   14.4660    0.0000 </r>
       <r>   14.6926    0.0000 </r>
       <r>   15.5818    0.0000 </r>
      </set>
      <set comment="kpoint 13">
       <r>   -8.2210    1.0000 </r>
       <r>   -7.5851    1.0000 </r>
       <r>   -7.3998    1.0000 </r>
       <r>   -7.1276    1.0000 </r>
       <r>   -6.6259    1.0000 </r>
       <r>   -4.0342    1.0000 </r>
       <r>   -3.9416    1.0000 </r>
       <r>   -3.1038    1.0000 </r>
       <r>    0.2834    1.0000 </r>
       <r>    0.9991    1.0000 </r>
       <r>    1.2265    1.0000 </r>
       <r>    1.4977    1.0000 </r>
       <r>    1.7496    1.0000 </r>
       <r>    2.1312    1.0000 </r>
       <r>    2.5878    1.0000 </r>
       <r>    2.7241    1.0000 </r>
       <r>    3.0586    1.0000 </r>
       <r>    3.2999    1.0000 </r>
       <r>    3.7039    1.0000 </r>
       <r>    4.0002    1.0000 </r>
       <r>    4.2514    1.0000 </r>
       <r>    4.3924    1.0000 </r>
       <r>    4.4860    1.0000 </r>
       <r>    4.7711    1.0000 </r>
       <r>    5.1867    1.0000 </r>
       <r>    5.3419    1.0000 </r>
       <r>    5.6500    1.0000 </r>
       <r>    5.9291    1.0000 </r>
       <r>    5.9857    1.0000 </r>
       <r>    6.2939    1.0000 </r>
       <r>    6.4075    1.0000 </r>
       <r>    6.6759    1.0000 </r>
       <r>   11.4395    0.0000 </r>
       <r>   11.9862    0.0000 </r>
       <r>   12.2207    0.0000 </r>
       <r>   12.3101    0.0000 </r>
       <r>   12.8162    0.0000 </r>
       <r>   13.1916    0.0000 </r>
       <r>   13.3999    0.0000 </r>
       <r>   13.7588    0.0000 </r>
       <r>   14.4252    0.0000 </r>
       <r>   14.9315    0.0000 </r>
       <r>   15.0483    0.0000 </r>
       <r>   15.1801    0.0000 </r>
      </set>
      <set comment="kpoint 14">
       <r>   -8.5281    1.0000 </r>
       <r>   -7.6646    1.0000 </r>
       <r>   -7.0941    1.0000 </r>
       <r>   -7.0332    1.0000 </r>
       <r>   -6.5386    1.0000 </r>
       <r>   -4.3435    1.0000 </r>
       <r>   -3.3279    1.0000 </r>
       <r>   -2.9582    1.0000 </r>
       <r>    0.2815    1.0000 </r>
       <r>    0.3788    1.0000 </r>
       <r>    0.8950    1.0000 </r>
       <r>    1.4006    1.0000 </r>
       <r>    1.6592    1.0000 </r>
       <r>    1.8140    1.0000 </r>
       <r>    2.2813    1.0000 </r>
       <r>    2.7349    1.0000 </r>
       <r>    3.2727    1.0000 </r>
       <r>    3.5270    1.0000 </r>
       <r>    3.6398    1.0000 </r>
       <r>    3.8995    1.0000 </r>
       <r>    4.1473    1.0000 </r>
       <r>    4.4171    1.0000 </r>
       <r>    4.7699    1.0000 </r>
       <r>    4.7839    1.0000 </r>
       <r>    5.0016    1.0000 </r>
       <r>    5.2778    1.0000 </r>
       <r>    5.6743    1.0000 </r>
       <r>    6.0298    1.0000 </r>
       <r>    6.2359    1.0000 </r>
       <r>    6.4871    1.0000 </r>
       <r>    6.7889    1.0000 </r>
       <r>    6.9189    1.0000 </r>
       <r>   11.5093    0.0000 </r>
       <r>   11.8962    0.0000 </r>
       <r>   12.1432    0.0000 </r>
       <r>   12.2955    0.0000 </r>
       <r>   12.7428    0.0000 </r>
       <r>   12.9275    0.0000 </r>
       <r>   13.6578    0.0000 </r>
       <r>   13.9571    0.0000 </r>
       <r>   14.3132    0.0000 </r>
       <r>   14.7885    0.0000 </r>
       <r>   15.1594    0.0000 </r>
       <r>   15.5835    0.0000 </r>
      </set>
      <set comment="kpoint 15">
       <r>   -8.4116    1.0000 </r>
       <r>   -7.9781    1.0000 </r>
       <r>   -7.1896    1.0000 </r>
       <r>   -6.8174    1.0000 </r>
       <r>   -6.4418    1.0000 </r>
       <r>   -4.7083    1.0000 </r>
       <r>   -3.0332    1.0000 </r>
       <r>   -2.4924    1.0000 </r>
       <r>   -0.0298    1.0000 </r>
       <r>    0.5749    1.0000 </r>
       <r>    1.2504    1.0000 </r>
       <r>    1.5214    1.0000 </r>
       <r>    1.7375    1.0000 </r>
       <r>    1.8323    1.0000 </r>
       <r>    2.0576    1.0000 </r>
       <r>    2.6264    1.0000 </r>
       <r>    2.8424    1.0000 </r>
       <r>    3.0397    1.0000 </r>
       <r>    3.4157    1.0000 </r>
       <r>    3.6638    1.0000 </r>
       <r>    4.0867    1.0000 </r>
       <r>    4.4335    1.0000 </r>
       <r>    4.7241    1.0000 </r>
       <r>    4.9801    1.0000 </r>
       <r>    5.1362    1.0000 </r>
       <r>    5.3869    1.0000 </r>
       <r>    5.6467    1.0000 </r>
       <r>    5.8225    1.0000 </r>
       <r>    6.2205    1.0000 </r>
       <r>    6.4083    1.0000 </r>
       <r>    6.7622    1.0000 </r>
       <r>    6.9574    1.0000 </r>
       <r>   11.5653    0.0000 </r>
       <r>   12.6779    0.0000 </r>
       <r>   12.8549    0.0000 </r>
       <r>   13.0056    0.0000 </r>
       <r>   13.1497    0.0000 </r>
       <r>   13.3968    0.0000 </r>
       <r>   13.6213    0.0000 </r>
       <r>   14.1707    0.0000 </r>
       <r>   14.3567    0.0000 </r>
       <r>   14.4869    0.0000 </r>
       <r>   14.8351    0.0000 </r>
       <r>   15.0665    0.0000 </r>
      </set>
      <set comment="kpoint 16">
       <r>   -8.1902    1.0000 </r>
       <r>   -7.8556    1.0000 </r>
       <r>   -7.3059    1.0000 </r>
       <r>   -7.0154    1.0000 </r>
       <r>   -6.5482    1.0000 </r>
       <r>   -4.7046    1.0000 </r>
       <r>   -3.2303    1.0000 </r>
       <r>   -2.9146    1.0000 </r>
       <r>    0.1989    1.0000 </r>
       <r>    0.9922    1.0000 </r>
       <r>    1.4746    1.0000 </r>
       <r>    1.5750    1.0000 </r>
       <r>    2.0007    1.0000 </r>
       <r>    2.1771    1.0000 </r>
       <r>    2.5404    1.0000 </r>
       <r>    2.6464    1.0000 </r>
       <r>    2.8810    1.0000 </r>
       <r>    3.0811    1.0000 </r>
       <r>    3.3440    1.0000 </r>
       <r>    3.7245    1.0000 </r>
       <r>    3.9625    1.0000 </r>
       <r>    4.4922    1.0000 </r>
       <r>    4.5625    1.0000 </r>
       <r>    4.8486    1.0000 </r>
       <r>    4.9932    1.0000 </r>
       <r>    5.3110    1.0000 </r>
       <r>    5.6170    1.0000 </r>
       <r>    5.7713    1.0000 </r>
       <r>    6.0624    1.0000 </r>
       <r>    6.2751    1.0000 </r>
       <r>    6.4194    1.0000 </r>
       <r>    6.7192    1.0000 </r>
       <r>   11.6997    0.0000 </r>
       <r>   12.0180    0.0000 </r>
       <r>   12.1249    0.0000 </r>
       <r>   12.4807    0.0000 </r>
       <r>   13.1347    0.0000 </r>
       <r>   13.2451    0.0000 </r>
       <r>   13.5226    0.0000 </r>
       <r>   13.8560    0.0000 </r>
       <r>   14.2132    0.0000 </r>
       <r>   14.8504    0.0000 </r>
       <r>   15.2402    0.0000 </r>
       <r>   15.4167    0.0000 </r>
      </set>
      <set comment="kpoint 17">
       <r>   -8.2656    1.0000 </r>
       <r>   -7.4994    1.0000 </r>
       <r>   -7.4061    1.0000 </r>
       <r>   -7.0988    1.0000 </r>
       <r>   -6.6836    1.0000 </r>
       <r>   -4.1894    1.0000 </r>
       <r>   -3.7758    1.0000 </r>
       <r>   -3.1207    1.0000 </r>
       <r>    0.2213    1.0000 </r>
       <r>    0.8862    1.0000 </r>
       <r>    1.1735    1.0000 </r>
       <r>    1.7362    1.0000 </r>
       <r>    1.8335    1.0000 </r>
       <r>    2.2728    1.0000 </r>
       <r>    2.4421    1.0000 </r>
       <r>    2.8492    1.0000 </r>
       <r>    2.9450    1.0000 </r>
       <r>    3.1986    1.0000 </r>
       <r>    3.6708    1.0000 </r>
       <r>    4.0418    1.0000 </r>
       <r>    4.3016    1.0000 </r>
       <r>    4.4211    1.0000 </r>
       <r>    4.5877    1.0000 </r>
       <r>    4.7825    1.0000 </r>
       <r>    5.0053    1.0000 </r>
       <r>    5.2607    1.0000 </r>
       <r>    5.6327    1.0000 </r>
       <r>    5.8729    1.0000 </r>
       <r>    6.0981    1.0000 </r>
       <r>    6.2655    1.0000 </r>
       <r>    6.4272    1.0000 </r>
       <r>    6.7113    1.0000 </r>
       <r>   11.3461    0.0000 </r>
       <r>   11.8638    0.0000 </r>
       <r>   12.1109    0.0000 </r>
       <r>   12.2667    0.0000 </r>
       <r>   12.8335    0.0000 </r>
       <r>   13.3175    0.0000 </r>
       <r>   13.5255    0.0000 </r>
       <r>   13.7684    0.0000 </r>
       <r>   14.3993    0.0000 </r>
       <r>   14.8457    0.0000 </r>
       <r>   15.2777    0.0000 </r>
       <r>   15.6554    0.0000 </r>
      </set>
      <set comment="kpoint 18">
       <r>   -8.4559    1.0000 </r>
       <r>   -7.8262    1.0000 </r>
       <r>   -7.0897    1.0000 </r>
       <r>   -6.9141    1.0000 </r>
       <r>   -6.5947    1.0000 </r>
       <r>   -4.3663    1.0000 </r>
       <r>   -3.2707    1.0000 </r>
       <r>   -2.9088    1.0000 </r>
       <r>    0.1308    1.0000 </r>
       <r>    0.6404    1.0000 </r>
       <r>    0.9818    1.0000 </r>
       <r>    1.3071    1.0000 </r>
       <r>    1.6170    1.0000 </r>
       <r>    1.8501    1.0000 </r>
       <r>    2.0513    1.0000 </r>
       <r>    2.8323    1.0000 </r>
       <r>    3.2398    1.0000 </r>
       <r>    3.3574    1.0000 </r>
       <r>    3.6742    1.0000 </r>
       <r>    3.9138    1.0000 </r>
       <r>    3.9665    1.0000 </r>
       <r>    4.3371    1.0000 </r>
       <r>    4.6209    1.0000 </r>
       <r>    4.9017    1.0000 </r>
       <r>    5.1295    1.0000 </r>
       <r>    5.1849    1.0000 </r>
       <r>    5.6061    1.0000 </r>
       <r>    6.2406    1.0000 </r>
       <r>    6.3583    1.0000 </r>
       <r>    6.6061    1.0000 </r>
       <r>    6.7538    1.0000 </r>
       <r>    6.9756    1.0000 </r>
       <r>   11.6806    0.0000 </r>
       <r>   12.0461    0.0000 </r>
       <r>   12.3461    0.0000 </r>
       <r>   12.5996    0.0000 </r>
       <r>   12.9504    0.0000 </r>
       <r>   13.0363    0.0000 </r>
       <r>   13.4680    0.0000 </r>
       <r>   13.9441    0.0000 </r>
       <r>   14.2480    0.0000 </r>
       <r>   14.6024    0.0000 </r>
       <r>   14.8080    0.0000 </r>
       <r>   15.0958    0.0000 </r>
      </set>
      <set comment="kpoint 19">
       <r>   -8.2942    1.0000 </r>
       <r>   -7.8653    1.0000 </r>
       <r>   -7.3420    1.0000 </r>
       <r>   -6.8538    1.0000 </r>
       <r>   -6.4513    1.0000 </r>
       <r>   -4.9933    1.0000 </r>
       <r>   -3.2005    1.0000 </r>
       <r>   -2.5837    1.0000 </r>
       <r>    0.3248    1.0000 </r>
       <r>    0.9614    1.0000 </r>
       <r>    1.3835    1.0000 </r>
       <r>    1.6392    1.0000 </r>
       <r>    1.9503    1.0000 </r>
       <r>    2.3548    1.0000 </r>
       <r>    2.4217    1.0000 </r>
       <r>    2.7109    1.0000 </r>
       <r>    2.8631    1.0000 </r>
       <r>    3.3071    1.0000 </r>
       <r>    3.4971    1.0000 </r>
       <r>    3.6799    1.0000 </r>
       <r>    3.9363    1.0000 </r>
       <r>    4.2420    1.0000 </r>
       <r>    4.5038    1.0000 </r>
       <r>    4.6396    1.0000 </r>
       <r>    4.9254    1.0000 </r>
       <r>    5.2634    1.0000 </r>
       <r>    5.3536    1.0000 </r>
       <r>    5.5510    1.0000 </r>
       <r>    5.7629    1.0000 </r>
       <r>    6.1212    1.0000 </r>
       <r>    6.4999    1.0000 </r>
       <r>    6.7244    1.0000 </r>
       <r>   11.3623    0.0000 </r>
       <r>   11.5399    0.0000 </r>
       <r>   12.7183    0.0000 </r>
       <r>   12.9303    0.0000 </r>
       <r>   13.4324    0.0000 </r>
       <r>   13.5255    0.0000 </r>
       <r>   14.1654    0.0000 </r>
       <r>   14.4373    0.0000 </r>
       <r>   14.5489    0.0000 </r>
       <r>   14.8821    0.0000 </r>
       <r>   15.1034    0.0000 </r>
       <r>   15.3802    0.0000 </r>
      </set>
      <set comment="kpoint 20">
       <r>   -8.3618    1.0000 </r>
       <r>   -7.6314    1.0000 </r>
       <r>   -7.2442    1.0000 </r>
       <r>   -7.0359    1.0000 </r>
       <r>   -6.5867    1.0000 </r>
       <r>   -4.7239    1.0000 </r>
       <r>   -3.3529    1.0000 </r>
       <r>   -2.9622    1.0000 </r>
       <r>    0.4884    1.0000 </r>
       <r>    0.9005    1.0000 </r>
       <r>    1.3280    1.0000 </r>
       <r>    1.8305    1.0000 </r>
       <r>    1.8702    1.0000 </r>
       <r>    1.9999    1.0000 </r>
       <r>    2.2565    1.0000 </r>
       <r>    2.7745    1.0000 </r>
       <r>    3.0626    1.0000 </r>
       <r>    3.2688    1.0000 </r>
       <r>    3.5505    1.0000 </r>
       <r>    3.8039    1.0000 </r>
       <r>    4.2135    1.0000 </r>
       <r>    4.4288    1.0000 </r>
       <r>    4.6005    1.0000 </r>
       <r>    4.8531    1.0000 </r>
       <r>    4.9865    1.0000 </r>
       <r>    5.1419    1.0000 </r>
       <r>    5.4049    1.0000 </r>
       <r>    5.7339    1.0000 </r>
       <r>    5.8787    1.0000 </r>
       <r>    6.0735    1.0000 </r>
       <r>    6.5208    1.0000 </r>
       <r>    6.7879    1.0000 </r>
       <r>   11.4246    0.0000 </r>
       <r>   11.8164    0.0000 </r>
       <r>   12.0731    0.0000 </r>
       <r>   12.3498    0.0000 </r>
       <r>   12.8841    0.0000 </r>
       <r>   13.2670    0.0000 </r>
       <r>   13.8379    0.0000 </r>
       <r>   14.1062    0.0000 </r>
       <r>   14.4943    0.0000 </r>
       <r>   14.7769    0.0000 </r>
       <r>   15.2700    0.0000 </r>
       <r>   15.5630    0.0000 </r>
      </set>
      <set comment="kpoint 21">
       <r>   -8.2830    1.0000 </r>
       <r>   -7.5133    1.0000 </r>
       <r>   -7.4161    1.0000 </r>
       <r>   -6.9474    1.0000 </r>
       <r>   -6.7846    1.0000 </r>
       <r>   -4.0685    1.0000 </r>
       <r>   -3.9352    1.0000 </r>
       <r>   -3.1343    1.0000 </r>
       <r>    0.3452    1.0000 </r>
       <r>    0.8503    1.0000 </r>
       <r>    1.2990    1.0000 </r>
       <r>    1.5222    1.0000 </r>
       <r>    1.8831    1.0000 </r>
       <r>    2.2975    1.0000 </r>
       <r>    2.6001    1.0000 </r>
       <r>    2.7005    1.0000 </r>
       <r>    3.0072    1.0000 </r>
       <r>    3.2097    1.0000 </r>
       <r>    3.5888    1.0000 </r>
       <r>    4.0506    1.0000 </r>
       <r>    4.2377    1.0000 </r>
       <r>    4.3845    1.0000 </r>
       <r>    4.6442    1.0000 </r>
       <r>    4.7410    1.0000 </r>
       <r>    5.0452    1.0000 </r>
       <r>    5.1683    1.0000 </r>
       <r>    5.5160    1.0000 </r>
       <r>    5.9221    1.0000 </r>
       <r>    6.0593    1.0000 </r>
       <r>    6.2183    1.0000 </r>
       <r>    6.4499    1.0000 </r>
       <r>    6.9105    1.0000 </r>
       <r>   11.5418    0.0000 </r>
       <r>   11.9275    0.0000 </r>
       <r>   12.2084    0.0000 </r>
       <r>   12.5674    0.0000 </r>
       <r>   12.8691    0.0000 </r>
       <r>   13.2445    0.0000 </r>
       <r>   13.4610    0.0000 </r>
       <r>   13.7666    0.0000 </r>
       <r>   14.1773    0.0000 </r>
       <r>   14.5397    0.0000 </r>
       <r>   14.9819    0.0000 </r>
       <r>   15.2748    0.0000 </r>
      </set>
      <set comment="kpoint 22">
       <r>   -8.2166    1.0000 </r>
       <r>   -7.8583    1.0000 </r>
       <r>   -7.2304    1.0000 </r>
       <r>   -7.0234    1.0000 </r>
       <r>   -6.5759    1.0000 </r>
       <r>   -4.7148    1.0000 </r>
       <r>   -3.2289    1.0000 </r>
       <r>   -2.9448    1.0000 </r>
       <r>    0.2705    1.0000 </r>
       <r>    0.8910    1.0000 </r>
       <r>    1.4842    1.0000 </r>
       <r>    1.6563    1.0000 </r>
       <r>    1.9581    1.0000 </r>
       <r>    2.4080    1.0000 </r>
       <r>    2.4499    1.0000 </r>
       <r>    2.6410    1.0000 </r>
       <r>    2.9051    1.0000 </r>
       <r>    3.0931    1.0000 </r>
       <r>    3.2762    1.0000 </r>
       <r>    3.6439    1.0000 </r>
       <r>    4.0700    1.0000 </r>
       <r>    4.4140    1.0000 </r>
       <r>    4.5676    1.0000 </r>
       <r>    4.8218    1.0000 </r>
       <r>    4.8640    1.0000 </r>
       <r>    5.2512    1.0000 </r>
       <r>    5.5667    1.0000 </r>
       <r>    5.7843    1.0000 </r>
       <r>    6.0889    1.0000 </r>
       <r>    6.2781    1.0000 </r>
       <r>    6.4367    1.0000 </r>
       <r>    6.8397    1.0000 </r>
       <r>   11.8237    0.0000 </r>
       <r>   11.9643    0.0000 </r>
       <r>   12.1902    0.0000 </r>
       <r>   12.9188    0.0000 </r>
       <r>   13.1934    0.0000 </r>
       <r>   13.3165    0.0000 </r>
       <r>   13.5366    0.0000 </r>
       <r>   13.7163    0.0000 </r>
       <r>   14.3521    0.0000 </r>
       <r>   14.7227    0.0000 </r>
       <r>   14.8949    0.0000 </r>
       <r>   15.3166    0.0000 </r>
      </set>
      <set comment="kpoint 23">
       <r>   -8.5944    1.0000 </r>
       <r>   -7.6819    1.0000 </r>
       <r>   -7.1925    1.0000 </r>
       <r>   -6.8479    1.0000 </r>
       <r>   -6.4495    1.0000 </r>
       <r>   -4.7518    1.0000 </r>
       <r>   -3.1356    1.0000 </r>
       <r>   -2.5716    1.0000 </r>
       <r>    0.0027    1.0000 </r>
       <r>    0.5849    1.0000 </r>
       <r>    1.0691    1.0000 </r>
       <r>    1.3000    1.0000 </r>
       <r>    1.4596    1.0000 </r>
       <r>    2.1160    1.0000 </r>
       <r>    2.5162    1.0000 </r>
       <r>    2.6902    1.0000 </r>
       <r>    2.9810    1.0000 </r>
       <r>    3.2779    1.0000 </r>
       <r>    3.7728    1.0000 </r>
       <r>    4.0261    1.0000 </r>
       <r>    4.3235    1.0000 </r>
       <r>    4.4027    1.0000 </r>
       <r>    4.5882    1.0000 </r>
       <r>    4.7080    1.0000 </r>
       <r>    4.8626    1.0000 </r>
       <r>    5.2014    1.0000 </r>
       <r>    5.4010    1.0000 </r>
       <r>    5.7506    1.0000 </r>
       <r>    6.1654    1.0000 </r>
       <r>    6.3775    1.0000 </r>
       <r>    6.7455    1.0000 </r>
       <r>    6.9120    1.0000 </r>
       <r>   11.0355    0.0000 </r>
       <r>   11.6120    0.0000 </r>
       <r>   12.3832    0.0000 </r>
       <r>   12.7632    0.0000 </r>
       <r>   12.9248    0.0000 </r>
       <r>   13.3922    0.0000 </r>
       <r>   14.1299    0.0000 </r>
       <r>   14.5274    0.0000 </r>
       <r>   14.8242    0.0000 </r>
       <r>   14.9342    0.0000 </r>
       <r>   15.2717    0.0000 </r>
       <r>   15.3686    0.0000 </r>
      </set>
      <set comment="kpoint 24">
       <r>   -8.5376    1.0000 </r>
       <r>   -7.6892    1.0000 </r>
       <r>   -7.0442    1.0000 </r>
       <r>   -6.9723    1.0000 </r>
       <r>   -6.6073    1.0000 </r>
       <r>   -4.3417    1.0000 </r>
       <r>   -3.3620    1.0000 </r>
       <r>   -2.9639    1.0000 </r>
       <r>    0.2862    1.0000 </r>
       <r>    0.4357    1.0000 </r>
       <r>    0.9105    1.0000 </r>
       <r>    1.3732    1.0000 </r>
       <r>    1.6155    1.0000 </r>
       <r>    1.8372    1.0000 </r>
       <r>    2.4270    1.0000 </r>
       <r>    2.8337    1.0000 </r>
       <r>    3.0397    1.0000 </r>
       <r>    3.4124    1.0000 </r>
       <r>    3.7752    1.0000 </r>
       <r>    3.9551    1.0000 </r>
       <r>    4.1836    1.0000 </r>
       <r>    4.3318    1.0000 </r>
       <r>    4.7250    1.0000 </r>
       <r>    4.8603    1.0000 </r>
       <r>    5.0029    1.0000 </r>
       <r>    5.0619    1.0000 </r>
       <r>    5.6004    1.0000 </r>
       <r>    6.1040    1.0000 </r>
       <r>    6.3112    1.0000 </r>
       <r>    6.3969    1.0000 </r>
       <r>    6.7971    1.0000 </r>
       <r>    7.0284    1.0000 </r>
       <r>   11.6544    0.0000 </r>
       <r>   11.9243    0.0000 </r>
       <r>   12.0386    0.0000 </r>
       <r>   12.5203    0.0000 </r>
       <r>   12.8353    0.0000 </r>
       <r>   13.2652    0.0000 </r>
       <r>   13.6714    0.0000 </r>
       <r>   13.7337    0.0000 </r>
       <r>   14.4227    0.0000 </r>
       <r>   14.5504    0.0000 </r>
       <r>   15.0431    0.0000 </r>
       <r>   15.2034    0.0000 </r>
      </set>
      <set comment="kpoint 25">
       <r>   -8.2478    1.0000 </r>
       <r>   -7.5693    1.0000 </r>
       <r>   -7.4177    1.0000 </r>
       <r>   -7.0069    1.0000 </r>
       <r>   -6.7091    1.0000 </r>
       <r>   -4.1878    1.0000 </r>
       <r>   -3.7612    1.0000 </r>
       <r>   -3.1533    1.0000 </r>
       <r>    0.2980    1.0000 </r>
       <r>    0.8097    1.0000 </r>
       <r>    1.2299    1.0000 </r>
       <r>    1.7739    1.0000 </r>
       <r>    1.8985    1.0000 </r>
       <r>    2.2993    1.0000 </r>
       <r>    2.4053    1.0000 </r>
       <r>    2.6470    1.0000 </r>
       <r>    2.9205    1.0000 </r>
       <r>    3.1614    1.0000 </r>
       <r>    3.7473    1.0000 </r>
       <r>    4.0542    1.0000 </r>
       <r>    4.2703    1.0000 </r>
       <r>    4.4435    1.0000 </r>
       <r>    4.5442    1.0000 </r>
       <r>    4.8224    1.0000 </r>
       <r>    5.1030    1.0000 </r>
       <r>    5.2897    1.0000 </r>
       <r>    5.5405    1.0000 </r>
       <r>    5.8362    1.0000 </r>
       <r>    6.0422    1.0000 </r>
       <r>    6.1431    1.0000 </r>
       <r>    6.4758    1.0000 </r>
       <r>    6.8508    1.0000 </r>
       <r>   11.4947    0.0000 </r>
       <r>   11.8887    0.0000 </r>
       <r>   12.4202    0.0000 </r>
       <r>   12.5575    0.0000 </r>
       <r>   12.9348    0.0000 </r>
       <r>   13.2315    0.0000 </r>
       <r>   13.5343    0.0000 </r>
       <r>   13.6995    0.0000 </r>
       <r>   14.1405    0.0000 </r>
       <r>   14.7184    0.0000 </r>
       <r>   14.8399    0.0000 </r>
       <r>   15.3279    0.0000 </r>
      </set>
      <set comment="kpoint 26">
       <r>   -8.3287    1.0000 </r>
       <r>   -7.6769    1.0000 </r>
       <r>   -7.2599    1.0000 </r>
       <r>   -7.0553    1.0000 </r>
       <r>   -6.5439    1.0000 </r>
       <r>   -4.7252    1.0000 </r>
       <r>   -3.3059    1.0000 </r>
       <r>   -2.9871    1.0000 </r>
       <r>    0.5245    1.0000 </r>
       <r>    0.8750    1.0000 </r>
       <r>    1.3803    1.0000 </r>
       <r>    1.6604    1.0000 </r>
       <r>    1.9019    1.0000 </r>
       <r>    2.0729    1.0000 </r>
       <r>    2.3124    1.0000 </r>
       <r>    2.6532    1.0000 </r>
       <r>    2.9146    1.0000 </r>
       <r>    3.1776    1.0000 </r>
       <r>    3.7002    1.0000 </r>
       <r>    3.8718    1.0000 </r>
       <r>    4.2190    1.0000 </r>
       <r>    4.4761    1.0000 </r>
       <r>    4.6584    1.0000 </r>
       <r>    4.7309    1.0000 </r>
       <r>    5.0268    1.0000 </r>
       <r>    5.1886    1.0000 </r>
       <r>    5.4220    1.0000 </r>
       <r>    5.7875    1.0000 </r>
       <r>    5.9149    1.0000 </r>
       <r>    6.2122    1.0000 </r>
       <r>    6.3171    1.0000 </r>
       <r>    6.7408    1.0000 </r>
       <r>   11.4237    0.0000 </r>
       <r>   11.9664    0.0000 </r>
       <r>   12.1609    0.0000 </r>
       <r>   12.4681    0.0000 </r>
       <r>   12.7857    0.0000 </r>
       <r>   13.1851    0.0000 </r>
       <r>   13.6829    0.0000 </r>
       <r>   14.0302    0.0000 </r>
       <r>   14.4849    0.0000 </r>
       <r>   14.9429    0.0000 </r>
       <r>   15.2004    0.0000 </r>
       <r>   15.4028    0.0000 </r>
      </set>
     </set>
    </set>
   </array>
  </eigenvalues>
  <separator name="orbital magnetization" >
   <v name="MAGDIPOLOUT">      0.00000000      0.00000000      0.00000000</v>
  </separator>
  <dos>
   <i name="efermi">      8.07862201 </i>
   <total>
    <array>
     <dimension dim="1">gridpoints</dimension>
     <dimension dim="2">spin</dimension>
     <field>energy</field>
     <field>total</field>
     <field>integrated</field>
     <set>
      <set comment="spin 1">
       <r>   -10.1307     0.0000     0.0000 </r>
       <r>   -10.0405     0.0000     0.0000 </r>
       <r>    -9.9504     0.0000     0.0000 </r>
       <r>    -9.8603     0.0000     0.0000 </r>
       <r>    -9.7701     0.0000     0.0000 </r>
       <r>    -9.6800     0.0000     0.0000 </r>
       <r>    -9.5899     0.0000     0.0000 </r>
       <r>    -9.4997     0.0000     0.0000 </r>
       <r>    -9.4096     0.0000     0.0000 </r>
       <r>    -9.3194     0.0000     0.0000 </r>
       <r>    -9.2293     0.0000     0.0000 </r>
       <r>    -9.1392     0.0002     0.0000 </r>
       <r>    -9.0490     0.0084     0.0008 </r>
       <r>    -8.9589     0.0886     0.0088 </r>
       <r>    -8.8688     0.2544     0.0317 </r>
       <r>    -8.7786     0.6038     0.0861 </r>
       <r>    -8.6885     1.6378     0.2337 </r>
       <r>    -8.5983     2.0452     0.4181 </r>
       <r>    -8.5082     2.3555     0.6304 </r>
       <r>    -8.4181     3.7769     0.9709 </r>
       <r>    -8.3279     4.3863     1.3662 </r>
       <r>    -8.2378     3.8599     1.7142 </r>
       <r>    -8.1476     2.4678     1.9366 </r>
       <r>    -8.0575     0.7857     2.0074 </r>
       <r>    -7.9674     0.8090     2.0803 </r>
       <r>    -7.8772     2.3512     2.2923 </r>
       <r>    -7.7871     3.5487     2.6121 </r>
       <r>    -7.6970     3.7074     2.9463 </r>
       <r>    -7.6068     4.2062     3.3255 </r>
       <r>    -7.5167     3.7572     3.6641 </r>
       <r>    -7.4265     3.7562     4.0027 </r>
       <r>    -7.3364     3.8869     4.3531 </r>
       <r>    -7.2463     3.8007     4.6957 </r>
       <r>    -7.1561     5.4292     5.1850 </r>
       <r>    -7.0660     9.1061     6.0058 </r>
       <r>    -6.9759    10.3962     6.9429 </r>
       <r>    -6.8857     6.8181     7.5575 </r>
       <r>    -6.7956     4.1084     7.9278 </r>
       <r>    -6.7054     2.7904     8.1793 </r>
       <r>    -6.6153     4.4004     8.5760 </r>
       <r>    -6.5252     7.5224     9.2540 </r>
       <r>    -6.4350     5.8871     9.7847 </r>
       <r>    -6.3449     2.0860     9.9727 </r>
       <r>    -6.2547     0.2907     9.9989 </r>
       <r>    -6.1646     0.0117    10.0000 </r>
       <r>    -6.0745     0.0001    10.0000 </r>
       <r>    -5.9843     0.0000    10.0000 </r>
       <r>    -5.8942     0.0000    10.0000 </r>
       <r>    -5.8041     0.0000    10.0000 </r>
       <r>    -5.7139     0.0000    10.0000 </r>
       <r>    -5.6238     0.0000    10.0000 </r>
       <r>    -5.5336     0.0000    10.0000 </r>
       <r>    -5.4435     0.0000    10.0000 </r>
       <r>    -5.3534     0.0000    10.0000 </r>
       <r>    -5.2632     0.0001    10.0000 </r>
       <r>    -5.1731     0.0050    10.0005 </r>
       <r>    -5.0830     0.0898    10.0086 </r>
       <r>    -4.9928     0.3766    10.0425 </r>
       <r>    -4.9027     0.4749    10.0853 </r>
       <r>    -4.8125     0.8639    10.1632 </r>
       <r>    -4.7224     2.6407    10.4012 </r>
       <r>    -4.6323     3.3932    10.7071 </r>
       <r>    -4.5421     1.6747    10.8580 </r>
       <r>    -4.4520     0.9232    10.9412 </r>
       <r>    -4.3618     2.3566    11.1537 </r>
       <r>    -4.2717     3.5693    11.4754 </r>
       <r>    -4.1816     2.6923    11.7181 </r>
       <r>    -4.0914     1.6385    11.8657 </r>
       <r>    -4.0013     1.3752    11.9897 </r>
       <r>    -3.9112     1.3678    12.1130 </r>
       <r>    -3.8210     1.3303    12.2329 </r>
       <r>    -3.7309     1.5981    12.3769 </r>
       <r>    -3.6407     1.0585    12.4724 </r>
       <r>    -3.5506     0.2901    12.4985 </r>
       <r>    -3.4605     0.2701    12.5229 </r>
       <r>    -3.3703     1.7330    12.6791 </r>
       <r>    -3.2802     3.9488    13.0350 </r>
       <r>    -3.1901     4.6810    13.4569 </r>
       <r>    -3.0999     4.3971    13.8533 </r>
       <r>    -3.0098     3.9239    14.2070 </r>
       <r>    -2.9196     5.4915    14.7020 </r>
       <r>    -2.8295     5.6323    15.2097 </r>
       <r>    -2.7394     3.6003    15.5342 </r>
       <r>    -2.6492     1.5953    15.6780 </r>
       <r>    -2.5591     1.3131    15.7963 </r>
       <r>    -2.4689     1.4751    15.9293 </r>
       <r>    -2.3788     0.6843    15.9910 </r>
       <r>    -2.2887     0.0967    15.9997 </r>
       <r>    -2.1985     0.0034    16.0000 </r>
       <r>    -2.1084     0.0000    16.0000 </r>
       <r>    -2.0183     0.0000    16.0000 </r>
       <r>    -1.9281     0.0000    16.0000 </r>
       <r>    -1.8380     0.0000    16.0000 </r>
       <r>    -1.7478     0.0000    16.0000 </r>
       <r>    -1.6577     0.0000    16.0000 </r>
       <r>    -1.5676     0.0000    16.0000 </r>
       <r>    -1.4774     0.0000    16.0000 </r>
       <r>    -1.3873     0.0000    16.0000 </r>
       <r>    -1.2972     0.0000    16.0000 </r>
       <r>    -1.2070     0.0000    16.0000 </r>
       <r>    -1.1169     0.0000    16.0000 </r>
       <r>    -1.0267     0.0000    16.0000 </r>
       <r>    -0.9366     0.0000    16.0000 </r>
       <r>    -0.8465     0.0000    16.0000 </r>
       <r>    -0.7563     0.0001    16.0000 </r>
       <r>    -0.6662     0.0058    16.0005 </r>
       <r>    -0.5760     0.1235    16.0117 </r>
       <r>    -0.4859     0.6370    16.0691 </r>
       <r>    -0.3958     0.8843    16.1488 </r>
       <r>    -0.3056     0.5182    16.1955 </r>
       <r>    -0.2155     0.6746    16.2563 </r>
       <r>    -0.1254     2.0409    16.4403 </r>
       <r>    -0.0352     2.9655    16.7076 </r>
       <r>     0.0549     2.0697    16.8941 </r>
       <r>     0.1451     1.8595    17.0617 </r>
       <r>     0.2352     3.6491    17.3907 </r>
       <r>     0.3253     5.9357    17.9257 </r>
       <r>     0.4155     5.3058    18.4039 </r>
       <r>     0.5056     4.2213    18.7844 </r>
       <r>     0.5958     4.2632    19.1687 </r>
       <r>     0.6859     2.9871    19.4380 </r>
       <r>     0.7760     2.2121    19.6374 </r>
       <r>     0.8662     4.2652    20.0218 </r>
       <r>     0.9563     5.6944    20.5351 </r>
       <r>     1.0464     4.7454    20.9629 </r>
       <r>     1.1366     4.2564    21.3465 </r>
       <r>     1.2267     4.5568    21.7573 </r>
       <r>     1.3169     6.1122    22.3082 </r>
       <r>     1.4070     6.9023    22.9304 </r>
       <r>     1.4971     6.8204    23.5451 </r>
       <r>     1.5873     6.4601    24.1274 </r>
       <r>     1.6774     5.9252    24.6615 </r>
       <r>     1.7675     6.6113    25.2574 </r>
       <r>     1.8577     7.8476    25.9648 </r>
       <r>     1.9478     7.5120    26.6419 </r>
       <r>     2.0380     6.2077    27.2015 </r>
       <r>     2.1281     5.7568    27.7204 </r>
       <r>     2.2182     4.7154    28.1454 </r>
       <r>     2.3084     4.8581    28.5833 </r>
       <r>     2.3985     5.2210    29.0539 </r>
       <r>     2.4887     5.2093    29.5235 </r>
       <r>     2.5788     5.0892    29.9822 </r>
       <r>     2.6689     6.3242    30.5523 </r>
       <r>     2.7591     6.7479    31.1605 </r>
       <r>     2.8492     6.9819    31.7899 </r>
       <r>     2.9393     7.5449    32.4699 </r>
       <r>     3.0295     7.1796    33.1171 </r>
       <r>     3.1196     6.4603    33.6994 </r>
       <r>     3.2098     5.5896    34.2033 </r>
       <r>     3.2999     6.1888    34.7611 </r>
       <r>     3.3900     5.7019    35.2751 </r>
       <r>     3.4802     4.5515    35.6853 </r>
       <r>     3.5703     4.8113    36.1190 </r>
       <r>     3.6604     7.2523    36.7727 </r>
       <r>     3.7506     8.9053    37.5754 </r>
       <r>     3.8407     7.0799    38.2136 </r>
       <r>     3.9309     6.3596    38.7868 </r>
       <r>     4.0210     7.5017    39.4630 </r>
       <r>     4.1111     6.9557    40.0900 </r>
       <r>     4.2013     6.0937    40.6393 </r>
       <r>     4.2914     7.8632    41.3481 </r>
       <r>     4.3816     9.4071    42.1960 </r>
       <r>     4.4717    10.7044    43.1609 </r>
       <r>     4.5618    10.4265    44.1007 </r>
       <r>     4.6520     9.3179    44.9406 </r>
       <r>     4.7421     9.5119    45.7980 </r>
       <r>     4.8322    10.1174    46.7099 </r>
       <r>     4.9224     9.1185    47.5319 </r>
       <r>     5.0125     8.3279    48.2825 </r>
       <r>     5.1027     8.2250    49.0239 </r>
       <r>     5.1928     8.5129    49.7912 </r>
       <r>     5.2829     8.5460    50.5616 </r>
       <r>     5.3731     7.3792    51.2267 </r>
       <r>     5.4632     6.7560    51.8357 </r>
       <r>     5.5533     6.9964    52.4663 </r>
       <r>     5.6435     8.0722    53.1939 </r>
       <r>     5.7336     8.0672    53.9211 </r>
       <r>     5.8238     8.3058    54.6698 </r>
       <r>     5.9139     8.1716    55.4064 </r>
       <r>     6.0040     7.2582    56.0606 </r>
       <r>     6.0942     7.2463    56.7138 </r>
       <r>     6.1843     8.0079    57.4356 </r>
       <r>     6.2745     8.7544    58.2247 </r>
       <r>     6.3646     8.9028    59.0272 </r>
       <r>     6.4547     9.3843    59.8730 </r>
       <r>     6.5449     7.2274    60.5245 </r>
       <r>     6.6350     4.5026    60.9304 </r>
       <r>     6.7251     5.5251    61.4284 </r>
       <r>     6.8153     6.4192    62.0070 </r>
       <r>     6.9054     5.4181    62.4954 </r>
       <r>     6.9956     4.7415    62.9228 </r>
       <r>     7.0857     3.0497    63.1977 </r>
       <r>     7.1758     1.1213    63.2987 </r>
       <r>     7.2660     0.3944    63.3343 </r>
       <r>     7.3561     0.8127    63.4075 </r>
       <r>     7.4462     2.2485    63.6102 </r>
       <r>     7.5364     2.5632    63.8412 </r>
       <r>     7.6265     1.3793    63.9656 </r>
       <r>     7.7167     0.3518    63.9973 </r>
       <r>     7.8068     0.0295    63.9999 </r>
       <r>     7.8969     0.0006    64.0000 </r>
       <r>     7.9871     0.0000    64.0000 </r>
       <r>     8.0772     0.0000    64.0000 </r>
       <r>     8.1674     0.0000    64.0000 </r>
       <r>     8.2575     0.0000    64.0000 </r>
       <r>     8.3476     0.0000    64.0000 </r>
       <r>     8.4378     0.0000    64.0000 </r>
       <r>     8.5279     0.0000    64.0000 </r>
       <r>     8.6180     0.0000    64.0000 </r>
       <r>     8.7082     0.0000    64.0000 </r>
       <r>     8.7983     0.0000    64.0000 </r>
       <r>     8.8885     0.0000    64.0000 </r>
       <r>     8.9786     0.0000    64.0000 </r>
       <r>     9.0687     0.0000    64.0000 </r>
       <r>     9.1589     0.0000    64.0000 </r>
       <r>     9.2490     0.0000    64.0000 </r>
       <r>     9.3391     0.0000    64.0000 </r>
       <r>     9.4293     0.0000    64.0000 </r>
       <r>     9.5194     0.0000    64.0000 </r>
       <r>     9.6096     0.0000    64.0000 </r>
       <r>     9.6997     0.0000    64.0000 </r>
       <r>     9.7898     0.0000    64.0000 </r>
       <r>     9.8800     0.0000    64.0000 </r>
       <r>     9.9701     0.0000    64.0000 </r>
       <r>    10.0603     0.0000    64.0000 </r>
       <r>    10.1504     0.0000    64.0000 </r>
       <r>    10.2405     0.0000    64.0000 </r>
       <r>    10.3307     0.0000    64.0000 </r>
       <r>    10.4208     0.0003    64.0000 </r>
       <r>    10.5109     0.0153    64.0014 </r>
       <r>    10.6011     0.1782    64.0175 </r>
       <r>    10.6912     0.5698    64.0688 </r>
       <r>    10.7814     0.8238    64.1431 </r>
       <r>    10.8715     1.0425    64.2371 </r>
       <r>    10.9616     1.1543    64.3411 </r>
       <r>    11.0518     1.6908    64.4935 </r>
       <r>    11.1419     1.9979    64.6736 </r>
       <r>    11.2320     1.9710    64.8513 </r>
       <r>    11.3222     1.8515    65.0181 </r>
       <r>    11.4123     2.9431    65.2834 </r>
       <r>    11.5025     5.1883    65.7511 </r>
       <r>    11.5926     5.8674    66.2800 </r>
       <r>    11.6827     4.9579    66.7269 </r>
       <r>    11.7729     4.3136    67.1157 </r>
       <r>    11.8630     5.0466    67.5706 </r>
       <r>    11.9532     6.2704    68.1358 </r>
       <r>    12.0433     6.0989    68.6855 </r>
       <r>    12.1334     6.0562    69.2314 </r>
       <r>    12.2236     6.7774    69.8423 </r>
       <r>    12.3137     6.3266    70.4126 </r>
       <r>    12.4038     5.7907    70.9345 </r>
       <r>    12.4940     4.7837    71.3657 </r>
       <r>    12.5841     4.1685    71.7415 </r>
       <r>    12.6743     5.1998    72.2102 </r>
       <r>    12.7644     6.7144    72.8154 </r>
       <r>    12.8545     6.7576    73.4245 </r>
       <r>    12.9447     6.0021    73.9655 </r>
       <r>    13.0348     5.0251    74.4185 </r>
       <r>    13.1249     4.3489    74.8105 </r>
       <r>    13.2151     5.3856    75.2959 </r>
       <r>    13.3052     6.0370    75.8401 </r>
       <r>    13.3954     5.2210    76.3107 </r>
       <r>    13.4855     4.8548    76.7483 </r>
       <r>    13.5756     4.8629    77.1867 </r>
       <r>    13.6658     5.4045    77.6738 </r>
       <r>    13.7559     5.9314    78.2084 </r>
       <r>    13.8461     4.8965    78.6498 </r>
       <r>    13.9362     3.8294    78.9950 </r>
       <r>    14.0263     3.5581    79.3157 </r>
       <r>    14.1165     3.7911    79.6574 </r>
       <r>    14.2066     4.5225    80.0651 </r>
       <r>    14.2967     4.5671    80.4768 </r>
       <r>    14.3869     4.9077    80.9191 </r>
       <r>    14.4770     6.3395    81.4906 </r>
       <r>    14.5672     6.5777    82.0835 </r>
       <r>    14.6573     4.8175    82.5177 </r>
       <r>    14.7474     4.8028    82.9506 </r>
       <r>    14.8376     6.5869    83.5444 </r>
       <r>    14.9277     7.6040    84.2298 </r>
       <r>    15.0178     6.5674    84.8217 </r>
       <r>    15.1080     6.0963    85.3712 </r>
       <r>    15.1981     5.9059    85.9036 </r>
       <r>    15.2883     5.6542    86.4133 </r>
       <r>    15.3784     5.5936    86.9175 </r>
       <r>    15.4685     4.4788    87.3212 </r>
       <r>    15.5587     3.1098    87.6015 </r>
       <r>    15.6488     2.6130    87.8370 </r>
       <r>    15.7390     1.4449    87.9672 </r>
       <r>    15.8291     0.3382    87.9977 </r>
       <r>    15.9192     0.0247    88.0000 </r>
       <r>    16.0094     0.0005    88.0000 </r>
       <r>    16.0995     0.0000    88.0000 </r>
       <r>    16.1896     0.0000    88.0000 </r>
       <r>    16.2798     0.0000    88.0000 </r>
       <r>    16.3699     0.0000    88.0000 </r>
       <r>    16.4601     0.0000    88.0000 </r>
       <r>    16.5502     0.0000    88.0000 </r>
       <r>    16.6403     0.0000    88.0000 </r>
       <r>    16.7305     0.0000    88.0000 </r>
       <r>    16.8206     0.0000    88.0000 </r>
       <r>    16.9107     0.0000    88.0000 </r>
      </set>
     </set>
    </array>
   </total>
  </dos>
 </calculation>
 <structure name="finalpos" >
  <crystal>
   <varray name="basis" >
    <v>       5.40075939      -0.00157945       0.00070041 </v>
    <v>      -2.70195971       5.28053991       0.01797332 </v>
    <v>       0.00131635      -1.85765315       5.95004421 </v>
   </varray>
   <i name="volume">    169.84730750 </i>
   <varray name="rec_basis" >
    <v>       0.18518300       0.09465445       0.02951094 </v>
    <v>       0.00004767       0.18919791       0.05906915 </v>
    <v>      -0.00002194      -0.00058265       0.16788407 </v>
   </varray>
  </crystal>
  <varray name="positions" >
   <v>       0.41226759       0.50176811       0.87246090 </v>
   <v>       0.92418780       0.49824116       0.62351886 </v>
   <v>       0.41018690       0.49889288       0.37726531 </v>
   <v>       0.83369443       0.00684029       0.25041144 </v>
   <v>       0.33387439       0.99966640       0.99823012 </v>
   <v>       0.83906439       0.00890279       0.75378647 </v>
   <v>       0.34134041       0.01090954       0.50472566 </v>
   <v>       0.91257886       0.49422875       0.12458143 </v>
   <v>       0.14162831       0.61022957       0.89506149 </v>
   <v>       0.64496254       0.60708454       0.65022336 </v>
   <v>       0.14787271       0.61737842       0.41162384 </v>
   <v>       0.62183123       0.61230315       0.15400278 </v>
   <v>       0.72260312       0.11705705       0.03070372 </v>
   <v>       0.24148789       0.14501226       0.78905537 </v>
   <v>       0.73813837       0.13422924       0.53233008 </v>
   <v>       0.23428107       0.13725586       0.28201918 </v>
  </varray>
 </structure>
</modeling>
