<?xml version="1.0" encoding="ISO-8859-1"?>
<modeling>
 <generator>
  <i name="program" type="string">vasp </i>
  <i name="version" type="string">5.3.5  </i>
  <i name="subversion" type="string">31Mar14 (build Jun 20 2014 13:15:13) complex                          parallel </i>
  <i name="platform" type="string">LinuxIFC </i>
  <i name="date" type="string">2025 12 12 </i>
  <i name="time" type="string">11:37:09 </i>
 </generator>
 <incar>
  <i type="string" name="PREC">accurate</i>
  <i type="int" name="IALGO">    38</i>
  <i type="logical" name="ADDGRID"> T  </i>
  <i type="int" name="ISPIN">     2</i>
  <i type="int" name="NELM">   100</i>
  <i type="int" name="NELMIN">     4</i>
  <i name="EDIFF">      0.00000100</i>
  <i name="ENCUT">    500.00000000</i>
  <i type="logical" name="LREAL"> F  </i>
  <i type="int" name="ISMEAR">     0</i>
  <i name="SIGMA">      0.05000000</i>
  <i type="logical" name="LWAVE"> F  </i>
  <i type="logical" name="LCHARG"> F  </i>
  <i type="int" name="NELM">   100</i>
  <i type="logical" name="LDAU"> T  </i>
  <v name="LDAUU">      0.00000000      4.00000000      0.00000000</v>
  <v name="LDAUJ">      0.00000000      0.00000000      0.00000000</v>
 </incar>
 <kpoints>
  <generation param="Auto">
   <i name="subdivisionlength">     20.00000000 </i>
   <v type="int" name="divisions">       5        5        1 </v>
   <v name="usershift">      0.00000000       0.00000000       0.00000000 </v>
   <v name="genvec1">      0.20000000       0.00000000       0.00000000 </v>
   <v name="genvec2">      0.00000000       0.20000000       0.00000000 </v>
   <v name="genvec3">      0.00000000       0.00000000       1.00000000 </v>
   <v name="shift">      0.00000000       0.00000000       0.00000000 </v>
  </generation>
  <varray name="kpointlist" >
   <v>       0.00000000       0.00000000       0.00000000 </v>
   <v>       0.20000000       0.00000000       0.00000000 </v>
   <v>       0.40000000       0.00000000       0.00000000 </v>
   <v>       0.00000000       0.20000000       0.00000000 </v>
   <v>       0.20000000       0.20000000       0.00000000 </v>
   <v>       0.40000000       0.20000000       0.00000000 </v>
   <v>       0.00000000       0.40000000       0.00000000 </v>
   <v>       0.20000000       0.40000000       0.00000000 </v>
   <v>       0.40000000       0.40000000       0.00000000 </v>
  </varray>
  <varray name="weights" >
   <v>       0.04000000 </v>
   <v>       0.08000000 </v>
   <v>       0.08000000 </v>
   <v>       0.08000000 </v>
   <v>       0.16000000 </v>
   <v>       0.16000000 </v>
   <v>       0.08000000 </v>
   <v>       0.16000000 </v>
   <v>       0.16000000 </v>
  </varray>
 </kpoints>
 <parameters>
  <separator name="general" >
   <i type="string" name="SYSTEM">unknown system</i>
   <i type="logical" name="LCOMPAT"> F  </i>
  </separator>
  <separator name="electronic" >
   <i type="string" name="PREC">accura</i>
   <i name="ENMAX">    500.00000000</i>
   <i name="ENAUG">    586.98000000</i>
   <i name="EDIFF">      0.00000100</i>
   <i type="int" name="IALGO">    38</i>
   <i type="int" name="IWAVPR">    10</i>
   <i type="int" name="NBANDS">    88</i>
   <i name="NELECT">    132.00000000</i>
   <i type="int" name="TURBO">     0</i>
   <i type="int" name="IRESTART">     0</i>
   <i type="int" name="NREBOOT">     0</i>
   <i type="int" name="NMIN">     0</i>
   <i name="EREF">      0.00000000</i>
   <separator name="electronic smearing" >
    <i type="int" name="ISMEAR">     0</i>
    <i name="SIGMA">      0.05000000</i>
    <i name="KSPACING">      0.50000000</i>
    <i type="logical" name="KGAMMA"> T  </i>
   </separator>
   <separator name="electronic projectors" >
    <i type="logical" name="LREAL"> F  </i>
    <v name="ROPT">      0.00000000      0.00000000      0.00000000</v>
    <i type="int" name="LMAXPAW">  -100</i>
    <i type="int" name="LMAXMIX">     2</i>
    <i type="logical" name="NLSPLINE"> F  </i>
   </separator>
   <separator name="electronic startup" >
    <i type="int" name="ISTART">     0</i>
    <i type="int" name="ICHARG">     2</i>
    <i type="int" name="INIWAV">     1</i>
   </separator>
   <separator name="electronic spin" >
    <i type="int" name="ISPIN">     2</i>
    <i type="logical" name="LNONCOLLINEAR"> F  </i>
    <v name="MAGMOM">      1.00000000      1.00000000      1.00000000      1.00000000      1.00000000      1.00000000      1.00000000      1.00000000      1.00000000      1.00000000      1.00000000      1.00000000      1.00000000      1.00000000      1.00000000      1.00000000</v>
    <i name="NUPDOWN">     -1.00000000</i>
    <i type="logical" name="LSORBIT"> F  </i>
    <v name="SAXIS">      0.00000000      0.00000000      1.00000000</v>
    <i type="logical" name="LSPIRAL"> F  </i>
    <v name="QSPIRAL">      0.00000000      0.00000000      0.00000000</v>
    <i type="logical" name="LZEROZ"> F  </i>
   </separator>
   <separator name="electronic exchange-correlation" >
    <i type="logical" name="LASPH"> F  </i>
    <i type="logical" name="LMETAGGA"> F  </i>
   </separator>
   <separator name="electronic convergence" >
    <i type="int" name="NELM">   100</i>
    <i type="int" name="NELMDL">    -5</i>
    <i type="int" name="NELMIN">     4</i>
    <i name="ENINI">    500.00000000</i>
    <separator name="electronic convergence detail" >
     <i type="logical" name="LDIAG"> T  </i>
     <i type="logical" name="LSUBROT"> F  </i>
     <i name="WEIMIN">      0.00000000</i>
     <i name="EBREAK">      0.00000000</i>
     <i name="DEPER">      0.30000000</i>
     <i type="int" name="NRMM">     4</i>
     <i name="TIME">      0.40000000</i>
    </separator>
   </separator>
   <separator name="electronic mixer" >
    <i name="AMIX">      0.40000000</i>
    <i name="BMIX">      1.00000000</i>
    <i name="AMIN">      0.10000000</i>
    <i name="AMIX_MAG">      1.60000000</i>
    <i name="BMIX_MAG">      1.00000000</i>
    <separator name="electronic mixer details" >
     <i type="int" name="IMIX">     4</i>
     <i type="int" name="MAXMIX">   -45</i>
     <i name="WC">    100.00000000</i>
     <i type="int" name="INIMIX">     1</i>
     <i type="int" name="MIXPRE">     1</i>
     <i type="int" name="MREMOVE">     5</i>
    </separator>
   </separator>
   <separator name="electronic dipolcorrection" >
    <i type="logical" name="LDIPOL"> F  </i>
    <i type="logical" name="LMONO"> F  </i>
    <i type="int" name="IDIPOL">     0</i>
    <i name="EPSILON">      1.00000000</i>
    <v name="DIPOL">   -100.00000000   -100.00000000   -100.00000000</v>
    <i name="EFIELD">      0.00000000</i>
   </separator>
  </separator>
  <separator name="grids" >
   <i type="int" name="NGX">    30</i>
   <i type="int" name="NGY">    30</i>
   <i type="int" name="NGZ">   120</i>
   <i type="int" name="NGXF">    60</i>
   <i type="int" name="NGYF">    60</i>
   <i type="int" name="NGZF">   240</i>
   <i type="logical" name="ADDGRID"> T  </i>
  </separator>
  <separator name="ionic" >
   <i type="int" name="NSW">     0</i>
   <i type="int" name="IBRION">    -1</i>
   <i type="int" name="ISIF">     2</i>
   <i name="PSTRESS">      0.00000000</i>
   <i name="EDIFFG">      0.00001000</i>
   <i type="int" name="NFREE">     0</i>
   <i name="POTIM">      0.50000000</i>
   <i name="SMASS">     -3.00000000</i>
   <i name="SCALEE">      1.00000000</i>
  </separator>
  <separator name="ionic md" >
   <i name="TEBEG">      0.00010000</i>
   <i name="TEEND">      0.00010000</i>
   <i type="int" name="NBLOCK">     1</i>
   <i type="int" name="KBLOCK">     1</i>
   <i type="int" name="NPACO">   256</i>
   <i name="APACO">     16.00000000</i>
  </separator>
  <separator name="symmetry" >
   <i type="int" name="ISYM">     2</i>
   <i name="SYMPREC">      0.00001000</i>
  </separator>
  <separator name="dos" >
   <i type="logical" name="LORBIT"> F  </i>
   <v name="RWIGS">     -1.00000000     -1.00000000     -1.00000000</v>
   <i type="int" name="NEDOS">   301</i>
   <i name="EMIN">     10.00000000</i>
   <i name="EMAX">    -10.00000000</i>
   <i name="EFERMI">      0.00000000</i>
  </separator>
  <separator name="writing" >
   <i type="int" name="NWRITE">     2</i>
   <i type="logical" name="LWAVE"> F  </i>
   <i type="logical" name="LCHARG"> F  </i>
   <i type="logical" name="LPARD"> F  </i>
   <i type="logical" name="LVTOT"> F  </i>
   <i type="logical" name="LVHAR"> F  </i>
   <i type="logical" name="LELF"> F  </i>
   <i type="logical" name="LOPTICS"> F  </i>
   <v name="STM">      0.00000000      0.00000000      0.00000000      0.00000000      0.00000000      0.00000000      0.00000000</v>
  </separator>
  <separator name="performance" >
   <i type="int" name="NPAR">     4</i>
   <i type="int" name="NSIM">     4</i>
   <i type="int" name="NBLK">    -1</i>
   <i type="logical" name="LPLANE"> T  </i>
   <i type="logical" name="LSCALAPACK"> T  </i>
   <i type="logical" name="LSCAAWARE"> F  </i>
   <i type="logical" name="LSCALU"> F  </i>
   <i type="logical" name="LASYNC"> F  </i>
   <i type="logical" name="LORBITALREAL"> F  </i>
  </separator>
  <separator name="miscellaneous" >
   <i type="int" name="IDIOT">     3</i>
   <i type="logical" name="LMUSIC"> F  </i>
   <v name="POMASS">     87.62000000     63.54600000     16.00000000</v>
   <v name="DARWINR">      0.00000000      0.00000000      0.00000000</v>
   <v name="DARWINV">      1.00000000      1.00000000      1.00000000</v>
   <i type="logical" name="LCORR"> T  </i>
  </separator>
  <i type="logical" name="GGA_COMPAT"> T  </i>
  <i type="logical" name="LBERRY"> F  </i>
  <i type="int" name="ICORELEVEL">     0</i>
  <i type="logical" name="LDAU"> T  </i>
  <v type="int" name="LDAUTYPE">     2</v>
  <v type="int" name="LDAUL">     2</v>
  <v name="LDAUU">      0.00000000</v>
  <v name="LDAUJ">      0.00000000</v>
  <i type="int" name="LDAUPRINT">     0</i>
  <i type="int" name="I_CONSTRAINED_M">     0</i>
  <separator name="electronic exchange-correlation" >
   <i type="string" name="GGA">--</i>
   <i type="int" name="VOSKOWN">     0</i>
   <i type="logical" name="LHFCALC"> F  </i>
   <i type="string" name="PRECFOCK"></i>
   <i type="logical" name="LSYMGRAD"> F  </i>
   <i type="logical" name="LHFONE"> F  </i>
   <i type="logical" name="LRHFCALC"> F  </i>
   <i type="logical" name="LTHOMAS"> F  </i>
   <i type="logical" name="LMODELHF"> F  </i>
   <i name="ENCUT4O">     -1.00000000</i>
   <i type="int" name="EXXOEP">     0</i>
   <i type="int" name="FOURORBIT">     0</i>
   <i name="AEXX">      0.00000000</i>
   <i name="HFALPHA">      0.00000000</i>
   <i name="MCALPHA">      0.00000000</i>
   <i name="ALDAX">      1.00000000</i>
   <i name="AGGAX">      1.00000000</i>
   <i name="ALDAC">      1.00000000</i>
   <i name="AGGAC">      1.00000000</i>
   <i type="int" name="NKREDX">     1</i>
   <i type="int" name="NKREDY">     1</i>
   <i type="int" name="NKREDZ">     1</i>
   <i type="logical" name="SHIFTRED"> F  </i>
   <i type="logical" name="ODDONLY"> F  </i>
   <i type="logical" name="EVENONLY"> F  </i>
   <i type="int" name="LMAXFOCK">     0</i>
   <i type="int" name="NMAXFOCKAE">     0</i>
   <i type="logical" name="LFOCKAEDFT"> F  </i>
   <i name="HFSCREEN">      0.00000000</i>
   <i name="HFSCREENC">      0.00000000</i>
   <i type="int" name="NBANDSGWLOW">     0</i>
  </separator>
  <separator name="vdW DFT" >
   <i type="logical" name="LUSE_VDW"> F  </i>
   <i name="Zab_VDW">     -0.84910000</i>
   <i name="PARAM1">      0.12340000</i>
   <i name="PARAM2">      1.00000000</i>
   <i name="PARAM3">      0.00000000</i>
  </separator>
  <separator name="model GW" >
   <i type="int" name="MODEL_GW">     0</i>
   <i name="MODEL_EPS0">      9.60000000</i>
   <i name="MODEL_ALPHA">      1.00000000</i>
  </separator>
  <separator name="linear response parameters" >
   <i type="logical" name="LEPSILON"> F  </i>
   <i type="logical" name="LRPA"> F  </i>
   <i type="logical" name="LNABLA"> F  </i>
   <i type="logical" name="LVEL"> F  </i>
   <i type="int" name="KINTER">     0</i>
   <i name="CSHIFT">      0.10000000</i>
   <i name="OMEGAMAX">     -1.00000000</i>
   <i name="DEG_THRESHOLD">      0.00200000</i>
  </separator>
  <separator name="orbital magnetization" >
   <i type="logical" name="NUCIND"> F  </i>
   <v name="MAGPOS">      0.00000000      0.00000000      0.00000000</v>
   <i type="logical" name="LNICSALL"> T  </i>
   <i type="logical" name="ORBITALMAG"> F  </i>
   <i type="logical" name="LMAGBLOCH"> F  </i>
   <i type="logical" name="LCHIMAG"> F  </i>
   <i type="logical" name="LGAUGE"> T  </i>
   <i type="int" name="MAGATOM">     0</i>
   <v name="MAGDIPOL">      0.00000000      0.00000000      0.00000000</v>
   <v name="AVECCONST">      0.00000000      0.00000000      0.00000000</v>
  </separator>
  <separator name="response functions" >
   <i type="logical" name="LADDER"> F  </i>
   <i type="logical" name="LFXC"> F  </i>
   <i type="logical" name="LHARTREE"> T  </i>
   <i type="int" name="IBSE">     0</i>
   <i type="logical" name="LTCTE"> F  </i>
   <i type="logical" name="LTETE"> F  </i>
   <i type="logical" name="LTRIPLET"> F  </i>
   <i type="logical" name="LFXCEPS"> F  </i>
   <i type="logical" name="LFXHEG"> F  </i>
   <i type="logical" name="L2ORDER"> F  </i>
   <i type="logical" name="LUSEW"> F  </i>
   <i name="ENCUTGW">     -2.00000000</i>
   <i name="ENCUTGWSOFT">     -2.00000000</i>
   <i name="ENCUTLF">     -1.00000000</i>
   <i type="int" name="LMAXMP2">    -1</i>
   <i name="SCISSOR">      0.00000000</i>
   <i type="int" name="NOMEGA">     0</i>
   <i type="int" name="NOMEGAR">     0</i>
   <i type="int" name="NBANDSGW">    -1</i>
   <i type="int" name="NBANDSO">    -1</i>
   <i type="int" name="NBANDSV">    -1</i>
   <i type="int" name="NELM">   100</i>
   <i type="int" name="DIM">     3</i>
   <i type="int" name="ANTIRES">     0</i>
   <i name="OMEGAMAX">    -30.00000000</i>
   <i name="OMEGAMIN">    -30.00000000</i>
   <i name="OMEGATL">   -200.00000000</i>
   <i type="int" name="OMEGAGRID">     0</i>
   <i name="CSHIFT">     -0.10000000</i>
   <i type="logical" name="SELFENERGY"> F  </i>
   <i type="logical" name="LSPECTRAL"> F  </i>
   <i type="logical" name="ODDONLYGW"> F  </i>
   <i type="logical" name="EVENONLYGW"> F  </i>
   <i type="int" name="NKREDLFX">     1</i>
   <i type="int" name="NKREDLFY">     1</i>
   <i type="int" name="NKREDLFZ">     1</i>
   <i type="int" name="MAXMEM">  1800</i>
   <i type="int" name="TELESCOPE">     0</i>
   <i type="int" name="TAUPAR">     1</i>
  </separator>
  <separator name="External order field" >
   <i name="OFIELD_KAPPA">      0.00000000</i>
   <v name="OFIELD_K">      0.00000000      0.00000000      0.00000000</v>
   <i name="OFIELD_Q6_NEAR">      0.00000000</i>
   <i name="OFIELD_Q6_FAR">      0.00000000</i>
   <i name="OFIELD_A">      0.00000000</i>
  </separator>
 </parameters>
 <atominfo>
  <atoms>      16 </atoms>
  <types>       3 </types>
  <array name="atoms" >
   <dimension dim="1">ion</dimension>
   <field type="string">element</field>
   <field type="int">atomtype</field>
   <set>
    <rc><c>Sr</c><c>   1</c></rc>
    <rc><c>Sr</c><c>   1</c></rc>
    <rc><c>Sr</c><c>   1</c></rc>
    <rc><c>Sr</c><c>   1</c></rc>
    <rc><c>Cu</c><c>   2</c></rc>
    <rc><c>Cu</c><c>   2</c></rc>
    <rc><c>Cu</c><c>   2</c></rc>
    <rc><c>Cu</c><c>   2</c></rc>
    <rc><c>O </c><c>   3</c></rc>
    <rc><c>O </c><c>   3</c></rc>
    <rc><c>O </c><c>   3</c></rc>
    <rc><c>O </c><c>   3</c></rc>
    <rc><c>O </c><c>   3</c></rc>
    <rc><c>O </c><c>   3</c></rc>
    <rc><c>O </c><c>   3</c></rc>
    <rc><c>O </c><c>   3</c></rc>
   </set>
  </array>
  <array name="atomtypes" >
   <dimension dim="1">type</dimension>
   <field type="int">atomspertype</field>
   <field type="string">element</field>
   <field>mass</field>
   <field>valence</field>
   <field type="string">pseudopotential</field>
   <set>
    <rc><c>   4</c><c>Sr</c><c>     87.62000000</c><c>     10.00000000</c><c>  PAW_PBE Sr_sv 07Sep2000               </c></rc>
    <rc><c>   4</c><c>Cu</c><c>     63.54600000</c><c>     11.00000000</c><c>  PAW_PBE Cu 22Jun2005                  </c></rc>
    <rc><c>   8</c><c>O </c><c>     16.00000000</c><c>      6.00000000</c><c>  PAW_PBE O_s 07Sep2000                 </c></rc>
   </set>
  </array>
 </atominfo>
 <structure name="initialpos" >
  <crystal>
   <varray name="basis" >
    <v>       4.00000000       0.00000000       0.00000000 </v>
    <v>       0.00000000       4.00000000       0.00000000 </v>
    <v>       0.00000000       0.00000000      16.00000000 </v>
   </varray>
   <i name="volume">    256.00000000 </i>
   <varray name="rec_basis" >
    <v>       0.25000000       0.00000000       0.00000000 </v>
    <v>       0.00000000       0.25000000       0.00000000 </v>
    <v>       0.00000000       0.00000000       0.06250000 </v>
   </varray>
  </crystal>
  <varray name="positions" >
   <v>       0.00000000       0.00000000       0.87500000 </v>
   <v>       0.00000000       0.00000000       0.12500000 </v>
   <v>       0.00000000       0.00000000       0.37500000 </v>
   <v>       0.00000000       0.00000000       0.62500000 </v>
   <v>       0.50000000       0.50000000       0.00000000 </v>
   <v>       0.50000000       0.50000000       0.25000000 </v>
   <v>       0.50000000       0.50000000       0.50000000 </v>
   <v>       0.50000000       0.50000000       0.75000000 </v>
   <v>       0.50000000       0.50000000       0.37500000 </v>
   <v>       0.50000000       0.50000000       0.62500000 </v>
   <v>       0.00000000       0.50000000       0.25000000 </v>
   <v>       0.00000000       0.50000000       0.50000000 </v>
   <v>       0.00000000       0.50000000       0.75000000 </v>
   <v>       0.50000000       0.00000000       0.00000000 </v>
   <v>       0.50000000       0.00000000       0.25000000 </v>
   <v>       0.50000000       0.00000000       0.75000000 </v>
  </varray>
 </structure>
 <calculation>
  <scstep>
   <time name="dav">    1.56    1.56</time>
   <time name="total">    1.71    1.71</time>
   <energy>
    <i name="alphaZ">    598.65364144 </i>
    <i name="ewald">  -8350.18806519 </i>
    <i name="hartreedc">  -4093.96243250 </i>
    <i name="XCdc">    543.15170593 </i>
    <i name="pawpsdc">  10188.96972968 </i>
    <i name="pawaedc"> -10517.73277125 </i>
    <i name="eentropy">     -0.00152830 </i>
    <i name="bandstr">    879.34296359 </i>
    <i name="atom">  12395.00728236 </i>
    <i name="e_fr_energy">   1643.24052578 </i>
    <i name="e_wo_entrp">   1643.24205407 </i>
    <i name="e_0_energy">   1643.24128992 </i>
   </energy>
  </scstep>
  <scstep>
   <time name="dav">    1.58    1.58</time>
   <time name="total">    1.58    1.59</time>
   <energy>
    <i name="e_fr_energy">    147.98103690 </i>
    <i name="e_wo_entrp">    147.98729541 </i>
    <i name="e_0_energy">    147.98416615 </i>
   </energy>
  </scstep>
  <scstep>
   <time name="dav">    1.71    1.71</time>
   <time name="total">    1.71    1.73</time>
   <energy>
    <i name="e_fr_energy">    -78.81560616 </i>
    <i name="e_wo_entrp">    -78.80580942 </i>
    <i name="e_0_energy">    -78.81070779 </i>
   </energy>
  </scstep>
  <scstep>
   <time name="dav">    2.24    2.24</time>
   <time name="total">    2.24    2.25</time>
   <energy>
    <i name="e_fr_energy">    -96.32271296 </i>
    <i name="e_wo_entrp">    -96.31011988 </i>
    <i name="e_0_energy">    -96.31641642 </i>
   </energy>
  </scstep>
  <scstep>
   <time name="dav">    2.58    2.58</time>
   <time name="total">    2.80    2.81</time>
   <energy>
    <i name="e_fr_energy">    -97.30420962 </i>
    <i name="e_wo_entrp">    -97.29120139 </i>
    <i name="e_0_energy">    -97.29770551 </i>
   </energy>
  </scstep>
  <scstep>
   <time name="dav">    2.11    2.11</time>
   <time name="total">    2.46    2.48</time>
   <energy>
    <i name="e_fr_energy">    -85.10765925 </i>
    <i name="e_wo_entrp">    -85.08912163 </i>
    <i name="e_0_energy">    -85.09839044 </i>
   </energy>
  </scstep>
  <scstep>
   <time name="dav">    2.11    2.11</time>
   <time name="total">    2.46    2.48</time>
   <energy>
    <i name="e_fr_energy">    -79.05436777 </i>
    <i name="e_wo_entrp">    -79.04201855 </i>
    <i name="e_0_energy">    -79.04819316 </i>
   </energy>
  </scstep>
  <scstep>
   <time name="dav">    2.43    2.43</time>
   <time name="total">    2.79    2.80</time>
   <energy>
    <i name="e_fr_energy">    -85.21939403 </i>
    <i name="e_wo_entrp">    -85.19851588 </i>
    <i name="e_0_energy">    -85.20895495 </i>
   </energy>
  </scstep>
  <scstep>
   <time name="dav">    2.24    2.24</time>
   <time name="total">    2.59    2.61</time>
   <energy>
    <i name="e_fr_energy">    -82.89611339 </i>
    <i name="e_wo_entrp">    -82.88703475 </i>
    <i name="e_0_energy">    -82.89157407 </i>
   </energy>
  </scstep>
  <scstep>
   <time name="dav">    2.15    2.15</time>
   <time name="total">    2.50    2.52</time>
   <energy>
    <i name="e_fr_energy">    -77.96860855 </i>
    <i name="e_wo_entrp">    -77.96378971 </i>
    <i name="e_0_energy">    -77.96619913 </i>
   </energy>
  </scstep>
  <scstep>
   <time name="dav">    2.19    2.19</time>
   <time name="total">    2.55    2.56</time>
   <energy>
    <i name="e_fr_energy">    -77.82645113 </i>
    <i name="e_wo_entrp">    -77.81543876 </i>
    <i name="e_0_energy">    -77.82094494 </i>
   </energy>
  </scstep>
  <scstep>
   <time name="dav">    2.13    2.13</time>
   <time name="total">    2.48    2.50</time>
   <energy>
    <i name="e_fr_energy">    -77.79309688 </i>
    <i name="e_wo_entrp">    -77.78546670 </i>
    <i name="e_0_energy">    -77.78928179 </i>
   </energy>
  </scstep>
  <scstep>
   <time name="dav">    2.20    2.20</time>
   <time name="total">    2.55    2.58</time>
   <energy>
    <i name="e_fr_energy">    -77.90369083 </i>
    <i name="e_wo_entrp">    -77.89426019 </i>
    <i name="e_0_energy">    -77.89897551 </i>
   </energy>
  </scstep>
  <scstep>
   <time name="dav">    2.20    2.20</time>
   <time name="total">    2.55    2.57</time>
   <energy>
    <i name="e_fr_energy">    -78.13148085 </i>
    <i name="e_wo_entrp">    -78.12379597 </i>
    <i name="e_0_energy">    -78.12763841 </i>
   </energy>
  </scstep>
  <scstep>
   <time name="dav">    2.22    2.22</time>
   <time name="total">    2.57    2.59</time>
   <energy>
    <i name="e_fr_energy">    -78.22753035 </i>
    <i name="e_wo_entrp">    -78.22140097 </i>
    <i name="e_0_energy">    -78.22446566 </i>
   </energy>
  </scstep>
  <scstep>
   <time name="dav">    2.14    2.14</time>
   <time name="total">    2.50    2.51</time>
   <energy>
    <i name="e_fr_energy">    -78.33320183 </i>
    <i name="e_wo_entrp">    -78.32510938 </i>
    <i name="e_0_energy">    -78.32915560 </i>
   </energy>
  </scstep>
  <scstep>
   <time name="dav">    2.07    2.07</time>
   <time name="total">    2.42    2.44</time>
   <energy>
    <i name="e_fr_energy">    -78.33213533 </i>
    <i name="e_wo_entrp">    -78.32456549 </i>
    <i name="e_0_energy">    -78.32835041 </i>
   </energy>
  </scstep>
  <scstep>
   <time name="dav">    2.14    2.14</time>
   <time name="total">    2.49    2.51</time>
   <energy>
    <i name="e_fr_energy">    -78.33237605 </i>
    <i name="e_wo_entrp">    -78.32429700 </i>
    <i name="e_0_energy">    -78.32833652 </i>
   </energy>
  </scstep>
  <scstep>
   <time name="dav">    2.17    2.17</time>
   <time name="total">    2.52    2.54</time>
   <energy>
    <i name="e_fr_energy">    -78.33361785 </i>
    <i name="e_wo_entrp">    -78.32509790 </i>
    <i name="e_0_energy">    -78.32935787 </i>
   </energy>
  </scstep>
  <scstep>
   <time name="dav">    2.08    2.08</time>
   <time name="total">    2.44    2.45</time>
   <energy>
    <i name="e_fr_energy">    -78.33550704 </i>
    <i name="e_wo_entrp">    -78.32693308 </i>
    <i name="e_0_energy">    -78.33122006 </i>
   </energy>
  </scstep>
  <scstep>
   <time name="dav">    2.09    2.09</time>
   <time name="total">    2.45    2.46</time>
   <energy>
    <i name="e_fr_energy">    -78.33618593 </i>
    <i name="e_wo_entrp">    -78.32721903 </i>
    <i name="e_0_energy">    -78.33170248 </i>
   </energy>
  </scstep>
  <scstep>
   <time name="dav">    2.12    2.12</time>
   <time name="total">    2.48    2.49</time>
   <energy>
    <i name="e_fr_energy">    -78.33624526 </i>
    <i name="e_wo_entrp">    -78.32723715 </i>
    <i name="e_0_energy">    -78.33174120 </i>
   </energy>
  </scstep>
  <scstep>
   <time name="dav">    2.13    2.13</time>
   <time name="total">    2.49    2.51</time>
   <energy>
    <i name="e_fr_energy">    -78.33634713 </i>
    <i name="e_wo_entrp">    -78.32730482 </i>
    <i name="e_0_energy">    -78.33182597 </i>
   </energy>
  </scstep>
  <scstep>
   <time name="dav">    2.06    2.06</time>
   <time name="total">    2.42    2.43</time>
   <energy>
    <i name="e_fr_energy">    -78.33641773 </i>
    <i name="e_wo_entrp">    -78.32728244 </i>
    <i name="e_0_energy">    -78.33185008 </i>
   </energy>
  </scstep>
  <scstep>
   <time name="dav">    2.16    2.16</time>
   <time name="total">    2.52    2.54</time>
   <energy>
    <i name="e_fr_energy">    -78.33644269 </i>
    <i name="e_wo_entrp">    -78.32720301 </i>
    <i name="e_0_energy">    -78.33182285 </i>
   </energy>
  </scstep>
  <scstep>
   <time name="dav">    1.99    2.00</time>
   <time name="total">    2.35    2.37</time>
   <energy>
    <i name="e_fr_energy">    -78.33647088 </i>
    <i name="e_wo_entrp">    -78.32716674 </i>
    <i name="e_0_energy">    -78.33181881 </i>
   </energy>
  </scstep>
  <scstep>
   <time name="dav">    1.97    1.97</time>
   <time name="total">    2.33    2.34</time>
   <energy>
    <i name="e_fr_energy">    -78.33649742 </i>
    <i name="e_wo_entrp">    -78.32711346 </i>
    <i name="e_0_energy">    -78.33180544 </i>
   </energy>
  </scstep>
  <scstep>
   <time name="dav">    1.94    1.94</time>
   <time name="total">    2.30    2.31</time>
   <energy>
    <i name="e_fr_energy">    -78.33650828 </i>
    <i name="e_wo_entrp">    -78.32705358 </i>
    <i name="e_0_energy">    -78.33178093 </i>
   </energy>
  </scstep>
  <scstep>
   <time name="dav">    1.76    1.77</time>
   <time name="total">    2.12    2.13</time>
   <energy>
    <i name="e_fr_energy">    -78.33651218 </i>
    <i name="e_wo_entrp">    -78.32700890 </i>
    <i name="e_0_energy">    -78.33176054 </i>
   </energy>
  </scstep>
  <scstep>
   <time name="dav">    1.72    1.72</time>
   <time name="total">    2.08    2.09</time>
   <energy>
    <i name="e_fr_energy">    -78.33651644 </i>
    <i name="e_wo_entrp">    -78.32696847 </i>
    <i name="e_0_energy">    -78.33174246 </i>
   </energy>
  </scstep>
  <scstep>
   <time name="dav">    1.52    1.52</time>
   <time name="total">    1.88    1.89</time>
   <energy>
    <i name="e_fr_energy">    -78.33651885 </i>
    <i name="e_wo_entrp">    -78.32693159 </i>
    <i name="e_0_energy">    -78.33172522 </i>
   </energy>
  </scstep>
  <scstep>
   <time name="dav">    1.62    1.62</time>
   <time name="total">    1.98    1.99</time>
   <energy>
    <i name="e_fr_energy">    -78.33652061 </i>
    <i name="e_wo_entrp">    -78.32688669 </i>
    <i name="e_0_energy">    -78.33170365 </i>
   </energy>
  </scstep>
  <scstep>
   <time name="dav">    1.45    1.45</time>
   <time name="total">    1.60    1.61</time>
   <energy>
    <i name="alphaZ">    598.65364144 </i>
    <i name="ewald">  -8350.18806519 </i>
    <i name="hartreedc">  -4100.61781163 </i>
    <i name="XCdc">    543.16016615 </i>
    <i name="pawpsdc">  15525.82625824 </i>
    <i name="pawaedc"> -15890.73801817 </i>
    <i name="eentropy">     -0.00965137 </i>
    <i name="bandstr">   -799.43032316 </i>
    <i name="atom">  12395.00728236 </i>
    <i name="e_fr_energy">    -78.33652132 </i>
    <i name="e_wo_entrp">    -78.32686995 </i>
    <i name="e_0_energy">    -78.33169564 </i>
   </energy>
  </scstep>
  <structure>
   <crystal>
    <varray name="basis" >
     <v>       4.00000000       0.00000000       0.00000000 </v>
     <v>       0.00000000       4.00000000       0.00000000 </v>
     <v>       0.00000000       0.00000000      16.00000000 </v>
    </varray>
    <i name="volume">    256.00000000 </i>
    <varray name="rec_basis" >
     <v>       0.25000000       0.00000000       0.00000000 </v>
     <v>       0.00000000       0.25000000       0.00000000 </v>
     <v>       0.00000000       0.00000000       0.06250000 </v>
    </varray>
   </crystal>
   <varray name="positions" >
    <v>       0.00000000       0.00000000       0.87500000 </v>
    <v>       0.00000000       0.00000000       0.12500000 </v>
    <v>       0.00000000       0.00000000       0.37500000 </v>
    <v>       0.00000000       0.00000000       0.62500000 </v>
    <v>       0.50000000       0.50000000       0.00000000 </v>
    <v>       0.50000000       0.50000000       0.25000000 </v>
    <v>       0.50000000       0.50000000       0.50000000 </v>
    <v>       0.50000000       0.50000000       0.75000000 </v>
    <v>       0.50000000       0.50000000       0.37500000 </v>
    <v>       0.50000000       0.50000000       0.62500000 </v>
    <v>       0.00000000       0.50000000       0.25000000 </v>
    <v>       0.00000000       0.50000000       0.50000000 </v>
    <v>       0.00000000       0.50000000       0.75000000 </v>
    <v>       0.50000000       0.00000000       0.00000000 </v>
    <v>       0.50000000       0.00000000       0.25000000 </v>
    <v>       0.50000000       0.00000000       0.75000000 </v>
   </varray>
  </structure>
  <varray name="forces" >
   <v>       0.00000000       0.00000000      -2.29652156 </v>
   <v>       0.00000000       0.00000000       2.29652156 </v>
   <v>       0.00000000       0.00000000      -1.09199923 </v>
   <v>       0.00000000       0.00000000       1.09199923 </v>
   <v>       0.00000000       0.00000000       0.00000000 </v>
   <v>       0.00000000       0.00000000       0.32069614 </v>
   <v>       0.00000000       0.00000000       0.00000000 </v>
   <v>       0.00000000       0.00000000      -0.32069614 </v>
   <v>       0.00000000       0.00000000       2.05039186 </v>
   <v>       0.00000000       0.00000000      -2.05039186 </v>
   <v>       0.00000000       0.00000000      -1.60730025 </v>
   <v>       0.00000000       0.00000000       0.00000000 </v>
   <v>       0.00000000       0.00000000       1.60730025 </v>
   <v>       0.00000000       0.00000000       0.00000000 </v>
   <v>       0.00000000       0.00000000      -1.36865183 </v>
   <v>       0.00000000       0.00000000       1.36865183 </v>
  </varray>
  <varray name="stress" >
   <v>     -82.85761088       0.00000000       0.00000000 </v>
   <v>       0.00000000     -93.74863637       0.00000000 </v>
   <v>       0.00000000       0.00000000    -104.11911621 </v>
  </varray>
  <energy>
   <i name="e_fr_energy">    -78.33652132 </i>
   <i name="e_wo_entrp">    -78.33169564 </i>
   <i name="e_0_energy">     -0.00965137 </i>
  </energy>
  <time name="totalsc">   80.88   81.38</time>
  <eigenvalues>
   <array>
    <dimension dim="1">band</dimension>
    <dimension dim="2">kpoint</dimension>
    <dimension dim="3">spin</dimension>
    <field>eigene</field>
    <field>occ</field>
    <set>
     <set comment="spin 1">
      <set comment="kpoint 1">
       <r>  -32.3544    1.0000 </r>
       <r>  -32.3471    1.0000 </r>
       <r>  -30.3631    1.0000 </r>
       <r>  -30.3558    1.0000 </r>
       <r>  -15.9040    1.0000 </r>
       <r>  -14.8964    1.0000 </r>
       <r>  -14.8157    1.0000 </r>
       <r>  -14.3801    1.0000 </r>
       <r>  -14.3685    1.0000 </r>
       <r>  -14.2741    1.0000 </r>
       <r>  -14.2549    1.0000 </r>
       <r>  -14.1597    1.0000 </r>
       <r>  -13.8287    1.0000 </r>
       <r>  -13.7574    1.0000 </r>
       <r>  -13.4010    1.0000 </r>
       <r>  -13.4007    1.0000 </r>
       <r>  -13.1870    1.0000 </r>
       <r>  -13.0965    1.0000 </r>
       <r>  -12.3232    1.0000 </r>
       <r>  -12.3117    1.0000 </r>
       <r>  -12.2164    1.0000 </r>
       <r>  -12.2145    1.0000 </r>
       <r>  -12.1952    1.0000 </r>
       <r>  -12.0951    1.0000 </r>
       <r>   -1.9270    1.0000 </r>
       <r>   -1.8275    1.0000 </r>
       <r>   -1.4962    1.0000 </r>
       <r>   -1.3042    1.0000 </r>
       <r>   -1.1799    1.0000 </r>
       <r>   -1.1191    1.0000 </r>
       <r>   -1.0814    1.0000 </r>
       <r>   -1.0693    1.0000 </r>
       <r>   -1.0278    1.0000 </r>
       <r>   -0.9890    1.0000 </r>
       <r>   -0.9860    1.0000 </r>
       <r>   -0.8683    1.0000 </r>
       <r>   -0.7345    1.0000 </r>
       <r>   -0.7163    1.0000 </r>
       <r>   -0.7163    1.0000 </r>
       <r>   -0.7153    1.0000 </r>
       <r>   -0.7033    1.0000 </r>
       <r>   -0.6474    1.0000 </r>
       <r>   -0.6240    1.0000 </r>
       <r>   -0.6170    1.0000 </r>
       <r>   -0.5539    1.0000 </r>
       <r>   -0.4824    1.0000 </r>
       <r>   -0.4715    1.0000 </r>
       <r>   -0.3963    1.0000 </r>
       <r>   -0.2549    1.0000 </r>
       <r>   -0.1644    1.0000 </r>
       <r>   -0.0499    1.0000 </r>
       <r>    0.4393    1.0000 </r>
       <r>    0.4416    1.0000 </r>
       <r>    0.5941    1.0000 </r>
       <r>    0.8056    1.0000 </r>
       <r>    0.9036    1.0000 </r>
       <r>    1.1528    1.0000 </r>
       <r>    1.2502    1.0000 </r>
       <r>    1.6138    1.0000 </r>
       <r>    1.8837    1.0000 </r>
       <r>    1.8839    1.0000 </r>
       <r>    1.9342    1.0000 </r>
       <r>    1.9500    1.0000 </r>
       <r>    2.1155    1.0000 </r>
       <r>    2.1779    1.0000 </r>
       <r>    2.2614    1.0000 </r>
       <r>    2.4305    1.0000 </r>
       <r>    2.4610    1.0000 </r>
       <r>    2.4816    1.0000 </r>
       <r>    3.6009    0.0000 </r>
       <r>    4.8815    0.0000 </r>
       <r>    5.6175    0.0000 </r>
       <r>    6.5791    0.0000 </r>
       <r>    6.6173    0.0000 </r>
       <r>    7.7887    0.0000 </r>
       <r>    8.0583    0.0000 </r>
       <r>    8.0690    0.0000 </r>
       <r>    8.4911    0.0000 </r>
       <r>    8.4931    0.0000 </r>
       <r>    8.7211    0.0000 </r>
       <r>    8.7572    0.0000 </r>
       <r>    8.8182    0.0000 </r>
       <r>    8.8897    0.0000 </r>
       <r>    8.9843    0.0000 </r>
       <r>    8.9871    0.0000 </r>
       <r>    9.0437    0.0000 </r>
       <r>    9.8777    0.0000 </r>
       <r>    9.9229    0.0000 </r>
      </set>
      <set comment="kpoint 2">
       <r>  -32.3500    1.0000 </r>
       <r>  -32.3430    1.0000 </r>
       <r>  -30.3583    1.0000 </r>
       <r>  -30.3511    1.0000 </r>
       <r>  -15.8896    1.0000 </r>
       <r>  -14.8238    1.0000 </r>
       <r>  -14.8120    1.0000 </r>
       <r>  -14.3731    1.0000 </r>
       <r>  -14.3618    1.0000 </r>
       <r>  -14.3580    1.0000 </r>
       <r>  -14.2156    1.0000 </r>
       <r>  -14.0848    1.0000 </r>
       <r>  -13.8472    1.0000 </r>
       <r>  -13.8346    1.0000 </r>
       <r>  -13.4904    1.0000 </r>
       <r>  -13.4581    1.0000 </r>
       <r>  -13.2692    1.0000 </r>
       <r>  -13.2262    1.0000 </r>
       <r>  -12.2325    1.0000 </r>
       <r>  -12.2020    1.0000 </r>
       <r>  -12.1824    1.0000 </r>
       <r>  -12.1718    1.0000 </r>
       <r>  -12.1254    1.0000 </r>
       <r>  -12.0710    1.0000 </r>
       <r>   -1.9827    1.0000 </r>
       <r>   -1.8119    1.0000 </r>
       <r>   -1.6134    1.0000 </r>
       <r>   -1.5975    1.0000 </r>
       <r>   -1.4381    1.0000 </r>
       <r>   -1.4299    1.0000 </r>
       <r>   -1.3697    1.0000 </r>
       <r>   -1.2363    1.0000 </r>
       <r>   -1.1476    1.0000 </r>
       <r>   -1.1055    1.0000 </r>
       <r>   -1.0938    1.0000 </r>
       <r>   -1.0871    1.0000 </r>
       <r>   -1.0543    1.0000 </r>
       <r>   -1.0253    1.0000 </r>
       <r>   -1.0205    1.0000 </r>
       <r>   -0.9470    1.0000 </r>
       <r>   -0.8674    1.0000 </r>
       <r>   -0.7905    1.0000 </r>
       <r>   -0.7788    1.0000 </r>
       <r>   -0.7351    1.0000 </r>
       <r>   -0.6556    1.0000 </r>
       <r>   -0.5056    1.0000 </r>
       <r>   -0.3944    1.0000 </r>
       <r>   -0.3453    1.0000 </r>
       <r>   -0.3065    1.0000 </r>
       <r>    0.0925    1.0000 </r>
       <r>    0.2055    1.0000 </r>
       <r>    0.7597    1.0000 </r>
       <r>    0.7982    1.0000 </r>
       <r>    0.9606    1.0000 </r>
       <r>    1.1595    1.0000 </r>
       <r>    1.1609    1.0000 </r>
       <r>    1.2356    1.0000 </r>
       <r>    1.3988    1.0000 </r>
       <r>    1.7097    1.0000 </r>
       <r>    1.7768    1.0000 </r>
       <r>    1.8049    1.0000 </r>
       <r>    1.8672    1.0000 </r>
       <r>    1.8795    1.0000 </r>
       <r>    2.0584    1.0000 </r>
       <r>    2.2533    1.0000 </r>
       <r>    2.2675    1.0000 </r>
       <r>    2.3167    1.0000 </r>
       <r>    2.7624    0.9811 </r>
       <r>    3.2570    0.0000 </r>
       <r>    3.9723    0.0000 </r>
       <r>    5.3756    0.0000 </r>
       <r>    5.9893    0.0000 </r>
       <r>    6.1491    0.0000 </r>
       <r>    6.8418    0.0000 </r>
       <r>    7.8480    0.0000 </r>
       <r>    8.0375    0.0000 </r>
       <r>    8.1779    0.0000 </r>
       <r>    8.1848    0.0000 </r>
       <r>    8.3795    0.0000 </r>
       <r>    8.4576    0.0000 </r>
       <r>    8.7525    0.0000 </r>
       <r>    8.8197    0.0000 </r>
       <r>    9.0467    0.0000 </r>
       <r>    9.0887    0.0000 </r>
       <r>    9.2407    0.0000 </r>
       <r>    9.6387    0.0000 </r>
       <r>    9.6971    0.0000 </r>
       <r>   10.0760    0.0000 </r>
      </set>
      <set comment="kpoint 3">
       <r>  -32.3428    1.0000 </r>
       <r>  -32.3362    1.0000 </r>
       <r>  -30.3505    1.0000 </r>
       <r>  -30.3435    1.0000 </r>
       <r>  -15.8972    1.0000 </r>
       <r>  -14.6969    1.0000 </r>
       <r>  -14.6702    1.0000 </r>
       <r>  -14.4475    1.0000 </r>
       <r>  -14.3619    1.0000 </r>
       <r>  -14.3509    1.0000 </r>
       <r>  -14.3335    1.0000 </r>
       <r>  -13.9919    1.0000 </r>
       <r>  -13.9633    1.0000 </r>
       <r>  -13.9014    1.0000 </r>
       <r>  -13.5737    1.0000 </r>
       <r>  -13.5454    1.0000 </r>
       <r>  -13.3314    1.0000 </r>
       <r>  -13.3087    1.0000 </r>
       <r>  -12.2547    1.0000 </r>
       <r>  -12.1816    1.0000 </r>
       <r>  -12.1616    1.0000 </r>
       <r>  -12.1052    1.0000 </r>
       <r>  -11.9424    1.0000 </r>
       <r>  -11.9150    1.0000 </r>
       <r>   -2.5507    1.0000 </r>
       <r>   -2.4312    1.0000 </r>
       <r>   -2.3888    1.0000 </r>
       <r>   -1.8392    1.0000 </r>
       <r>   -1.7855    1.0000 </r>
       <r>   -1.7586    1.0000 </r>
       <r>   -1.6071    1.0000 </r>
       <r>   -1.3002    1.0000 </r>
       <r>   -1.2262    1.0000 </r>
       <r>   -1.2114    1.0000 </r>
       <r>   -1.2102    1.0000 </r>
       <r>   -1.1637    1.0000 </r>
       <r>   -1.1215    1.0000 </r>
       <r>   -1.0941    1.0000 </r>
       <r>   -1.0661    1.0000 </r>
       <r>   -1.0164    1.0000 </r>
       <r>   -1.0102    1.0000 </r>
       <r>   -1.0056    1.0000 </r>
       <r>   -0.9371    1.0000 </r>
       <r>   -0.6852    1.0000 </r>
       <r>   -0.6531    1.0000 </r>
       <r>   -0.4987    1.0000 </r>
       <r>   -0.2856    1.0000 </r>
       <r>   -0.2293    1.0000 </r>
       <r>   -0.1552    1.0000 </r>
       <r>    0.2469    1.0000 </r>
       <r>    0.4207    1.0000 </r>
       <r>    0.9382    1.0000 </r>
       <r>    0.9761    1.0000 </r>
       <r>    1.0764    1.0000 </r>
       <r>    1.2813    1.0000 </r>
       <r>    1.3083    1.0000 </r>
       <r>    1.3931    1.0000 </r>
       <r>    1.5747    1.0000 </r>
       <r>    1.7596    1.0000 </r>
       <r>    1.7727    1.0000 </r>
       <r>    1.8434    1.0000 </r>
       <r>    1.8616    1.0000 </r>
       <r>    1.9577    1.0000 </r>
       <r>    2.0578    1.0000 </r>
       <r>    2.1360    1.0000 </r>
       <r>    2.5819    1.0000 </r>
       <r>    2.8199    0.6740 </r>
       <r>    2.8375    0.4811 </r>
       <r>    4.0595    0.0000 </r>
       <r>    4.3153    0.0000 </r>
       <r>    4.9176    0.0000 </r>
       <r>    6.3233    0.0000 </r>
       <r>    6.6702    0.0000 </r>
       <r>    6.9647    0.0000 </r>
       <r>    7.5100    0.0000 </r>
       <r>    7.5798    0.0000 </r>
       <r>    7.8260    0.0000 </r>
       <r>    7.9982    0.0000 </r>
       <r>    8.2027    0.0000 </r>
       <r>    8.7092    0.0000 </r>
       <r>    9.1220    0.0000 </r>
       <r>    9.3456    0.0000 </r>
       <r>    9.4464    0.0000 </r>
       <r>    9.5264    0.0000 </r>
       <r>    9.8123    0.0000 </r>
       <r>   10.2420    0.0000 </r>
       <r>   10.3118    0.0000 </r>
       <r>   10.4646    0.0000 </r>
      </set>
      <set comment="kpoint 4">
       <r>  -32.3501    1.0000 </r>
       <r>  -32.3429    1.0000 </r>
       <r>  -30.3582    1.0000 </r>
       <r>  -30.3512    1.0000 </r>
       <r>  -15.8374    1.0000 </r>
       <r>  -14.8291    1.0000 </r>
       <r>  -14.7677    1.0000 </r>
       <r>  -14.4437    1.0000 </r>
       <r>  -14.4277    1.0000 </r>
       <r>  -14.2673    1.0000 </r>
       <r>  -14.2479    1.0000 </r>
       <r>  -14.2183    1.0000 </r>
       <r>  -13.8534    1.0000 </r>
       <r>  -13.7643    1.0000 </r>
       <r>  -13.4421    1.0000 </r>
       <r>  -13.4210    1.0000 </r>
       <r>  -13.2972    1.0000 </r>
       <r>  -13.1328    1.0000 </r>
       <r>  -12.3107    1.0000 </r>
       <r>  -12.2994    1.0000 </r>
       <r>  -12.2266    1.0000 </r>
       <r>  -12.2082    1.0000 </r>
       <r>  -12.0271    1.0000 </r>
       <r>  -12.0043    1.0000 </r>
       <r>   -2.8369    1.0000 </r>
       <r>   -1.9352    1.0000 </r>
       <r>   -1.9236    1.0000 </r>
       <r>   -1.7025    1.0000 </r>
       <r>   -1.5340    1.0000 </r>
       <r>   -1.5253    1.0000 </r>
       <r>   -1.2329    1.0000 </r>
       <r>   -1.2088    1.0000 </r>
       <r>   -1.1251    1.0000 </r>
       <r>   -1.0883    1.0000 </r>
       <r>   -1.0497    1.0000 </r>
       <r>   -1.0280    1.0000 </r>
       <r>   -1.0161    1.0000 </r>
       <r>   -0.9695    1.0000 </r>
       <r>   -0.8395    1.0000 </r>
       <r>   -0.7131    1.0000 </r>
       <r>   -0.6327    1.0000 </r>
       <r>   -0.5574    1.0000 </r>
       <r>   -0.4911    1.0000 </r>
       <r>   -0.4655    1.0000 </r>
       <r>   -0.4230    1.0000 </r>
       <r>   -0.3987    1.0000 </r>
       <r>   -0.3093    1.0000 </r>
       <r>   -0.2185    1.0000 </r>
       <r>   -0.1645    1.0000 </r>
       <r>    0.0822    1.0000 </r>
       <r>    0.1889    1.0000 </r>
       <r>    0.5089    1.0000 </r>
       <r>    0.7172    1.0000 </r>
       <r>    0.7387    1.0000 </r>
       <r>    0.8383    1.0000 </r>
       <r>    1.1095    1.0000 </r>
       <r>    1.3104    1.0000 </r>
       <r>    1.3877    1.0000 </r>
       <r>    1.6441    1.0000 </r>
       <r>    1.6982    1.0000 </r>
       <r>    1.9214    1.0000 </r>
       <r>    1.9275    1.0000 </r>
       <r>    1.9457    1.0000 </r>
       <r>    2.1764    1.0000 </r>
       <r>    2.3595    1.0000 </r>
       <r>    2.3633    1.0000 </r>
       <r>    2.5002    1.0000 </r>
       <r>    2.7002    0.9999 </r>
       <r>    2.7132    0.9997 </r>
       <r>    3.8681    0.0000 </r>
       <r>    5.2602    0.0000 </r>
       <r>    5.9723    0.0000 </r>
       <r>    6.7877    0.0000 </r>
       <r>    6.8191    0.0000 </r>
       <r>    7.3207    0.0000 </r>
       <r>    7.3827    0.0000 </r>
       <r>    8.1111    0.0000 </r>
       <r>    8.1588    0.0000 </r>
       <r>    8.5612    0.0000 </r>
       <r>    8.9489    0.0000 </r>
       <r>    8.9626    0.0000 </r>
       <r>    9.0256    0.0000 </r>
       <r>    9.0459    0.0000 </r>
       <r>    9.2590    0.0000 </r>
       <r>    9.3149    0.0000 </r>
       <r>    9.9730    0.0000 </r>
       <r>    9.9745    0.0000 </r>
       <r>   10.0920    0.0000 </r>
      </set>
      <set comment="kpoint 5">
       <r>  -32.3457    1.0000 </r>
       <r>  -32.3388    1.0000 </r>
       <r>  -30.3536    1.0000 </r>
       <r>  -30.3466    1.0000 </r>
       <r>  -15.8248    1.0000 </r>
       <r>  -14.7691    1.0000 </r>
       <r>  -14.7568    1.0000 </r>
       <r>  -14.4717    1.0000 </r>
       <r>  -14.4508    1.0000 </r>
       <r>  -14.3270    1.0000 </r>
       <r>  -14.1731    1.0000 </r>
       <r>  -14.1186    1.0000 </r>
       <r>  -13.8319    1.0000 </r>
       <r>  -13.8096    1.0000 </r>
       <r>  -13.4782    1.0000 </r>
       <r>  -13.4782    1.0000 </r>
       <r>  -13.3271    1.0000 </r>
       <r>  -13.2121    1.0000 </r>
       <r>  -12.3178    1.0000 </r>
       <r>  -12.2797    1.0000 </r>
       <r>  -12.2512    1.0000 </r>
       <r>  -12.1505    1.0000 </r>
       <r>  -12.0038    1.0000 </r>
       <r>  -12.0008    1.0000 </r>
       <r>   -2.8178    1.0000 </r>
       <r>   -1.9814    1.0000 </r>
       <r>   -1.8584    1.0000 </r>
       <r>   -1.8314    1.0000 </r>
       <r>   -1.6580    1.0000 </r>
       <r>   -1.6348    1.0000 </r>
       <r>   -1.4889    1.0000 </r>
       <r>   -1.4842    1.0000 </r>
       <r>   -1.3865    1.0000 </r>
       <r>   -1.3052    1.0000 </r>
       <r>   -1.1970    1.0000 </r>
       <r>   -1.1167    1.0000 </r>
       <r>   -1.1014    1.0000 </r>
       <r>   -1.0695    1.0000 </r>
       <r>   -1.0389    1.0000 </r>
       <r>   -1.0258    1.0000 </r>
       <r>   -1.0092    1.0000 </r>
       <r>   -0.9081    1.0000 </r>
       <r>   -0.8099    1.0000 </r>
       <r>   -0.7813    1.0000 </r>
       <r>   -0.7386    1.0000 </r>
       <r>   -0.6200    1.0000 </r>
       <r>   -0.3281    1.0000 </r>
       <r>   -0.2295    1.0000 </r>
       <r>   -0.1852    1.0000 </r>
       <r>    0.4170    1.0000 </r>
       <r>    0.5071    1.0000 </r>
       <r>    0.9499    1.0000 </r>
       <r>    1.1216    1.0000 </r>
       <r>    1.2960    1.0000 </r>
       <r>    1.3052    1.0000 </r>
       <r>    1.3201    1.0000 </r>
       <r>    1.4010    1.0000 </r>
       <r>    1.4239    1.0000 </r>
       <r>    1.4785    1.0000 </r>
       <r>    1.4896    1.0000 </r>
       <r>    1.7511    1.0000 </r>
       <r>    2.0436    1.0000 </r>
       <r>    2.0751    1.0000 </r>
       <r>    2.2649    1.0000 </r>
       <r>    2.6424    1.0000 </r>
       <r>    2.8079    0.7853 </r>
       <r>    2.8321    0.5422 </r>
       <r>    2.8717    0.1550 </r>
       <r>    3.3064    0.0000 </r>
       <r>    4.1236    0.0000 </r>
       <r>    5.4027    0.0000 </r>
       <r>    6.2035    0.0000 </r>
       <r>    6.4131    0.0000 </r>
       <r>    6.9729    0.0000 </r>
       <r>    7.2856    0.0000 </r>
       <r>    7.4569    0.0000 </r>
       <r>    7.5012    0.0000 </r>
       <r>    8.3063    0.0000 </r>
       <r>    8.3163    0.0000 </r>
       <r>    8.7954    0.0000 </r>
       <r>    8.9027    0.0000 </r>
       <r>    9.0781    0.0000 </r>
       <r>    9.4348    0.0000 </r>
       <r>    9.5222    0.0000 </r>
       <r>    9.8046    0.0000 </r>
       <r>    9.8733    0.0000 </r>
       <r>   10.0429    0.0000 </r>
       <r>   10.2485    0.0000 </r>
      </set>
      <set comment="kpoint 6">
       <r>  -32.3386    1.0000 </r>
       <r>  -32.3321    1.0000 </r>
       <r>  -30.3460    1.0000 </r>
       <r>  -30.3392    1.0000 </r>
       <r>  -15.8353    1.0000 </r>
       <r>  -14.6619    1.0000 </r>
       <r>  -14.6383    1.0000 </r>
       <r>  -14.5324    1.0000 </r>
       <r>  -14.4659    1.0000 </r>
       <r>  -14.3111    1.0000 </r>
       <r>  -14.2600    1.0000 </r>
       <r>  -13.9403    1.0000 </r>
       <r>  -13.8682    1.0000 </r>
       <r>  -13.8388    1.0000 </r>
       <r>  -13.5842    1.0000 </r>
       <r>  -13.5787    1.0000 </r>
       <r>  -13.3002    1.0000 </r>
       <r>  -13.2831    1.0000 </r>
       <r>  -12.3140    1.0000 </r>
       <r>  -12.2681    1.0000 </r>
       <r>  -12.1939    1.0000 </r>
       <r>  -12.1063    1.0000 </r>
       <r>  -12.0357    1.0000 </r>
       <r>  -12.0163    1.0000 </r>
       <r>   -2.7921    1.0000 </r>
       <r>   -2.5509    1.0000 </r>
       <r>   -2.4681    1.0000 </r>
       <r>   -2.3979    1.0000 </r>
       <r>   -1.9996    1.0000 </r>
       <r>   -1.8348    1.0000 </r>
       <r>   -1.7675    1.0000 </r>
       <r>   -1.6733    1.0000 </r>
       <r>   -1.5187    1.0000 </r>
       <r>   -1.5060    1.0000 </r>
       <r>   -1.3604    1.0000 </r>
       <r>   -1.3474    1.0000 </r>
       <r>   -1.3351    1.0000 </r>
       <r>   -1.1816    1.0000 </r>
       <r>   -1.1058    1.0000 </r>
       <r>   -1.0655    1.0000 </r>
       <r>   -1.0487    1.0000 </r>
       <r>   -1.0179    1.0000 </r>
       <r>   -1.0176    1.0000 </r>
       <r>   -0.9337    1.0000 </r>
       <r>   -0.6167    1.0000 </r>
       <r>   -0.5315    1.0000 </r>
       <r>   -0.3063    1.0000 </r>
       <r>   -0.2672    1.0000 </r>
       <r>   -0.1573    1.0000 </r>
       <r>    0.6591    1.0000 </r>
       <r>    0.8438    1.0000 </r>
       <r>    1.1674    1.0000 </r>
       <r>    1.1826    1.0000 </r>
       <r>    1.3770    1.0000 </r>
       <r>    1.4134    1.0000 </r>
       <r>    1.4558    1.0000 </r>
       <r>    1.5041    1.0000 </r>
       <r>    1.7359    1.0000 </r>
       <r>    1.7743    1.0000 </r>
       <r>    1.9055    1.0000 </r>
       <r>    1.9365    1.0000 </r>
       <r>    2.0580    1.0000 </r>
       <r>    2.0587    1.0000 </r>
       <r>    2.2940    1.0000 </r>
       <r>    2.6666    1.0000 </r>
       <r>    3.1550    0.0000 </r>
       <r>    3.2274    0.0000 </r>
       <r>    3.2742    0.0000 </r>
       <r>    4.0133    0.0000 </r>
       <r>    4.4992    0.0000 </r>
       <r>    4.7585    0.0000 </r>
       <r>    6.0808    0.0000 </r>
       <r>    6.5665    0.0000 </r>
       <r>    6.9272    0.0000 </r>
       <r>    7.3466    0.0000 </r>
       <r>    7.7676    0.0000 </r>
       <r>    8.2870    0.0000 </r>
       <r>    8.3182    0.0000 </r>
       <r>    8.6047    0.0000 </r>
       <r>    8.7250    0.0000 </r>
       <r>    8.9914    0.0000 </r>
       <r>    9.5165    0.0000 </r>
       <r>    9.5896    0.0000 </r>
       <r>    9.6699    0.0000 </r>
       <r>    9.9949    0.0000 </r>
       <r>   10.3415    0.0000 </r>
       <r>   10.5356    0.0000 </r>
       <r>   10.5762    0.0000 </r>
      </set>
      <set comment="kpoint 7">
       <r>  -32.3431    1.0000 </r>
       <r>  -32.3360    1.0000 </r>
       <r>  -30.3502    1.0000 </r>
       <r>  -30.3436    1.0000 </r>
       <r>  -15.7250    1.0000 </r>
       <r>  -14.8041    1.0000 </r>
       <r>  -14.7879    1.0000 </r>
       <r>  -14.4399    1.0000 </r>
       <r>  -14.3875    1.0000 </r>
       <r>  -14.2895    1.0000 </r>
       <r>  -14.2562    1.0000 </r>
       <r>  -14.2366    1.0000 </r>
       <r>  -13.9993    1.0000 </r>
       <r>  -13.7646    1.0000 </r>
       <r>  -13.5010    1.0000 </r>
       <r>  -13.4604    1.0000 </r>
       <r>  -13.3584    1.0000 </r>
       <r>  -13.1509    1.0000 </r>
       <r>  -12.3354    1.0000 </r>
       <r>  -12.2904    1.0000 </r>
       <r>  -12.2794    1.0000 </r>
       <r>  -12.2386    1.0000 </r>
       <r>  -11.8317    1.0000 </r>
       <r>  -11.7866    1.0000 </r>
       <r>   -3.8598    1.0000 </r>
       <r>   -2.3810    1.0000 </r>
       <r>   -2.3574    1.0000 </r>
       <r>   -2.2501    1.0000 </r>
       <r>   -2.0809    1.0000 </r>
       <r>   -1.9025    1.0000 </r>
       <r>   -1.4345    1.0000 </r>
       <r>   -1.4047    1.0000 </r>
       <r>   -1.2195    1.0000 </r>
       <r>   -1.1956    1.0000 </r>
       <r>   -1.1918    1.0000 </r>
       <r>   -1.1824    1.0000 </r>
       <r>   -1.0543    1.0000 </r>
       <r>   -1.0385    1.0000 </r>
       <r>   -0.7701    1.0000 </r>
       <r>   -0.7473    1.0000 </r>
       <r>   -0.7092    1.0000 </r>
       <r>   -0.5566    1.0000 </r>
       <r>   -0.5133    1.0000 </r>
       <r>   -0.3910    1.0000 </r>
       <r>   -0.2563    1.0000 </r>
       <r>   -0.1508    1.0000 </r>
       <r>   -0.1098    1.0000 </r>
       <r>    0.1481    1.0000 </r>
       <r>    0.1844    1.0000 </r>
       <r>    0.2293    1.0000 </r>
       <r>    0.3816    1.0000 </r>
       <r>    0.4449    1.0000 </r>
       <r>    0.7787    1.0000 </r>
       <r>    0.8907    1.0000 </r>
       <r>    0.9966    1.0000 </r>
       <r>    1.1226    1.0000 </r>
       <r>    1.3018    1.0000 </r>
       <r>    1.4624    1.0000 </r>
       <r>    1.6590    1.0000 </r>
       <r>    1.6870    1.0000 </r>
       <r>    1.8860    1.0000 </r>
       <r>    1.9347    1.0000 </r>
       <r>    1.9519    1.0000 </r>
       <r>    2.1219    1.0000 </r>
       <r>    2.1789    1.0000 </r>
       <r>    2.2070    1.0000 </r>
       <r>    2.9170    0.0109 </r>
       <r>    2.9257    0.0055 </r>
       <r>    4.2629    0.0000 </r>
       <r>    4.3126    0.0000 </r>
       <r>    5.8632    0.0000 </r>
       <r>    6.3297    0.0000 </r>
       <r>    6.4256    0.0000 </r>
       <r>    6.6150    0.0000 </r>
       <r>    6.9122    0.0000 </r>
       <r>    7.2995    0.0000 </r>
       <r>    7.4759    0.0000 </r>
       <r>    7.9072    0.0000 </r>
       <r>    8.9521    0.0000 </r>
       <r>    9.1161    0.0000 </r>
       <r>    9.3644    0.0000 </r>
       <r>    9.4186    0.0000 </r>
       <r>    9.5240    0.0000 </r>
       <r>    9.5332    0.0000 </r>
       <r>    9.8586    0.0000 </r>
       <r>   10.0186    0.0000 </r>
       <r>   10.3560    0.0000 </r>
       <r>   10.7251    0.0000 </r>
      </set>
      <set comment="kpoint 8">
       <r>  -32.3388    1.0000 </r>
       <r>  -32.3319    1.0000 </r>
       <r>  -30.3458    1.0000 </r>
       <r>  -30.3393    1.0000 </r>
       <r>  -15.7162    1.0000 </r>
       <r>  -14.7698    1.0000 </r>
       <r>  -14.7520    1.0000 </r>
       <r>  -14.5031    1.0000 </r>
       <r>  -14.4602    1.0000 </r>
       <r>  -14.2749    1.0000 </r>
       <r>  -14.2475    1.0000 </r>
       <r>  -14.0562    1.0000 </r>
       <r>  -13.9079    1.0000 </r>
       <r>  -13.7261    1.0000 </r>
       <r>  -13.5110    1.0000 </r>
       <r>  -13.5017    1.0000 </r>
       <r>  -13.3275    1.0000 </r>
       <r>  -13.1781    1.0000 </r>
       <r>  -12.4217    1.0000 </r>
       <r>  -12.3499    1.0000 </r>
       <r>  -12.2635    1.0000 </r>
       <r>  -12.2356    1.0000 </r>
       <r>  -11.9497    1.0000 </r>
       <r>  -11.8729    1.0000 </r>
       <r>   -3.8363    1.0000 </r>
       <r>   -2.4261    1.0000 </r>
       <r>   -2.3969    1.0000 </r>
       <r>   -2.1995    1.0000 </r>
       <r>   -2.1731    1.0000 </r>
       <r>   -1.9206    1.0000 </r>
       <r>   -1.5590    1.0000 </r>
       <r>   -1.5585    1.0000 </r>
       <r>   -1.4274    1.0000 </r>
       <r>   -1.4023    1.0000 </r>
       <r>   -1.3757    1.0000 </r>
       <r>   -1.3584    1.0000 </r>
       <r>   -1.3202    1.0000 </r>
       <r>   -1.2781    1.0000 </r>
       <r>   -1.1135    1.0000 </r>
       <r>   -1.0919    1.0000 </r>
       <r>   -1.0520    1.0000 </r>
       <r>   -0.9302    1.0000 </r>
       <r>   -0.8430    1.0000 </r>
       <r>   -0.8014    1.0000 </r>
       <r>   -0.7059    1.0000 </r>
       <r>   -0.6448    1.0000 </r>
       <r>    0.0281    1.0000 </r>
       <r>    0.3590    1.0000 </r>
       <r>    0.3818    1.0000 </r>
       <r>    0.6105    1.0000 </r>
       <r>    0.6463    1.0000 </r>
       <r>    0.7434    1.0000 </r>
       <r>    1.1530    1.0000 </r>
       <r>    1.1989    1.0000 </r>
       <r>    1.2921    1.0000 </r>
       <r>    1.4595    1.0000 </r>
       <r>    1.4734    1.0000 </r>
       <r>    1.5488    1.0000 </r>
       <r>    1.8402    1.0000 </r>
       <r>    1.9590    1.0000 </r>
       <r>    2.0149    1.0000 </r>
       <r>    2.0841    1.0000 </r>
       <r>    2.0858    1.0000 </r>
       <r>    2.1920    1.0000 </r>
       <r>    2.5606    1.0000 </r>
       <r>    2.9921    0.0000 </r>
       <r>    3.2513    0.0000 </r>
       <r>    3.5459    0.0000 </r>
       <r>    4.0053    0.0000 </r>
       <r>    4.2306    0.0000 </r>
       <r>    5.3417    0.0000 </r>
       <r>    6.3661    0.0000 </r>
       <r>    6.5969    0.0000 </r>
       <r>    6.7339    0.0000 </r>
       <r>    7.0810    0.0000 </r>
       <r>    7.4112    0.0000 </r>
       <r>    8.0199    0.0000 </r>
       <r>    8.3892    0.0000 </r>
       <r>    8.9358    0.0000 </r>
       <r>    9.1014    0.0000 </r>
       <r>    9.1123    0.0000 </r>
       <r>    9.6343    0.0000 </r>
       <r>    9.6444    0.0000 </r>
       <r>    9.8131    0.0000 </r>
       <r>    9.8950    0.0000 </r>
       <r>   10.0166    0.0000 </r>
       <r>   10.3249    0.0000 </r>
       <r>   10.5914    0.0000 </r>
      </set>
      <set comment="kpoint 9">
       <r>  -32.3318    1.0000 </r>
       <r>  -32.3253    1.0000 </r>
       <r>  -30.3387    1.0000 </r>
       <r>  -30.3322    1.0000 </r>
       <r>  -15.7323    1.0000 </r>
       <r>  -14.7118    1.0000 </r>
       <r>  -14.6983    1.0000 </r>
       <r>  -14.5873    1.0000 </r>
       <r>  -14.4545    1.0000 </r>
       <r>  -14.2039    1.0000 </r>
       <r>  -14.1762    1.0000 </r>
       <r>  -13.9497    1.0000 </r>
       <r>  -13.7124    1.0000 </r>
       <r>  -13.6403    1.0000 </r>
       <r>  -13.5794    1.0000 </r>
       <r>  -13.5585    1.0000 </r>
       <r>  -13.2912    1.0000 </r>
       <r>  -13.2555    1.0000 </r>
       <r>  -12.4488    1.0000 </r>
       <r>  -12.3588    1.0000 </r>
       <r>  -12.3144    1.0000 </r>
       <r>  -12.3049    1.0000 </r>
       <r>  -12.1807    1.0000 </r>
       <r>  -12.0104    1.0000 </r>
       <r>   -3.8021    1.0000 </r>
       <r>   -2.7914    1.0000 </r>
       <r>   -2.7402    1.0000 </r>
       <r>   -2.3939    1.0000 </r>
       <r>   -2.3330    1.0000 </r>
       <r>   -2.1507    1.0000 </r>
       <r>   -2.1492    1.0000 </r>
       <r>   -2.1343    1.0000 </r>
       <r>   -1.8176    1.0000 </r>
       <r>   -1.8149    1.0000 </r>
       <r>   -1.8071    1.0000 </r>
       <r>   -1.5037    1.0000 </r>
       <r>   -1.2887    1.0000 </r>
       <r>   -1.2810    1.0000 </r>
       <r>   -1.2316    1.0000 </r>
       <r>   -1.1812    1.0000 </r>
       <r>   -1.1352    1.0000 </r>
       <r>   -1.0942    1.0000 </r>
       <r>   -1.0385    1.0000 </r>
       <r>   -1.0115    1.0000 </r>
       <r>   -0.7030    1.0000 </r>
       <r>   -0.3227    1.0000 </r>
       <r>    0.0656    1.0000 </r>
       <r>    0.2876    1.0000 </r>
       <r>    0.4055    1.0000 </r>
       <r>    1.0049    1.0000 </r>
       <r>    1.1771    1.0000 </r>
       <r>    1.2581    1.0000 </r>
       <r>    1.3419    1.0000 </r>
       <r>    1.4011    1.0000 </r>
       <r>    1.5898    1.0000 </r>
       <r>    1.6326    1.0000 </r>
       <r>    1.6984    1.0000 </r>
       <r>    1.7102    1.0000 </r>
       <r>    1.8439    1.0000 </r>
       <r>    2.0131    1.0000 </r>
       <r>    2.0824    1.0000 </r>
       <r>    2.2517    1.0000 </r>
       <r>    2.5043    1.0000 </r>
       <r>    2.5175    1.0000 </r>
       <r>    2.6763    1.0000 </r>
       <r>    3.1151    0.0000 </r>
       <r>    3.9310    0.0000 </r>
       <r>    4.1146    0.0000 </r>
       <r>    4.2261    0.0000 </r>
       <r>    4.2339    0.0000 </r>
       <r>    5.0326    0.0000 </r>
       <r>    5.8551    0.0000 </r>
       <r>    7.0820    0.0000 </r>
       <r>    7.4607    0.0000 </r>
       <r>    7.7883    0.0000 </r>
       <r>    8.4179    0.0000 </r>
       <r>    8.6039    0.0000 </r>
       <r>    8.8780    0.0000 </r>
       <r>    8.9952    0.0000 </r>
       <r>    9.0692    0.0000 </r>
       <r>    9.3585    0.0000 </r>
       <r>    9.4850    0.0000 </r>
       <r>    9.7434    0.0000 </r>
       <r>    9.7961    0.0000 </r>
       <r>    9.9790    0.0000 </r>
       <r>   10.1923    0.0000 </r>
       <r>   10.2002    0.0000 </r>
       <r>   10.6966    0.0000 </r>
      </set>
     </set>
     <set comment="spin 2">
      <set comment="kpoint 1">
       <r>  -32.3513    1.0000 </r>
       <r>  -32.3441    1.0000 </r>
       <r>  -30.3633    1.0000 </r>
       <r>  -30.3560    1.0000 </r>
       <r>  -15.8516    1.0000 </r>
       <r>  -14.8697    1.0000 </r>
       <r>  -14.7816    1.0000 </r>
       <r>  -14.3754    1.0000 </r>
       <r>  -14.3640    1.0000 </r>
       <r>  -14.2723    1.0000 </r>
       <r>  -14.2531    1.0000 </r>
       <r>  -14.1574    1.0000 </r>
       <r>  -13.8133    1.0000 </r>
       <r>  -13.7404    1.0000 </r>
       <r>  -13.3447    1.0000 </r>
       <r>  -13.3444    1.0000 </r>
       <r>  -13.1753    1.0000 </r>
       <r>  -13.0847    1.0000 </r>
       <r>  -12.3234    1.0000 </r>
       <r>  -12.3119    1.0000 </r>
       <r>  -12.2147    1.0000 </r>
       <r>  -12.2125    1.0000 </r>
       <r>  -12.1954    1.0000 </r>
       <r>  -12.0924    1.0000 </r>
       <r>   -1.9158    1.0000 </r>
       <r>   -1.7473    1.0000 </r>
       <r>   -1.4612    1.0000 </r>
       <r>   -1.1585    1.0000 </r>
       <r>   -1.1356    1.0000 </r>
       <r>   -1.0616    1.0000 </r>
       <r>   -1.0437    1.0000 </r>
       <r>   -1.0322    1.0000 </r>
       <r>   -0.9955    1.0000 </r>
       <r>   -0.9812    1.0000 </r>
       <r>   -0.9485    1.0000 </r>
       <r>   -0.8567    1.0000 </r>
       <r>   -0.6915    1.0000 </r>
       <r>   -0.6806    1.0000 </r>
       <r>   -0.6721    1.0000 </r>
       <r>   -0.6721    1.0000 </r>
       <r>   -0.6548    1.0000 </r>
       <r>   -0.6127    1.0000 </r>
       <r>   -0.5763    1.0000 </r>
       <r>   -0.5731    1.0000 </r>
       <r>   -0.5153    1.0000 </r>
       <r>   -0.4805    1.0000 </r>
       <r>   -0.4580    1.0000 </r>
       <r>   -0.3919    1.0000 </r>
       <r>   -0.2480    1.0000 </r>
       <r>   -0.0664    1.0000 </r>
       <r>   -0.0154    1.0000 </r>
       <r>    0.6073    1.0000 </r>
       <r>    0.8031    1.0000 </r>
       <r>    0.8074    1.0000 </r>
       <r>    0.8077    1.0000 </r>
       <r>    0.9341    1.0000 </r>
       <r>    1.1868    1.0000 </r>
       <r>    1.2777    1.0000 </r>
       <r>    1.7472    1.0000 </r>
       <r>    1.9154    1.0000 </r>
       <r>    1.9211    1.0000 </r>
       <r>    1.9745    1.0000 </r>
       <r>    1.9907    1.0000 </r>
       <r>    2.1205    1.0000 </r>
       <r>    2.1950    1.0000 </r>
       <r>    2.2982    1.0000 </r>
       <r>    2.4404    1.0000 </r>
       <r>    2.4744    1.0000 </r>
       <r>    2.4944    1.0000 </r>
       <r>    3.6754    0.0000 </r>
       <r>    4.9155    0.0000 </r>
       <r>    5.6245    0.0000 </r>
       <r>    6.6100    0.0000 </r>
       <r>    6.6537    0.0000 </r>
       <r>    7.8021    0.0000 </r>
       <r>    8.0646    0.0000 </r>
       <r>    8.1190    0.0000 </r>
       <r>    8.4931    0.0000 </r>
       <r>    8.5025    0.0000 </r>
       <r>    8.7299    0.0000 </r>
       <r>    8.8138    0.0000 </r>
       <r>    8.8257    0.0000 </r>
       <r>    8.8954    0.0000 </r>
       <r>    8.9946    0.0000 </r>
       <r>    9.0019    0.0000 </r>
       <r>    9.0675    0.0000 </r>
       <r>    9.8860    0.0000 </r>
       <r>    9.9362    0.0000 </r>
      </set>
      <set comment="kpoint 2">
       <r>  -32.3469    1.0000 </r>
       <r>  -32.3399    1.0000 </r>
       <r>  -30.3585    1.0000 </r>
       <r>  -30.3513    1.0000 </r>
       <r>  -15.8364    1.0000 </r>
       <r>  -14.7998    1.0000 </r>
       <r>  -14.7877    1.0000 </r>
       <r>  -14.3685    1.0000 </r>
       <r>  -14.3573    1.0000 </r>
       <r>  -14.3537    1.0000 </r>
       <r>  -14.2030    1.0000 </r>
       <r>  -14.0820    1.0000 </r>
       <r>  -13.8326    1.0000 </r>
       <r>  -13.8210    1.0000 </r>
       <r>  -13.4468    1.0000 </r>
       <r>  -13.4103    1.0000 </r>
       <r>  -13.2478    1.0000 </r>
       <r>  -13.2095    1.0000 </r>
       <r>  -12.2286    1.0000 </r>
       <r>  -12.2022    1.0000 </r>
       <r>  -12.1827    1.0000 </r>
       <r>  -12.1689    1.0000 </r>
       <r>  -12.1231    1.0000 </r>
       <r>  -12.0688    1.0000 </r>
       <r>   -1.9694    1.0000 </r>
       <r>   -1.7319    1.0000 </r>
       <r>   -1.4907    1.0000 </r>
       <r>   -1.4676    1.0000 </r>
       <r>   -1.3934    1.0000 </r>
       <r>   -1.3927    1.0000 </r>
       <r>   -1.3297    1.0000 </r>
       <r>   -1.2010    1.0000 </r>
       <r>   -1.1106    1.0000 </r>
       <r>   -1.0693    1.0000 </r>
       <r>   -1.0562    1.0000 </r>
       <r>   -1.0494    1.0000 </r>
       <r>   -1.0204    1.0000 </r>
       <r>   -0.9884    1.0000 </r>
       <r>   -0.9816    1.0000 </r>
       <r>   -0.9070    1.0000 </r>
       <r>   -0.8556    1.0000 </r>
       <r>   -0.7609    1.0000 </r>
       <r>   -0.7416    1.0000 </r>
       <r>   -0.6128    1.0000 </r>
       <r>   -0.6085    1.0000 </r>
       <r>   -0.4725    1.0000 </r>
       <r>   -0.3552    1.0000 </r>
       <r>   -0.3125    1.0000 </r>
       <r>   -0.3077    1.0000 </r>
       <r>    0.1546    1.0000 </r>
       <r>    0.2383    1.0000 </r>
       <r>    0.8863    1.0000 </r>
       <r>    0.9714    1.0000 </r>
       <r>    1.0539    1.0000 </r>
       <r>    1.1614    1.0000 </r>
       <r>    1.2036    1.0000 </r>
       <r>    1.2789    1.0000 </r>
       <r>    1.4263    1.0000 </r>
       <r>    1.7828    1.0000 </r>
       <r>    1.8281    1.0000 </r>
       <r>    1.9037    1.0000 </r>
       <r>    1.9057    1.0000 </r>
       <r>    1.9076    1.0000 </r>
       <r>    2.0798    1.0000 </r>
       <r>    2.2909    1.0000 </r>
       <r>    2.3274    1.0000 </r>
       <r>    2.3726    1.0000 </r>
       <r>    2.8222    0.6502 </r>
       <r>    3.2575    0.0000 </r>
       <r>    4.0537    0.0000 </r>
       <r>    5.4284    0.0000 </r>
       <r>    6.0024    0.0000 </r>
       <r>    6.2025    0.0000 </r>
       <r>    6.8849    0.0000 </r>
       <r>    7.8759    0.0000 </r>
       <r>    8.0859    0.0000 </r>
       <r>    8.1894    0.0000 </r>
       <r>    8.1978    0.0000 </r>
       <r>    8.3935    0.0000 </r>
       <r>    8.4785    0.0000 </r>
       <r>    8.7572    0.0000 </r>
       <r>    8.8371    0.0000 </r>
       <r>    9.0629    0.0000 </r>
       <r>    9.1116    0.0000 </r>
       <r>    9.2473    0.0000 </r>
       <r>    9.6611    0.0000 </r>
       <r>    9.7071    0.0000 </r>
       <r>   10.0802    0.0000 </r>
      </set>
      <set comment="kpoint 3">
       <r>  -32.3397    1.0000 </r>
       <r>  -32.3331    1.0000 </r>
       <r>  -30.3507    1.0000 </r>
       <r>  -30.3436    1.0000 </r>
       <r>  -15.8453    1.0000 </r>
       <r>  -14.6838    1.0000 </r>
       <r>  -14.6522    1.0000 </r>
       <r>  -14.4329    1.0000 </r>
       <r>  -14.3572    1.0000 </r>
       <r>  -14.3464    1.0000 </r>
       <r>  -14.3141    1.0000 </r>
       <r>  -13.9819    1.0000 </r>
       <r>  -13.9496    1.0000 </r>
       <r>  -13.8955    1.0000 </r>
       <r>  -13.5375    1.0000 </r>
       <r>  -13.5090    1.0000 </r>
       <r>  -13.3059    1.0000 </r>
       <r>  -13.2840    1.0000 </r>
       <r>  -12.2505    1.0000 </r>
       <r>  -12.1819    1.0000 </r>
       <r>  -12.1619    1.0000 </r>
       <r>  -12.1017    1.0000 </r>
       <r>  -11.9395    1.0000 </r>
       <r>  -11.9117    1.0000 </r>
       <r>   -2.5265    1.0000 </r>
       <r>   -2.2528    1.0000 </r>
       <r>   -2.2482    1.0000 </r>
       <r>   -1.8328    1.0000 </r>
       <r>   -1.7474    1.0000 </r>
       <r>   -1.7057    1.0000 </r>
       <r>   -1.5556    1.0000 </r>
       <r>   -1.2603    1.0000 </r>
       <r>   -1.1891    1.0000 </r>
       <r>   -1.1811    1.0000 </r>
       <r>   -1.1706    1.0000 </r>
       <r>   -1.1226    1.0000 </r>
       <r>   -1.0838    1.0000 </r>
       <r>   -1.0564    1.0000 </r>
       <r>   -1.0317    1.0000 </r>
       <r>   -1.0197    1.0000 </r>
       <r>   -0.9753    1.0000 </r>
       <r>   -0.9721    1.0000 </r>
       <r>   -0.9287    1.0000 </r>
       <r>   -0.6435    1.0000 </r>
       <r>   -0.4674    1.0000 </r>
       <r>   -0.4176    1.0000 </r>
       <r>   -0.2905    1.0000 </r>
       <r>   -0.1911    1.0000 </r>
       <r>   -0.1211    1.0000 </r>
       <r>    0.2979    1.0000 </r>
       <r>    0.4537    1.0000 </r>
       <r>    0.9954    1.0000 </r>
       <r>    1.0204    1.0000 </r>
       <r>    1.1141    1.0000 </r>
       <r>    1.3055    1.0000 </r>
       <r>    1.3410    1.0000 </r>
       <r>    1.5233    1.0000 </r>
       <r>    1.5853    1.0000 </r>
       <r>    1.7927    1.0000 </r>
       <r>    1.8070    1.0000 </r>
       <r>    1.8594    1.0000 </r>
       <r>    1.8998    1.0000 </r>
       <r>    1.9814    1.0000 </r>
       <r>    2.1455    1.0000 </r>
       <r>    2.2370    1.0000 </r>
       <r>    2.6131    1.0000 </r>
       <r>    2.9383    0.0019 </r>
       <r>    2.9469    0.0008 </r>
       <r>    4.0978    0.0000 </r>
       <r>    4.4032    0.0000 </r>
       <r>    5.0074    0.0000 </r>
       <r>    6.3949    0.0000 </r>
       <r>    6.7138    0.0000 </r>
       <r>    6.9668    0.0000 </r>
       <r>    7.5234    0.0000 </r>
       <r>    7.5973    0.0000 </r>
       <r>    7.8551    0.0000 </r>
       <r>    8.0430    0.0000 </r>
       <r>    8.2100    0.0000 </r>
       <r>    8.7362    0.0000 </r>
       <r>    9.1380    0.0000 </r>
       <r>    9.3536    0.0000 </r>
       <r>    9.4627    0.0000 </r>
       <r>    9.5299    0.0000 </r>
       <r>    9.8235    0.0000 </r>
       <r>   10.2501    0.0000 </r>
       <r>   10.3305    0.0000 </r>
       <r>   10.4668    0.0000 </r>
      </set>
      <set comment="kpoint 4">
       <r>  -32.3470    1.0000 </r>
       <r>  -32.3399    1.0000 </r>
       <r>  -30.3583    1.0000 </r>
       <r>  -30.3513    1.0000 </r>
       <r>  -15.7863    1.0000 </r>
       <r>  -14.8042    1.0000 </r>
       <r>  -14.7383    1.0000 </r>
       <r>  -14.4368    1.0000 </r>
       <r>  -14.4170    1.0000 </r>
       <r>  -14.2655    1.0000 </r>
       <r>  -14.2462    1.0000 </r>
       <r>  -14.2154    1.0000 </r>
       <r>  -13.8361    1.0000 </r>
       <r>  -13.7455    1.0000 </r>
       <r>  -13.4016    1.0000 </r>
       <r>  -13.3719    1.0000 </r>
       <r>  -13.2748    1.0000 </r>
       <r>  -13.1202    1.0000 </r>
       <r>  -12.3109    1.0000 </r>
       <r>  -12.2996    1.0000 </r>
       <r>  -12.2230    1.0000 </r>
       <r>  -12.2054    1.0000 </r>
       <r>  -12.0252    1.0000 </r>
       <r>  -12.0029    1.0000 </r>
       <r>   -2.7217    1.0000 </r>
       <r>   -1.9217    1.0000 </r>
       <r>   -1.8894    1.0000 </r>
       <r>   -1.6643    1.0000 </r>
       <r>   -1.4331    1.0000 </r>
       <r>   -1.4248    1.0000 </r>
       <r>   -1.1604    1.0000 </r>
       <r>   -1.1299    1.0000 </r>
       <r>   -1.0832    1.0000 </r>
       <r>   -1.0609    1.0000 </r>
       <r>   -1.0277    1.0000 </r>
       <r>   -0.9966    1.0000 </r>
       <r>   -0.9740    1.0000 </r>
       <r>   -0.9462    1.0000 </r>
       <r>   -0.7344    1.0000 </r>
       <r>   -0.6773    1.0000 </r>
       <r>   -0.6246    1.0000 </r>
       <r>   -0.5176    1.0000 </r>
       <r>   -0.4985    1.0000 </r>
       <r>   -0.4152    1.0000 </r>
       <r>   -0.3693    1.0000 </r>
       <r>   -0.3626    1.0000 </r>
       <r>   -0.3123    1.0000 </r>
       <r>   -0.2037    1.0000 </r>
       <r>   -0.1264    1.0000 </r>
       <r>    0.1575    1.0000 </r>
       <r>    0.2348    1.0000 </r>
       <r>    0.5524    1.0000 </r>
       <r>    0.7621    1.0000 </r>
       <r>    0.9049    1.0000 </r>
       <r>    0.9862    1.0000 </r>
       <r>    1.1424    1.0000 </r>
       <r>    1.3402    1.0000 </r>
       <r>    1.4174    1.0000 </r>
       <r>    1.7572    1.0000 </r>
       <r>    1.7633    1.0000 </r>
       <r>    1.9604    1.0000 </r>
       <r>    1.9642    1.0000 </r>
       <r>    1.9831    1.0000 </r>
       <r>    2.1854    1.0000 </r>
       <r>    2.3737    1.0000 </r>
       <r>    2.3771    1.0000 </r>
       <r>    2.5341    1.0000 </r>
       <r>    2.7482    0.9934 </r>
       <r>    2.8613    0.2361 </r>
       <r>    3.9509    0.0000 </r>
       <r>    5.2953    0.0000 </r>
       <r>    5.9773    0.0000 </r>
       <r>    6.8210    0.0000 </r>
       <r>    6.8547    0.0000 </r>
       <r>    7.3563    0.0000 </r>
       <r>    7.4282    0.0000 </r>
       <r>    8.1322    0.0000 </r>
       <r>    8.1786    0.0000 </r>
       <r>    8.5652    0.0000 </r>
       <r>    8.9562    0.0000 </r>
       <r>    8.9737    0.0000 </r>
       <r>    9.0506    0.0000 </r>
       <r>    9.0530    0.0000 </r>
       <r>    9.2624    0.0000 </r>
       <r>    9.3298    0.0000 </r>
       <r>    9.9794    0.0000 </r>
       <r>   10.0122    0.0000 </r>
       <r>   10.1068    0.0000 </r>
      </set>
      <set comment="kpoint 5">
       <r>  -32.3426    1.0000 </r>
       <r>  -32.3357    1.0000 </r>
       <r>  -30.3537    1.0000 </r>
       <r>  -30.3468    1.0000 </r>
       <r>  -15.7731    1.0000 </r>
       <r>  -14.7472    1.0000 </r>
       <r>  -14.7344    1.0000 </r>
       <r>  -14.4647    1.0000 </r>
       <r>  -14.4439    1.0000 </r>
       <r>  -14.3231    1.0000 </r>
       <r>  -14.1609    1.0000 </r>
       <r>  -14.1146    1.0000 </r>
       <r>  -13.8165    1.0000 </r>
       <r>  -13.7939    1.0000 </r>
       <r>  -13.4314    1.0000 </r>
       <r>  -13.4313    1.0000 </r>
       <r>  -13.3127    1.0000 </r>
       <r>  -13.1988    1.0000 </r>
       <r>  -12.3149    1.0000 </r>
       <r>  -12.2774    1.0000 </r>
       <r>  -12.2481    1.0000 </r>
       <r>  -12.1483    1.0000 </r>
       <r>  -12.0028    1.0000 </r>
       <r>  -11.9991    1.0000 </r>
       <r>   -2.7007    1.0000 </r>
       <r>   -1.9683    1.0000 </r>
       <r>   -1.8228    1.0000 </r>
       <r>   -1.7880    1.0000 </r>
       <r>   -1.6142    1.0000 </r>
       <r>   -1.5814    1.0000 </r>
       <r>   -1.4039    1.0000 </r>
       <r>   -1.3205    1.0000 </r>
       <r>   -1.2931    1.0000 </r>
       <r>   -1.2645    1.0000 </r>
       <r>   -1.1564    1.0000 </r>
       <r>   -1.0785    1.0000 </r>
       <r>   -1.0424    1.0000 </r>
       <r>   -1.0352    1.0000 </r>
       <r>   -0.9987    1.0000 </r>
       <r>   -0.9939    1.0000 </r>
       <r>   -0.9703    1.0000 </r>
       <r>   -0.8674    1.0000 </r>
       <r>   -0.7826    1.0000 </r>
       <r>   -0.7803    1.0000 </r>
       <r>   -0.6119    1.0000 </r>
       <r>   -0.6065    1.0000 </r>
       <r>   -0.2929    1.0000 </r>
       <r>   -0.1997    1.0000 </r>
       <r>   -0.1609    1.0000 </r>
       <r>    0.4693    1.0000 </r>
       <r>    0.5453    1.0000 </r>
       <r>    0.9576    1.0000 </r>
       <r>    1.1483    1.0000 </r>
       <r>    1.3154    1.0000 </r>
       <r>    1.3524    1.0000 </r>
       <r>    1.3938    1.0000 </r>
       <r>    1.4645    1.0000 </r>
       <r>    1.4772    1.0000 </r>
       <r>    1.5378    1.0000 </r>
       <r>    1.5423    1.0000 </r>
       <r>    1.7620    1.0000 </r>
       <r>    2.0515    1.0000 </r>
       <r>    2.0903    1.0000 </r>
       <r>    2.2981    1.0000 </r>
       <r>    2.6754    1.0000 </r>
       <r>    2.9628    0.0002 </r>
       <r>    2.9797    0.0000 </r>
       <r>    3.0072    0.0000 </r>
       <r>    3.3000    0.0000 </r>
       <r>    4.2044    0.0000 </r>
       <r>    5.4673    0.0000 </r>
       <r>    6.2078    0.0000 </r>
       <r>    6.4609    0.0000 </r>
       <r>    7.0273    0.0000 </r>
       <r>    7.3047    0.0000 </r>
       <r>    7.4735    0.0000 </r>
       <r>    7.5436    0.0000 </r>
       <r>    8.3350    0.0000 </r>
       <r>    8.3355    0.0000 </r>
       <r>    8.8031    0.0000 </r>
       <r>    8.9066    0.0000 </r>
       <r>    9.0840    0.0000 </r>
       <r>    9.4375    0.0000 </r>
       <r>    9.5333    0.0000 </r>
       <r>    9.8115    0.0000 </r>
       <r>    9.8838    0.0000 </r>
       <r>   10.0754    0.0000 </r>
       <r>   10.2545    0.0000 </r>
      </set>
      <set comment="kpoint 6">
       <r>  -32.3355    1.0000 </r>
       <r>  -32.3290    1.0000 </r>
       <r>  -30.3462    1.0000 </r>
       <r>  -30.3393    1.0000 </r>
       <r>  -15.7850    1.0000 </r>
       <r>  -14.6501    1.0000 </r>
       <r>  -14.6220    1.0000 </r>
       <r>  -14.5213    1.0000 </r>
       <r>  -14.4561    1.0000 </r>
       <r>  -14.3032    1.0000 </r>
       <r>  -14.2450    1.0000 </r>
       <r>  -13.9332    1.0000 </r>
       <r>  -13.8531    1.0000 </r>
       <r>  -13.8290    1.0000 </r>
       <r>  -13.5462    1.0000 </r>
       <r>  -13.5396    1.0000 </r>
       <r>  -13.2777    1.0000 </r>
       <r>  -13.2617    1.0000 </r>
       <r>  -12.3129    1.0000 </r>
       <r>  -12.2638    1.0000 </r>
       <r>  -12.1903    1.0000 </r>
       <r>  -12.1050    1.0000 </r>
       <r>  -12.0340    1.0000 </r>
       <r>  -12.0134    1.0000 </r>
       <r>   -2.6731    1.0000 </r>
       <r>   -2.5111    1.0000 </r>
       <r>   -2.3223    1.0000 </r>
       <r>   -2.3055    1.0000 </r>
       <r>   -1.9566    1.0000 </r>
       <r>   -1.8236    1.0000 </r>
       <r>   -1.7324    1.0000 </r>
       <r>   -1.6576    1.0000 </r>
       <r>   -1.4596    1.0000 </r>
       <r>   -1.4518    1.0000 </r>
       <r>   -1.3019    1.0000 </r>
       <r>   -1.2716    1.0000 </r>
       <r>   -1.2429    1.0000 </r>
       <r>   -1.1457    1.0000 </r>
       <r>   -1.0683    1.0000 </r>
       <r>   -1.0608    1.0000 </r>
       <r>   -1.0120    1.0000 </r>
       <r>   -0.9887    1.0000 </r>
       <r>   -0.9828    1.0000 </r>
       <r>   -0.8947    1.0000 </r>
       <r>   -0.6062    1.0000 </r>
       <r>   -0.4504    1.0000 </r>
       <r>   -0.2326    1.0000 </r>
       <r>   -0.1964    1.0000 </r>
       <r>   -0.1222    1.0000 </r>
       <r>    0.7066    1.0000 </r>
       <r>    0.8767    1.0000 </r>
       <r>    1.1971    1.0000 </r>
       <r>    1.2130    1.0000 </r>
       <r>    1.4031    1.0000 </r>
       <r>    1.4357    1.0000 </r>
       <r>    1.4810    1.0000 </r>
       <r>    1.5277    1.0000 </r>
       <r>    1.7609    1.0000 </r>
       <r>    1.7779    1.0000 </r>
       <r>    1.9360    1.0000 </r>
       <r>    1.9794    1.0000 </r>
       <r>    2.0785    1.0000 </r>
       <r>    2.0946    1.0000 </r>
       <r>    2.3309    1.0000 </r>
       <r>    2.6796    1.0000 </r>
       <r>    3.3198    0.0000 </r>
       <r>    3.3897    0.0000 </r>
       <r>    3.4580    0.0000 </r>
       <r>    4.0318    0.0000 </r>
       <r>    4.5911    0.0000 </r>
       <r>    4.8331    0.0000 </r>
       <r>    6.1655    0.0000 </r>
       <r>    6.5690    0.0000 </r>
       <r>    6.9608    0.0000 </r>
       <r>    7.3756    0.0000 </r>
       <r>    7.8065    0.0000 </r>
       <r>    8.3056    0.0000 </r>
       <r>    8.3302    0.0000 </r>
       <r>    8.6185    0.0000 </r>
       <r>    8.7460    0.0000 </r>
       <r>    9.0131    0.0000 </r>
       <r>    9.5222    0.0000 </r>
       <r>    9.6052    0.0000 </r>
       <r>    9.6775    0.0000 </r>
       <r>    9.9973    0.0000 </r>
       <r>   10.3638    0.0000 </r>
       <r>   10.5442    0.0000 </r>
       <r>   10.5794    0.0000 </r>
      </set>
      <set comment="kpoint 7">
       <r>  -32.3401    1.0000 </r>
       <r>  -32.3330    1.0000 </r>
       <r>  -30.3503    1.0000 </r>
       <r>  -30.3437    1.0000 </r>
       <r>  -15.6761    1.0000 </r>
       <r>  -14.7857    1.0000 </r>
       <r>  -14.7696    1.0000 </r>
       <r>  -14.4286    1.0000 </r>
       <r>  -14.3787    1.0000 </r>
       <r>  -14.2722    1.0000 </r>
       <r>  -14.2546    1.0000 </r>
[...]
       <r>     1.8526     9.3175    59.7571 </r>
       <r>     2.0107    10.6601    61.4424 </r>
       <r>     2.1688    10.7760    63.1461 </r>
       <r>     2.3269     6.6134    64.1917 </r>
       <r>     2.4850     2.5445    64.5940 </r>
       <r>     2.6431     4.5332    65.3107 </r>
       <r>     2.8012     4.4019    66.0066 </r>
       <r>     2.9593     4.2859    66.6842 </r>
       <r>     3.1174     1.6636    66.9472 </r>
       <r>     3.2755     4.1001    67.5954 </r>
       <r>     3.4336     1.8004    67.8801 </r>
       <r>     3.5917     1.0131    68.0403 </r>
       <r>     3.7498     0.2515    68.0800 </r>
       <r>     3.9079     0.7209    68.1940 </r>
       <r>     4.0660     3.6397    68.7694 </r>
       <r>     4.2241     3.5991    69.3385 </r>
       <r>     4.3822     3.1453    69.8357 </r>
       <r>     4.5403     0.9148    69.9804 </r>
       <r>     4.6984     0.1692    70.0071 </r>
       <r>     4.8565     1.0462    70.1725 </r>
       <r>     5.0146     0.9866    70.3285 </r>
       <r>     5.1727     0.7087    70.4405 </r>
       <r>     5.3308     0.9475    70.5903 </r>
       <r>     5.4889     2.0774    70.9188 </r>
       <r>     5.6470     0.2096    70.9519 </r>
       <r>     5.8051     0.1559    70.9765 </r>
       <r>     5.9632     1.7295    71.2500 </r>
       <r>     6.1213     1.6997    71.5187 </r>
       <r>     6.2794     1.6107    71.7733 </r>
       <r>     6.4375     2.9997    72.2476 </r>
       <r>     6.5956     2.1488    72.5873 </r>
       <r>     6.7537     2.6719    73.0097 </r>
       <r>     6.9118     2.3574    73.3824 </r>
       <r>     7.0699     3.1348    73.8781 </r>
       <r>     7.2280     1.3429    74.0904 </r>
       <r>     7.3861     3.3719    74.6235 </r>
       <r>     7.5442     5.0168    75.4166 </r>
       <r>     7.7023     0.6959    75.5266 </r>
       <r>     7.8604     2.9953    76.0002 </r>
       <r>     8.0185     1.8130    76.2868 </r>
       <r>     8.1766     2.8840    76.7428 </r>
       <r>     8.3347     4.3595    77.4320 </r>
       <r>     8.4928     4.0171    78.0671 </r>
       <r>     8.6509     2.7219    78.4975 </r>
       <r>     8.8090     3.5978    79.0663 </r>
       <r>     8.9671     5.5257    79.9399 </r>
       <r>     9.1252     8.6969    81.3148 </r>
       <r>     9.2833     2.2631    81.6726 </r>
       <r>     9.4414     3.8868    82.2871 </r>
       <r>     9.5995     6.1864    83.2652 </r>
       <r>     9.7576     5.0994    84.0714 </r>
       <r>     9.9157     6.1225    85.0394 </r>
       <r>    10.0738     6.1732    86.0154 </r>
       <r>    10.2319     3.1484    86.5131 </r>
       <r>    10.3900     4.1415    87.1679 </r>
       <r>    10.5481     1.6769    87.4330 </r>
       <r>    10.7062     2.8307    87.8805 </r>
       <r>    10.8643     0.7555    88.0000 </r>
       <r>    11.0224     0.0000    88.0000 </r>
       <r>    11.1805     0.0000    88.0000 </r>
       <r>    11.3386     0.0000    88.0000 </r>
       <r>    11.4967     0.0000    88.0000 </r>
       <r>    11.6548     0.0000    88.0000 </r>
       <r>    11.8129     0.0000    88.0000 </r>
       <r>    11.9709     0.0000    88.0000 </r>
       <r>    12.1290     0.0000    88.0000 </r>
       <r>    12.2871     0.0000    88.0000 </r>
       <r>    12.4452     0.0000    88.0000 </r>
       <r>    12.6033     0.0000    88.0000 </r>
       <r>    12.7614     0.0000    88.0000 </r>
       <r>    12.9195     0.0000    88.0000 </r>
      </set>
      <set comment="spin 2">
       <r>   -34.5103     0.0000     0.0000 </r>
       <r>   -34.3522     0.0000     0.0000 </r>
       <r>   -34.1941     0.0000     0.0000 </r>
       <r>   -34.0360     0.0000     0.0000 </r>
       <r>   -33.8779     0.0000     0.0000 </r>
       <r>   -33.7198     0.0000     0.0000 </r>
       <r>   -33.5617     0.0000     0.0000 </r>
       <r>   -33.4036     0.0000     0.0000 </r>
       <r>   -33.2455     0.0000     0.0000 </r>
       <r>   -33.0874     0.0000     0.0000 </r>
       <r>   -32.9293     0.0000     0.0000 </r>
       <r>   -32.7712     0.0000     0.0000 </r>
       <r>   -32.6131     0.0000     0.0000 </r>
       <r>   -32.4550     0.0057     0.0009 </r>
       <r>   -32.2969    10.8371     1.7142 </r>
       <r>   -32.1388     1.8075     2.0000 </r>
       <r>   -31.9807     0.0000     2.0000 </r>
       <r>   -31.8226     0.0000     2.0000 </r>
       <r>   -31.6645     0.0000     2.0000 </r>
       <r>   -31.5064     0.0000     2.0000 </r>
       <r>   -31.3483     0.0000     2.0000 </r>
       <r>   -31.1902     0.0000     2.0000 </r>
       <r>   -31.0321     0.0000     2.0000 </r>
       <r>   -30.8740     0.0000     2.0000 </r>
       <r>   -30.7159     0.0000     2.0000 </r>
       <r>   -30.5578     0.0000     2.0000 </r>
       <r>   -30.3997     0.8720     2.1379 </r>
       <r>   -30.2416    11.7542     3.9962 </r>
       <r>   -30.0835     0.0241     4.0000 </r>
       <r>   -29.9254     0.0000     4.0000 </r>
       <r>   -29.7673     0.0000     4.0000 </r>
       <r>   -29.6092     0.0000     4.0000 </r>
       <r>   -29.4511     0.0000     4.0000 </r>
       <r>   -29.2930     0.0000     4.0000 </r>
       <r>   -29.1349     0.0000     4.0000 </r>
       <r>   -28.9768     0.0000     4.0000 </r>
       <r>   -28.8187     0.0000     4.0000 </r>
       <r>   -28.6606     0.0000     4.0000 </r>
       <r>   -28.5025     0.0000     4.0000 </r>
       <r>   -28.3444     0.0000     4.0000 </r>
       <r>   -28.1863     0.0000     4.0000 </r>
       <r>   -28.0282     0.0000     4.0000 </r>
       <r>   -27.8701     0.0000     4.0000 </r>
       <r>   -27.7120     0.0000     4.0000 </r>
       <r>   -27.5539     0.0000     4.0000 </r>
       <r>   -27.3958     0.0000     4.0000 </r>
       <r>   -27.2377     0.0000     4.0000 </r>
       <r>   -27.0796     0.0000     4.0000 </r>
       <r>   -26.9215     0.0000     4.0000 </r>
       <r>   -26.7634     0.0000     4.0000 </r>
       <r>   -26.6053     0.0000     4.0000 </r>
       <r>   -26.4472     0.0000     4.0000 </r>
       <r>   -26.2891     0.0000     4.0000 </r>
       <r>   -26.1310     0.0000     4.0000 </r>
       <r>   -25.9729     0.0000     4.0000 </r>
       <r>   -25.8148     0.0000     4.0000 </r>
       <r>   -25.6567     0.0000     4.0000 </r>
       <r>   -25.4986     0.0000     4.0000 </r>
       <r>   -25.3405     0.0000     4.0000 </r>
       <r>   -25.1824     0.0000     4.0000 </r>
       <r>   -25.0243     0.0000     4.0000 </r>
       <r>   -24.8662     0.0000     4.0000 </r>
       <r>   -24.7081     0.0000     4.0000 </r>
       <r>   -24.5500     0.0000     4.0000 </r>
       <r>   -24.3919     0.0000     4.0000 </r>
       <r>   -24.2338     0.0000     4.0000 </r>
       <r>   -24.0757     0.0000     4.0000 </r>
       <r>   -23.9176     0.0000     4.0000 </r>
       <r>   -23.7595     0.0000     4.0000 </r>
       <r>   -23.6014     0.0000     4.0000 </r>
       <r>   -23.4433     0.0000     4.0000 </r>
       <r>   -23.2852     0.0000     4.0000 </r>
       <r>   -23.1271     0.0000     4.0000 </r>
       <r>   -22.9690     0.0000     4.0000 </r>
       <r>   -22.8109     0.0000     4.0000 </r>
       <r>   -22.6528     0.0000     4.0000 </r>
       <r>   -22.4947     0.0000     4.0000 </r>
       <r>   -22.3366     0.0000     4.0000 </r>
       <r>   -22.1785     0.0000     4.0000 </r>
       <r>   -22.0204     0.0000     4.0000 </r>
       <r>   -21.8623     0.0000     4.0000 </r>
       <r>   -21.7042     0.0000     4.0000 </r>
       <r>   -21.5461     0.0000     4.0000 </r>
       <r>   -21.3880     0.0000     4.0000 </r>
       <r>   -21.2299     0.0000     4.0000 </r>
       <r>   -21.0718     0.0000     4.0000 </r>
       <r>   -20.9137     0.0000     4.0000 </r>
       <r>   -20.7556     0.0000     4.0000 </r>
       <r>   -20.5976     0.0000     4.0000 </r>
       <r>   -20.4395     0.0000     4.0000 </r>
       <r>   -20.2814     0.0000     4.0000 </r>
       <r>   -20.1233     0.0000     4.0000 </r>
       <r>   -19.9652     0.0000     4.0000 </r>
       <r>   -19.8071     0.0000     4.0000 </r>
       <r>   -19.6490     0.0000     4.0000 </r>
       <r>   -19.4909     0.0000     4.0000 </r>
       <r>   -19.3328     0.0000     4.0000 </r>
       <r>   -19.1747     0.0000     4.0000 </r>
       <r>   -19.0166     0.0000     4.0000 </r>
       <r>   -18.8585     0.0000     4.0000 </r>
       <r>   -18.7004     0.0000     4.0000 </r>
       <r>   -18.5423     0.0000     4.0000 </r>
       <r>   -18.3842     0.0000     4.0000 </r>
       <r>   -18.2261     0.0000     4.0000 </r>
       <r>   -18.0680     0.0000     4.0000 </r>
       <r>   -17.9099     0.0000     4.0000 </r>
       <r>   -17.7518     0.0000     4.0000 </r>
       <r>   -17.5937     0.0000     4.0000 </r>
       <r>   -17.4356     0.0000     4.0000 </r>
       <r>   -17.2775     0.0000     4.0000 </r>
       <r>   -17.1194     0.0000     4.0000 </r>
       <r>   -16.9613     0.0000     4.0000 </r>
       <r>   -16.8032     0.0000     4.0000 </r>
       <r>   -16.6451     0.0000     4.0000 </r>
       <r>   -16.4870     0.0000     4.0000 </r>
       <r>   -16.3289     0.0000     4.0000 </r>
       <r>   -16.1708     0.0000     4.0000 </r>
       <r>   -16.0127     0.0000     4.0000 </r>
       <r>   -15.8546     0.5211     4.0824 </r>
       <r>   -15.6965     3.9724     4.7104 </r>
       <r>   -15.5384     1.8314     5.0000 </r>
       <r>   -15.3803     0.0002     5.0000 </r>
       <r>   -15.2222     0.0000     5.0000 </r>
       <r>   -15.0641     0.0000     5.0000 </r>
       <r>   -14.9060     0.0408     5.0065 </r>
       <r>   -14.7479     4.7452     5.7567 </r>
       <r>   -14.5898     8.0399     7.0278 </r>
       <r>   -14.4317     7.4618     8.2075 </r>
       <r>   -14.2736    10.0780     9.8008 </r>
       <r>   -14.1155     9.2240    11.2591 </r>
       <r>   -13.9574     3.7333    11.8494 </r>
       <r>   -13.7993     7.8155    13.0850 </r>
       <r>   -13.6412     4.8324    13.8490 </r>
       <r>   -13.4831     6.9242    14.9437 </r>
       <r>   -13.3250     7.8460    16.1842 </r>
       <r>   -13.1669     9.4683    17.6811 </r>
       <r>   -13.0088     2.0127    17.9993 </r>
       <r>   -12.8507     0.0045    18.0000 </r>
       <r>   -12.6926     0.0000    18.0000 </r>
       <r>   -12.5345     0.0079    18.0012 </r>
       <r>   -12.3764     2.6619    18.4221 </r>
       <r>   -12.2183    15.2230    20.8288 </r>
       <r>   -12.0602    10.0956    22.4250 </r>
       <r>   -11.9021     7.7505    23.6503 </r>
       <r>   -11.7440     2.1425    23.9890 </r>
       <r>   -11.5859     0.0694    24.0000 </r>
       <r>   -11.4278     0.0000    24.0000 </r>
       <r>   -11.2697     0.0000    24.0000 </r>
       <r>   -11.1116     0.0000    24.0000 </r>
       <r>   -10.9535     0.0000    24.0000 </r>
       <r>   -10.7954     0.0000    24.0000 </r>
       <r>   -10.6373     0.0000    24.0000 </r>
       <r>   -10.4792     0.0000    24.0000 </r>
       <r>   -10.3211     0.0000    24.0000 </r>
       <r>   -10.1630     0.0000    24.0000 </r>
       <r>   -10.0049     0.0000    24.0000 </r>
       <r>    -9.8468     0.0000    24.0000 </r>
       <r>    -9.6887     0.0000    24.0000 </r>
       <r>    -9.5306     0.0000    24.0000 </r>
       <r>    -9.3725     0.0000    24.0000 </r>
       <r>    -9.2144     0.0000    24.0000 </r>
       <r>    -9.0563     0.0000    24.0000 </r>
       <r>    -8.8982     0.0000    24.0000 </r>
       <r>    -8.7401     0.0000    24.0000 </r>
       <r>    -8.5820     0.0000    24.0000 </r>
       <r>    -8.4239     0.0000    24.0000 </r>
       <r>    -8.2658     0.0000    24.0000 </r>
       <r>    -8.1077     0.0000    24.0000 </r>
       <r>    -7.9496     0.0000    24.0000 </r>
       <r>    -7.7915     0.0000    24.0000 </r>
       <r>    -7.6334     0.0000    24.0000 </r>
       <r>    -7.4753     0.0000    24.0000 </r>
       <r>    -7.3172     0.0000    24.0000 </r>
       <r>    -7.1591     0.0000    24.0000 </r>
       <r>    -7.0010     0.0000    24.0000 </r>
       <r>    -6.8429     0.0000    24.0000 </r>
       <r>    -6.6848     0.0000    24.0000 </r>
       <r>    -6.5267     0.0000    24.0000 </r>
       <r>    -6.3686     0.0000    24.0000 </r>
       <r>    -6.2105     0.0000    24.0000 </r>
       <r>    -6.0524     0.0000    24.0000 </r>
       <r>    -5.8943     0.0000    24.0000 </r>
       <r>    -5.7362     0.0000    24.0000 </r>
       <r>    -5.5781     0.0000    24.0000 </r>
       <r>    -5.4200     0.0000    24.0000 </r>
       <r>    -5.2619     0.0000    24.0000 </r>
       <r>    -5.1038     0.0000    24.0000 </r>
       <r>    -4.9457     0.0000    24.0000 </r>
       <r>    -4.7876     0.0000    24.0000 </r>
       <r>    -4.6295     0.0000    24.0000 </r>
       <r>    -4.4714     0.0000    24.0000 </r>
       <r>    -4.3133     0.0000    24.0000 </r>
       <r>    -4.1552     0.0000    24.0000 </r>
       <r>    -3.9971     0.0000    24.0000 </r>
       <r>    -3.8390     0.0007    24.0001 </r>
       <r>    -3.6809     1.6303    24.2579 </r>
       <r>    -3.5228     0.8991    24.4000 </r>
       <r>    -3.3647     0.0000    24.4000 </r>
       <r>    -3.2066     0.0000    24.4000 </r>
       <r>    -3.0485     0.0000    24.4000 </r>
       <r>    -2.8904     0.0000    24.4000 </r>
       <r>    -2.7323     1.2208    24.5930 </r>
       <r>    -2.5742     3.4123    25.1325 </r>
       <r>    -2.4161     1.7373    25.4072 </r>
       <r>    -2.2580     6.2081    26.3886 </r>
       <r>    -2.0999     4.4592    27.0936 </r>
       <r>    -1.9418     3.7601    27.6881 </r>
       <r>    -1.7837     9.4712    29.1855 </r>
       <r>    -1.6256     6.3989    30.1972 </r>
       <r>    -1.4675     6.1032    31.1621 </r>
       <r>    -1.3094    11.6368    33.0018 </r>
       <r>    -1.1513    16.3154    35.5813 </r>
       <r>    -0.9932    25.7136    39.6466 </r>
       <r>    -0.8351    13.6558    41.8056 </r>
       <r>    -0.6770     8.7914    43.1955 </r>
       <r>    -0.5189     8.8437    44.5937 </r>
       <r>    -0.3608     6.8752    45.6807 </r>
       <r>    -0.2027     6.9649    46.7818 </r>
       <r>    -0.0446     7.0784    47.9009 </r>
       <r>     0.1135     2.4155    48.2828 </r>
       <r>     0.2716     2.9783    48.7537 </r>
       <r>     0.4297     4.5244    49.4690 </r>
       <r>     0.5878     4.6628    50.2061 </r>
       <r>     0.7459     3.4190    50.7467 </r>
       <r>     0.9040     4.1818    51.4078 </r>
       <r>     1.0621     5.5197    52.2805 </r>
       <r>     1.2202     7.5239    53.4700 </r>
       <r>     1.3783     9.7489    55.0113 </r>
       <r>     1.5364    12.5344    56.9930 </r>
       <r>     1.6945     5.7851    57.9076 </r>
       <r>     1.8526     9.7846    59.4545 </r>
       <r>     2.0107    10.6049    61.1312 </r>
       <r>     2.1688    11.6194    62.9682 </r>
       <r>     2.3269     6.4682    63.9908 </r>
       <r>     2.4850     3.2060    64.4977 </r>
       <r>     2.6431     4.4276    65.1977 </r>
       <r>     2.8012     3.4307    65.7401 </r>
       <r>     2.9593     2.6553    66.1599 </r>
       <r>     3.1174     3.9113    66.7783 </r>
       <r>     3.2755     1.5372    67.0213 </r>
       <r>     3.4336     4.1899    67.6837 </r>
       <r>     3.5917     1.4618    67.9148 </r>
       <r>     3.7498     1.0402    68.0793 </r>
       <r>     3.9079     0.3745    68.1385 </r>
       <r>     4.0660     2.4076    68.5191 </r>
       <r>     4.2241     3.3207    69.0441 </r>
       <r>     4.3822     2.1032    69.3766 </r>
       <r>     4.5403     2.9841    69.8484 </r>
       <r>     4.6984     0.9576    69.9998 </r>
       <r>     4.8565     0.7678    70.1212 </r>
       <r>     5.0146     0.7947    70.2468 </r>
       <r>     5.1727     1.1796    70.4333 </r>
       <r>     5.3308     0.4862    70.5102 </r>
       <r>     5.4889     2.2857    70.8716 </r>
       <r>     5.6470     0.4930    70.9495 </r>
       <r>     5.8051     0.1405    70.9717 </r>
       <r>     5.9632     1.6778    71.2370 </r>
       <r>     6.1213     0.8972    71.3788 </r>
       <r>     6.2794     2.3878    71.7563 </r>
       <r>     6.4375     2.2630    72.1141 </r>
       <r>     6.5956     2.6264    72.5294 </r>
       <r>     6.7537     2.4332    72.9140 </r>
       <r>     6.9118     2.4449    73.3006 </r>
       <r>     7.0699     2.8006    73.7434 </r>
       <r>     7.2280     1.9603    74.0533 </r>
       <r>     7.3861     2.8781    74.5083 </r>
       <r>     7.5442     5.1076    75.3158 </r>
       <r>     7.7023     1.2939    75.5204 </r>
       <r>     7.8604     2.5647    75.9258 </r>
       <r>     8.0185     1.5376    76.1689 </r>
       <r>     8.1766     3.3057    76.6916 </r>
       <r>     8.3347     3.8485    77.3000 </r>
       <r>     8.4928     4.6154    78.0297 </r>
       <r>     8.6509     2.7566    78.4655 </r>
       <r>     8.8090     3.4275    79.0074 </r>
       <r>     8.9671     5.3112    79.8471 </r>
       <r>     9.1252     8.6501    81.2147 </r>
       <r>     9.2833     2.7945    81.6565 </r>
       <r>     9.4414     3.6495    82.2335 </r>
       <r>     9.5995     6.1883    83.2118 </r>
       <r>     9.7576     5.2258    84.0380 </r>
       <r>     9.9157     6.0471    84.9941 </r>
       <r>    10.0738     5.8354    85.9167 </r>
       <r>    10.2319     3.4725    86.4657 </r>
       <r>    10.3900     4.1563    87.1228 </r>
       <r>    10.5481     1.7927    87.4062 </r>
       <r>    10.7062     2.7342    87.8385 </r>
       <r>    10.8643     1.0207    87.9998 </r>
       <r>    11.0224     0.0011    88.0000 </r>
       <r>    11.1805     0.0000    88.0000 </r>
       <r>    11.3386     0.0000    88.0000 </r>
       <r>    11.4967     0.0000    88.0000 </r>
       <r>    11.6548     0.0000    88.0000 </r>
       <r>    11.8129     0.0000    88.0000 </r>
       <r>    11.9709     0.0000    88.0000 </r>
       <r>    12.1290     0.0000    88.0000 </r>
       <r>    12.2871     0.0000    88.0000 </r>
       <r>    12.4452     0.0000    88.0000 </r>
       <r>    12.6033     0.0000    88.0000 </r>
       <r>    12.7614     0.0000    88.0000 </r>
       <r>    12.9195     0.0000    88.0000 </r>
      </set>
     </set>
    </array>
   </total>
  </dos>
 </calculation>
 <structure name="finalpos" >
  <crystal>
   <varray name="basis" >
    <v>       4.00000000       0.00000000       0.00000000 </v>
    <v>       0.00000000       4.00000000       0.00000000 </v>
    <v>       0.00000000       0.00000000      16.00000000 </v>
   </varray>
   <i name="volume">    256.00000000 </i>
   <varray name="rec_basis" >
    <v>       0.25000000       0.00000000       0.00000000 </v>
    <v>       0.00000000       0.25000000       0.00000000 </v>
    <v>       0.00000000       0.00000000       0.06250000 </v>
   </varray>
  </crystal>
  <varray name="positions" >
   <v>       0.00000000       0.00000000       0.87500000 </v>
   <v>       0.00000000       0.00000000       0.12500000 </v>
   <v>       0.00000000       0.00000000       0.37500000 </v>
   <v>       0.00000000       0.00000000       0.62500000 </v>
   <v>       0.50000000       0.50000000       0.00000000 </v>
   <v>       0.50000000       0.50000000       0.25000000 </v>
   <v>       0.50000000       0.50000000       0.50000000 </v>
   <v>       0.50000000       0.50000000       0.75000000 </v>
   <v>       0.50000000       0.50000000       0.37500000 </v>
   <v>       0.50000000       0.50000000       0.62500000 </v>
   <v>       0.00000000       0.50000000       0.25000000 </v>
   <v>       0.00000000       0.50000000       0.50000000 </v>
   <v>       0.00000000       0.50000000       0.75000000 </v>
   <v>       0.50000000       0.00000000       0.00000000 </v>
   <v>       0.50000000       0.00000000       0.25000000 </v>
   <v>       0.50000000       0.00000000       0.75000000 </v>
  </varray>
 </structure>
</modeling>
