<?xml version="1.0" encoding="ISO-8859-1"?>
<modeling>
 <generator>
  <i name="program" type="string">vasp </i>
  <i name="version" type="string">5.3.5  </i>
  <i name="subversion" type="string">31Mar14 (build Jun 20 2014 13:15:13) complex                          parallel </i>
  <i name="platform" type="string">LinuxIFC </i>
  <i name="date" type="string">2025 11 27 </i>
  <i name="time" type="string">04:36:07 </i>
 </generator>
 <incar>
  <i type="string" name="PREC">accurate</i>
  <i type="int" name="IALGO">    68</i>
  <i type="logical" name="ADDGRID"> T  </i>
  <i type="int" name="NELM">   200</i>
  <i type="int" name="NELMIN">     4</i>
  <i type="int" name="IBRION">     2</i>
  <i name="EDIFF">      0.00000100</i>
  <i name="EDIFFG">     -0.02000000</i>
  <i type="int" name="NSW">    30</i>
  <i type="int" name="ISIF">     3</i>
  <i name="ENCUT">    500.00000000</i>
  <i type="logical" name="LREAL"> F  </i>
  <i type="int" name="ISMEAR">     1</i>
  <i name="SIGMA">      0.30000000</i>
  <i type="logical" name="LWAVE"> F  </i>
  <i type="logical" name="LCHARG"> F  </i>
  <i type="int" name="NELM">   200</i>
 </incar>
 <kpoints>
  <generation param="Auto">
   <i name="subdivisionlength">     70.00000000 </i>
   <v type="int" name="divisions">      27       15       13 </v>
   <v name="usershift">      0.00000000       0.00000000       0.00000000 </v>
   <v name="genvec1">      0.03703704       0.00000000       0.00000000 </v>
   <v name="genvec2">      0.00000000       0.06666667       0.00000000 </v>
   <v name="genvec3">      0.00000000       0.00000000       0.07692308 </v>
   <v name="shift">      0.00000000       0.00000000       0.00000000 </v>
  </generation>
  <varray name="kpointlist" >
   <v>       0.00000000       0.00000000       0.00000000 </v>
   <v>       0.03703704       0.00000000       0.00000000 </v>
   <v>       0.07407407       0.00000000       0.00000000 </v>
   <v>       0.11111111       0.00000000       0.00000000 </v>
   <v>       0.14814815       0.00000000       0.00000000 </v>
   <v>       0.18518519       0.00000000       0.00000000 </v>
   <v>       0.22222222       0.00000000       0.00000000 </v>
   <v>       0.25925926       0.00000000       0.00000000 </v>
   <v>       0.29629630       0.00000000       0.00000000 </v>
   <v>       0.33333333       0.00000000       0.00000000 </v>
   <v>       0.37037037       0.00000000       0.00000000 </v>
   <v>       0.40740741       0.00000000       0.00000000 </v>
   <v>       0.44444444       0.00000000       0.00000000 </v>
   <v>       0.48148148       0.00000000       0.00000000 </v>
   <v>       0.00000000       0.06666667       0.00000000 </v>
   <v>       0.03703704       0.06666667       0.00000000 </v>
   <v>       0.07407407       0.06666667       0.00000000 </v>
   <v>       0.11111111       0.06666667       0.00000000 </v>
   <v>       0.14814815       0.06666667       0.00000000 </v>
   <v>       0.18518519       0.06666667       0.00000000 </v>
   <v>       0.22222222       0.06666667       0.00000000 </v>
   <v>       0.25925926       0.06666667       0.00000000 </v>
   <v>       0.29629630       0.06666667       0.00000000 </v>
   <v>       0.33333333       0.06666667       0.00000000 </v>
   <v>       0.37037037       0.06666667       0.00000000 </v>
   <v>       0.40740741       0.06666667       0.00000000 </v>
   <v>       0.44444444       0.06666667       0.00000000 </v>
   <v>       0.48148148       0.06666667       0.00000000 </v>
   <v>      -0.48148148       0.06666667       0.00000000 </v>
   <v>      -0.44444444       0.06666667       0.00000000 </v>
   <v>      -0.40740741       0.06666667       0.00000000 </v>
   <v>      -0.37037037       0.06666667       0.00000000 </v>
   <v>      -0.33333333       0.06666667       0.00000000 </v>
   <v>      -0.29629630       0.06666667       0.00000000 </v>
   <v>      -0.25925926       0.06666667       0.00000000 </v>
   <v>      -0.22222222       0.06666667       0.00000000 </v>
   <v>      -0.18518519       0.06666667       0.00000000 </v>
   <v>      -0.14814815       0.06666667       0.00000000 </v>
   <v>      -0.11111111       0.06666667       0.00000000 </v>
   <v>      -0.07407407       0.06666667       0.00000000 </v>
   <v>      -0.03703704       0.06666667       0.00000000 </v>
   <v>       0.00000000       0.13333333       0.00000000 </v>
   <v>       0.03703704       0.13333333       0.00000000 </v>
   <v>       0.07407407       0.13333333       0.00000000 </v>
   <v>       0.11111111       0.13333333       0.00000000 </v>
   <v>       0.14814815       0.13333333       0.00000000 </v>
   <v>       0.18518519       0.13333333       0.00000000 </v>
   <v>       0.22222222       0.13333333       0.00000000 </v>
   <v>       0.25925926       0.13333333       0.00000000 </v>
   <v>       0.29629630       0.13333333       0.00000000 </v>
   <v>       0.33333333       0.13333333       0.00000000 </v>
   <v>       0.37037037       0.13333333       0.00000000 </v>
   <v>       0.40740741       0.13333333       0.00000000 </v>
   <v>       0.44444444       0.13333333       0.00000000 </v>
   <v>       0.48148148       0.13333333       0.00000000 </v>
   <v>      -0.48148148       0.13333333       0.00000000 </v>
   <v>      -0.44444444       0.13333333       0.00000000 </v>
   <v>      -0.40740741       0.13333333       0.00000000 </v>
   <v>      -0.37037037       0.13333333       0.00000000 </v>
   <v>      -0.33333333       0.13333333       0.00000000 </v>
   <v>      -0.29629630       0.13333333       0.00000000 </v>
   <v>      -0.25925926       0.13333333       0.00000000 </v>
   <v>      -0.22222222       0.13333333       0.00000000 </v>
   <v>      -0.18518519       0.13333333       0.00000000 </v>
   <v>      -0.14814815       0.13333333       0.00000000 </v>
   <v>      -0.11111111       0.13333333       0.00000000 </v>
   <v>      -0.07407407       0.13333333       0.00000000 </v>
   <v>      -0.03703704       0.13333333       0.00000000 </v>
   <v>       0.00000000       0.20000000       0.00000000 </v>
   <v>       0.03703704       0.20000000       0.00000000 </v>
   <v>       0.07407407       0.20000000       0.00000000 </v>
   <v>       0.11111111       0.20000000       0.00000000 </v>
   <v>       0.14814815       0.20000000       0.00000000 </v>
   <v>       0.18518519       0.20000000       0.00000000 </v>
   <v>       0.22222222       0.20000000       0.00000000 </v>
   <v>       0.25925926       0.20000000       0.00000000 </v>
   <v>       0.29629630       0.20000000       0.00000000 </v>
   <v>       0.33333333       0.20000000       0.00000000 </v>
   <v>       0.37037037       0.20000000       0.00000000 </v>
   <v>       0.40740741       0.20000000       0.00000000 </v>
   <v>       0.44444444       0.20000000       0.00000000 </v>
   <v>       0.48148148       0.20000000       0.00000000 </v>
   <v>      -0.48148148       0.20000000       0.00000000 </v>
   <v>      -0.44444444       0.20000000       0.00000000 </v>
   <v>      -0.40740741       0.20000000       0.00000000 </v>
   <v>      -0.37037037       0.20000000       0.00000000 </v>
   <v>      -0.33333333       0.20000000       0.00000000 </v>
   <v>      -0.29629630       0.20000000       0.00000000 </v>
   <v>      -0.25925926       0.20000000       0.00000000 </v>
   <v>      -0.22222222       0.20000000       0.00000000 </v>
   <v>      -0.18518519       0.20000000       0.00000000 </v>
   <v>      -0.14814815       0.20000000       0.00000000 </v>
   <v>      -0.11111111       0.20000000       0.00000000 </v>
   <v>      -0.07407407       0.20000000       0.00000000 </v>
   <v>      -0.03703704       0.20000000       0.00000000 </v>
   <v>       0.00000000       0.26666667       0.00000000 </v>
   <v>       0.03703704       0.26666667       0.00000000 </v>
   <v>       0.07407407       0.26666667       0.00000000 </v>
   <v>       0.11111111       0.26666667       0.00000000 </v>
   <v>       0.14814815       0.26666667       0.00000000 </v>
   <v>       0.18518519       0.26666667       0.00000000 </v>
   <v>       0.22222222       0.26666667       0.00000000 </v>
   <v>       0.25925926       0.26666667       0.00000000 </v>
   <v>       0.29629630       0.26666667       0.00000000 </v>
   <v>       0.33333333       0.26666667       0.00000000 </v>
   <v>       0.37037037       0.26666667       0.00000000 </v>
   <v>       0.40740741       0.26666667       0.00000000 </v>
   <v>       0.44444444       0.26666667       0.00000000 </v>
   <v>       0.48148148       0.26666667       0.00000000 </v>
   <v>      -0.48148148       0.26666667       0.00000000 </v>
   <v>      -0.44444444       0.26666667       0.00000000 </v>
   <v>      -0.40740741       0.26666667       0.00000000 </v>
   <v>      -0.37037037       0.26666667       0.00000000 </v>
   <v>      -0.33333333       0.26666667       0.00000000 </v>
   <v>      -0.29629630       0.26666667       0.00000000 </v>
   <v>      -0.25925926       0.26666667       0.00000000 </v>
   <v>      -0.22222222       0.26666667       0.00000000 </v>
   <v>      -0.18518519       0.26666667       0.00000000 </v>
   <v>      -0.14814815       0.26666667       0.00000000 </v>
   <v>      -0.11111111       0.26666667       0.00000000 </v>
   <v>      -0.07407407       0.26666667       0.00000000 </v>
   <v>      -0.03703704       0.26666667       0.00000000 </v>
   <v>       0.00000000       0.33333333       0.00000000 </v>
   <v>       0.03703704       0.33333333       0.00000000 </v>
   <v>       0.07407407       0.33333333       0.00000000 </v>
   <v>       0.11111111       0.33333333       0.00000000 </v>
   <v>       0.14814815       0.33333333       0.00000000 </v>
   <v>       0.18518519       0.33333333       0.00000000 </v>
   <v>       0.22222222       0.33333333       0.00000000 </v>
   <v>       0.25925926       0.33333333       0.00000000 </v>
   <v>       0.29629630       0.33333333       0.00000000 </v>
   <v>       0.33333333       0.33333333       0.00000000 </v>
   <v>       0.37037037       0.33333333       0.00000000 </v>
   <v>       0.40740741       0.33333333       0.00000000 </v>
   <v>       0.44444444       0.33333333       0.00000000 </v>
   <v>       0.48148148       0.33333333       0.00000000 </v>
   <v>      -0.48148148       0.33333333       0.00000000 </v>
   <v>      -0.44444444       0.33333333       0.00000000 </v>
   <v>      -0.40740741       0.33333333       0.00000000 </v>
   <v>      -0.37037037       0.33333333       0.00000000 </v>
   <v>      -0.33333333       0.33333333       0.00000000 </v>
   <v>      -0.29629630       0.33333333       0.00000000 </v>
   <v>      -0.25925926       0.33333333       0.00000000 </v>
   <v>      -0.22222222       0.33333333       0.00000000 </v>
   <v>      -0.18518519       0.33333333       0.00000000 </v>
   <v>      -0.14814815       0.33333333       0.00000000 </v>
   <v>      -0.11111111       0.33333333       0.00000000 </v>
   <v>      -0.07407407       0.33333333       0.00000000 </v>
   <v>      -0.03703704       0.33333333       0.00000000 </v>
   <v>       0.00000000       0.40000000       0.00000000 </v>
   <v>       0.03703704       0.40000000       0.00000000 </v>
   <v>       0.07407407       0.40000000       0.00000000 </v>
   <v>       0.11111111       0.40000000       0.00000000 </v>
   <v>       0.14814815       0.40000000       0.00000000 </v>
   <v>       0.18518519       0.40000000       0.00000000 </v>
   <v>       0.22222222       0.40000000       0.00000000 </v>
   <v>       0.25925926       0.40000000       0.00000000 </v>
   <v>       0.29629630       0.40000000       0.00000000 </v>
   <v>       0.33333333       0.40000000       0.00000000 </v>
   <v>       0.37037037       0.40000000       0.00000000 </v>
   <v>       0.40740741       0.40000000       0.00000000 </v>
   <v>       0.44444444       0.40000000       0.00000000 </v>
   <v>       0.48148148       0.40000000       0.00000000 </v>
   <v>      -0.48148148       0.40000000       0.00000000 </v>
   <v>      -0.44444444       0.40000000       0.00000000 </v>
   <v>      -0.40740741       0.40000000       0.00000000 </v>
   <v>      -0.37037037       0.40000000       0.00000000 </v>
   <v>      -0.33333333       0.40000000       0.00000000 </v>
   <v>      -0.29629630       0.40000000       0.00000000 </v>
   <v>      -0.25925926       0.40000000       0.00000000 </v>
   <v>      -0.22222222       0.40000000       0.00000000 </v>
   <v>      -0.18518519       0.40000000       0.00000000 </v>
   <v>      -0.14814815       0.40000000       0.00000000 </v>
   <v>      -0.11111111       0.40000000       0.00000000 </v>
   <v>      -0.07407407       0.40000000       0.00000000 </v>
   <v>      -0.03703704       0.40000000       0.00000000 </v>
   <v>       0.00000000       0.46666667       0.00000000 </v>
   <v>       0.03703704       0.46666667       0.00000000 </v>
   <v>       0.07407407       0.46666667       0.00000000 </v>
   <v>       0.11111111       0.46666667       0.00000000 </v>
   <v>       0.14814815       0.46666667       0.00000000 </v>
   <v>       0.18518519       0.46666667       0.00000000 </v>
   <v>       0.22222222       0.46666667       0.00000000 </v>
   <v>       0.25925926       0.46666667       0.00000000 </v>
   <v>       0.29629630       0.46666667       0.00000000 </v>
   <v>       0.33333333       0.46666667       0.00000000 </v>
   <v>       0.37037037       0.46666667       0.00000000 </v>
   <v>       0.40740741       0.46666667       0.00000000 </v>
   <v>       0.44444444       0.46666667       0.00000000 </v>
   <v>       0.48148148       0.46666667       0.00000000 </v>
   <v>      -0.48148148       0.46666667       0.00000000 </v>
   <v>      -0.44444444       0.46666667       0.00000000 </v>
   <v>      -0.40740741       0.46666667       0.00000000 </v>
   <v>      -0.37037037       0.46666667       0.00000000 </v>
   <v>      -0.33333333       0.46666667       0.00000000 </v>
   <v>      -0.29629630       0.46666667       0.00000000 </v>
   <v>      -0.25925926       0.46666667       0.00000000 </v>
   <v>      -0.22222222       0.46666667       0.00000000 </v>
   <v>      -0.18518519       0.46666667       0.00000000 </v>
   <v>      -0.14814815       0.46666667       0.00000000 </v>
   <v>      -0.11111111       0.46666667       0.00000000 </v>
   <v>      -0.07407407       0.46666667       0.00000000 </v>
   <v>      -0.03703704       0.46666667       0.00000000 </v>
   <v>       0.00000000       0.00000000       0.07692308 </v>
   <v>       0.03703704       0.00000000       0.07692308 </v>
   <v>       0.07407407       0.00000000       0.07692308 </v>
   <v>       0.11111111       0.00000000       0.07692308 </v>
   <v>       0.14814815       0.00000000       0.07692308 </v>
   <v>       0.18518519       0.00000000       0.07692308 </v>
   <v>       0.22222222       0.00000000       0.07692308 </v>
   <v>       0.25925926       0.00000000       0.07692308 </v>
   <v>       0.29629630       0.00000000       0.07692308 </v>
   <v>       0.33333333       0.00000000       0.07692308 </v>
   <v>       0.37037037       0.00000000       0.07692308 </v>
   <v>       0.40740741       0.00000000       0.07692308 </v>
   <v>       0.44444444       0.00000000       0.07692308 </v>
   <v>       0.48148148       0.00000000       0.07692308 </v>
   <v>      -0.48148148       0.00000000       0.07692308 </v>
   <v>      -0.44444444       0.00000000       0.07692308 </v>
   <v>      -0.40740741       0.00000000       0.07692308 </v>
   <v>      -0.37037037       0.00000000       0.07692308 </v>
   <v>      -0.33333333       0.00000000       0.07692308 </v>
   <v>      -0.29629630       0.00000000       0.07692308 </v>
   <v>      -0.25925926       0.00000000       0.07692308 </v>
   <v>      -0.22222222       0.00000000       0.07692308 </v>
   <v>      -0.18518519       0.00000000       0.07692308 </v>
   <v>      -0.14814815       0.00000000       0.07692308 </v>
   <v>      -0.11111111       0.00000000       0.07692308 </v>
   <v>      -0.07407407       0.00000000       0.07692308 </v>
   <v>      -0.03703704       0.00000000       0.07692308 </v>
   <v>       0.00000000       0.06666667       0.07692308 </v>
   <v>       0.03703704       0.06666667       0.07692308 </v>
   <v>       0.07407407       0.06666667       0.07692308 </v>
   <v>       0.11111111       0.06666667       0.07692308 </v>
   <v>       0.14814815       0.06666667       0.07692308 </v>
   <v>       0.18518519       0.06666667       0.07692308 </v>
   <v>       0.22222222       0.06666667       0.07692308 </v>
   <v>       0.25925926       0.06666667       0.07692308 </v>
   <v>       0.29629630       0.06666667       0.07692308 </v>
   <v>       0.33333333       0.06666667       0.07692308 </v>
   <v>       0.37037037       0.06666667       0.07692308 </v>
   <v>       0.40740741       0.06666667       0.07692308 </v>
   <v>       0.44444444       0.06666667       0.07692308 </v>
   <v>       0.48148148       0.06666667       0.07692308 </v>
   <v>      -0.48148148       0.06666667       0.07692308 </v>
   <v>      -0.44444444       0.06666667       0.07692308 </v>
   <v>      -0.40740741       0.06666667       0.07692308 </v>
   <v>      -0.37037037       0.06666667       0.07692308 </v>
   <v>      -0.33333333       0.06666667       0.07692308 </v>
   <v>      -0.29629630       0.06666667       0.07692308 </v>
   <v>      -0.25925926       0.06666667       0.07692308 </v>
   <v>      -0.22222222       0.06666667       0.07692308 </v>
   <v>      -0.18518519       0.06666667       0.07692308 </v>
   <v>      -0.14814815       0.06666667       0.07692308 </v>
   <v>      -0.11111111       0.06666667       0.07692308 </v>
   <v>      -0.07407407       0.06666667       0.07692308 </v>
   <v>      -0.03703704       0.06666667       0.07692308 </v>
   <v>       0.00000000       0.13333333       0.07692308 </v>
   <v>       0.03703704       0.13333333       0.07692308 </v>
   <v>       0.07407407       0.13333333       0.07692308 </v>
   <v>       0.11111111       0.13333333       0.07692308 </v>
   <v>       0.14814815       0.13333333       0.07692308 </v>
   <v>       0.18518519       0.13333333       0.07692308 </v>
   <v>       0.22222222       0.13333333       0.07692308 </v>
   <v>       0.25925926       0.13333333       0.07692308 </v>
   <v>       0.29629630       0.13333333       0.07692308 </v>
   <v>       0.33333333       0.13333333       0.07692308 </v>
   <v>       0.37037037       0.13333333       0.07692308 </v>
   <v>       0.40740741       0.13333333       0.07692308 </v>
   <v>       0.44444444       0.13333333       0.07692308 </v>
   <v>       0.48148148       0.13333333       0.07692308 </v>
   <v>      -0.48148148       0.13333333       0.07692308 </v>
   <v>      -0.44444444       0.13333333       0.07692308 </v>
   <v>      -0.40740741       0.13333333       0.07692308 </v>
   <v>      -0.37037037       0.13333333       0.07692308 </v>
   <v>      -0.33333333       0.13333333       0.07692308 </v>
   <v>      -0.29629630       0.13333333       0.07692308 </v>
   <v>      -0.25925926       0.13333333       0.07692308 </v>
   <v>      -0.22222222       0.13333333       0.07692308 </v>
   <v>      -0.18518519       0.13333333       0.07692308 </v>
   <v>      -0.14814815       0.13333333       0.07692308 </v>
   <v>      -0.11111111       0.13333333       0.07692308 </v>
   <v>      -0.07407407       0.13333333       0.07692308 </v>
   <v>      -0.03703704       0.13333333       0.07692308 </v>
   <v>       0.00000000       0.20000000       0.07692308 </v>
   <v>       0.03703704       0.20000000       0.07692308 </v>
   <v>       0.07407407       0.20000000       0.07692308 </v>
   <v>       0.11111111       0.20000000       0.07692308 </v>
   <v>       0.14814815       0.20000000       0.07692308 </v>
   <v>       0.18518519       0.20000000       0.07692308 </v>
   <v>       0.22222222       0.20000000       0.07692308 </v>
   <v>       0.25925926       0.20000000       0.07692308 </v>
   <v>       0.29629630       0.20000000       0.07692308 </v>
   <v>       0.33333333       0.20000000       0.07692308 </v>
   <v>       0.37037037       0.20000000       0.07692308 </v>
   <v>       0.40740741       0.20000000       0.07692308 </v>
   <v>       0.44444444       0.20000000       0.07692308 </v>
   <v>       0.48148148       0.20000000       0.07692308 </v>
   <v>      -0.48148148       0.20000000       0.07692308 </v>
   <v>      -0.44444444       0.20000000       0.07692308 </v>
   <v>      -0.40740741       0.20000000       0.07692308 </v>
   <v>      -0.37037037       0.20000000       0.07692308 </v>
   <v>      -0.33333333       0.20000000       0.07692308 </v>
   <v>      -0.29629630       0.20000000       0.07692308 </v>
   <v>      -0.25925926       0.20000000       0.07692308 </v>
   <v>      -0.22222222       0.20000000       0.07692308 </v>
   <v>      -0.18518519       0.20000000       0.07692308 </v>
   <v>      -0.14814815       0.20000000       0.07692308 </v>
   <v>      -0.11111111       0.20000000       0.07692308 </v>
   <v>      -0.07407407       0.20000000       0.07692308 </v>
   <v>      -0.03703704       0.20000000       0.07692308 </v>
   <v>       0.00000000       0.26666667       0.07692308 </v>
   <v>       0.03703704       0.26666667       0.07692308 </v>
   <v>       0.07407407       0.26666667       0.07692308 </v>
   <v>       0.11111111       0.26666667       0.07692308 </v>
   <v>       0.14814815       0.26666667       0.07692308 </v>
   <v>       0.18518519       0.26666667       0.07692308 </v>
   <v>       0.22222222       0.26666667       0.07692308 </v>
   <v>       0.25925926       0.26666667       0.07692308 </v>
   <v>       0.29629630       0.26666667       0.07692308 </v>
   <v>       0.33333333       0.26666667       0.07692308 </v>
   <v>       0.37037037       0.26666667       0.07692308 </v>
   <v>       0.40740741       0.26666667       0.07692308 </v>
   <v>       0.44444444       0.26666667       0.07692308 </v>
   <v>       0.48148148       0.26666667       0.07692308 </v>
   <v>      -0.48148148       0.26666667       0.07692308 </v>
   <v>      -0.44444444       0.26666667       0.07692308 </v>
   <v>      -0.40740741       0.26666667       0.07692308 </v>
   <v>      -0.37037037       0.26666667       0.07692308 </v>
   <v>      -0.33333333       0.26666667       0.07692308 </v>
   <v>      -0.29629630       0.26666667       0.07692308 </v>
   <v>      -0.25925926       0.26666667       0.07692308 </v>
   <v>      -0.22222222       0.26666667       0.07692308 </v>
   <v>      -0.18518519       0.26666667       0.07692308 </v>
   <v>      -0.14814815       0.26666667       0.07692308 </v>
   <v>      -0.11111111       0.26666667       0.07692308 </v>
   <v>      -0.07407407       0.26666667       0.07692308 </v>
   <v>      -0.03703704       0.26666667       0.07692308 </v>
   <v>       0.00000000       0.33333333       0.07692308 </v>
   <v>       0.03703704       0.33333333       0.07692308 </v>
   <v>       0.07407407       0.33333333       0.07692308 </v>
   <v>       0.11111111       0.33333333       0.07692308 </v>
   <v>       0.14814815       0.33333333       0.07692308 </v>
   <v>       0.18518519       0.33333333       0.07692308 </v>
   <v>       0.22222222       0.33333333       0.07692308 </v>
   <v>       0.25925926       0.33333333       0.07692308 </v>
   <v>       0.29629630       0.33333333       0.07692308 </v>
   <v>       0.33333333       0.33333333       0.07692308 </v>
   <v>       0.37037037       0.33333333       0.07692308 </v>
   <v>       0.40740741       0.33333333       0.07692308 </v>
   <v>       0.44444444       0.33333333       0.07692308 </v>
   <v>       0.48148148       0.33333333       0.07692308 </v>
   <v>      -0.48148148       0.33333333       0.07692308 </v>
   <v>      -0.44444444       0.33333333       0.07692308 </v>
   <v>      -0.40740741       0.33333333       0.07692308 </v>
   <v>      -0.37037037       0.33333333       0.07692308 </v>
   <v>      -0.33333333       0.33333333       0.07692308 </v>
   <v>      -0.29629630       0.33333333       0.07692308 </v>
   <v>      -0.25925926       0.33333333       0.07692308 </v>
   <v>      -0.22222222       0.33333333       0.07692308 </v>
   <v>      -0.18518519       0.33333333       0.07692308 </v>
   <v>      -0.14814815       0.33333333       0.07692308 </v>
   <v>      -0.11111111       0.33333333       0.07692308 </v>
   <v>      -0.07407407       0.33333333       0.07692308 </v>
   <v>      -0.03703704       0.33333333       0.07692308 </v>
   <v>       0.00000000       0.40000000       0.07692308 </v>
   <v>       0.03703704       0.40000000       0.07692308 </v>
   <v>       0.07407407       0.40000000       0.07692308 </v>
   <v>       0.11111111       0.40000000       0.07692308 </v>
   <v>       0.14814815       0.40000000       0.07692308 </v>
   <v>       0.18518519       0.40000000       0.07692308 </v>
   <v>       0.22222222       0.40000000       0.07692308 </v>
   <v>       0.25925926       0.40000000       0.07692308 </v>
   <v>       0.29629630       0.40000000       0.07692308 </v>
   <v>       0.33333333       0.40000000       0.07692308 </v>
   <v>       0.37037037       0.40000000       0.07692308 </v>
   <v>       0.40740741       0.40000000       0.07692308 </v>
   <v>       0.44444444       0.40000000       0.07692308 </v>
   <v>       0.48148148       0.40000000       0.07692308 </v>
   <v>      -0.48148148       0.40000000       0.07692308 </v>
   <v>      -0.44444444       0.40000000       0.07692308 </v>
   <v>      -0.40740741       0.40000000       0.07692308 </v>
   <v>      -0.37037037       0.40000000       0.07692308 </v>
   <v>      -0.33333333       0.40000000       0.07692308 </v>
   <v>      -0.29629630       0.40000000       0.07692308 </v>
   <v>      -0.25925926       0.40000000       0.07692308 </v>
   <v>      -0.22222222       0.40000000       0.07692308 </v>
   <v>      -0.18518519       0.40000000       0.07692308 </v>
   <v>      -0.14814815       0.40000000       0.07692308 </v>
   <v>      -0.11111111       0.40000000       0.07692308 </v>
   <v>      -0.07407407       0.40000000       0.07692308 </v>
   <v>      -0.03703704       0.40000000       0.07692308 </v>
   <v>       0.00000000       0.46666667       0.07692308 </v>
   <v>       0.03703704       0.46666667       0.07692308 </v>
   <v>       0.07407407       0.46666667       0.07692308 </v>
   <v>       0.11111111       0.46666667       0.07692308 </v>
   <v>       0.14814815       0.46666667       0.07692308 </v>
   <v>       0.18518519       0.46666667       0.07692308 </v>
   <v>       0.22222222       0.46666667       0.07692308 </v>
   <v>       0.25925926       0.46666667       0.07692308 </v>
   <v>       0.29629630       0.46666667       0.07692308 </v>
   <v>       0.33333333       0.46666667       0.07692308 </v>
   <v>       0.37037037       0.46666667       0.07692308 </v>
   <v>       0.40740741       0.46666667       0.07692308 </v>
   <v>       0.44444444       0.46666667       0.07692308 </v>
   <v>       0.48148148       0.46666667       0.07692308 </v>
   <v>      -0.48148148       0.46666667       0.07692308 </v>
   <v>      -0.44444444       0.46666667       0.07692308 </v>
   <v>      -0.40740741       0.46666667       0.07692308 </v>
   <v>      -0.37037037       0.46666667       0.07692308 </v>
   <v>      -0.33333333       0.46666667       0.07692308 </v>
   <v>      -0.29629630       0.46666667       0.07692308 </v>
   <v>      -0.25925926       0.46666667       0.07692308 </v>
   <v>      -0.22222222       0.46666667       0.07692308 </v>
   <v>      -0.18518519       0.46666667       0.07692308 </v>
   <v>      -0.14814815       0.46666667       0.07692308 </v>
   <v>      -0.11111111       0.46666667       0.07692308 </v>
   <v>      -0.07407407       0.46666667       0.07692308 </v>
   <v>      -0.03703704       0.46666667       0.07692308 </v>
   <v>       0.00000000      -0.46666667       0.07692308 </v>
   <v>       0.03703704      -0.46666667       0.07692308 </v>
   <v>       0.07407407      -0.46666667       0.07692308 </v>
   <v>       0.11111111      -0.46666667       0.07692308 </v>
   <v>       0.14814815      -0.46666667       0.07692308 </v>
   <v>       0.18518519      -0.46666667       0.07692308 </v>
   <v>       0.22222222      -0.46666667       0.07692308 </v>
   <v>       0.25925926      -0.46666667       0.07692308 </v>
   <v>       0.29629630      -0.46666667       0.07692308 </v>
   <v>       0.33333333      -0.46666667       0.07692308 </v>
   <v>       0.37037037      -0.46666667       0.07692308 </v>
   <v>       0.40740741      -0.46666667       0.07692308 </v>
   <v>       0.44444444      -0.46666667       0.07692308 </v>
   <v>       0.48148148      -0.46666667       0.07692308 </v>
   <v>      -0.48148148      -0.46666667       0.07692308 </v>
   <v>      -0.44444444      -0.46666667       0.07692308 </v>
   <v>      -0.40740741      -0.46666667       0.07692308 </v>
   <v>      -0.37037037      -0.46666667       0.07692308 </v>
   <v>      -0.33333333      -0.46666667       0.07692308 </v>
   <v>      -0.29629630      -0.46666667       0.07692308 </v>
   <v>      -0.25925926      -0.46666667       0.07692308 </v>
   <v>      -0.22222222      -0.46666667       0.07692308 </v>
   <v>      -0.18518519      -0.46666667       0.07692308 </v>
   <v>      -0.14814815      -0.46666667       0.07692308 </v>
   <v>      -0.11111111      -0.46666667       0.07692308 </v>
   <v>      -0.07407407      -0.46666667       0.07692308 </v>
   <v>      -0.03703704      -0.46666667       0.07692308 </v>
   <v>       0.00000000      -0.40000000       0.07692308 </v>
   <v>       0.03703704      -0.40000000       0.07692308 </v>
   <v>       0.07407407      -0.40000000       0.07692308 </v>
   <v>       0.11111111      -0.40000000       0.07692308 </v>
   <v>       0.14814815      -0.40000000       0.07692308 </v>
   <v>       0.18518519      -0.40000000       0.07692308 </v>
   <v>       0.22222222      -0.40000000       0.07692308 </v>
   <v>       0.25925926      -0.40000000       0.07692308 </v>
   <v>       0.29629630      -0.40000000       0.07692308 </v>
   <v>       0.33333333      -0.40000000       0.07692308 </v>
   <v>       0.37037037      -0.40000000       0.07692308 </v>
   <v>       0.40740741      -0.40000000       0.07692308 </v>
   <v>       0.44444444      -0.40000000       0.07692308 </v>
   <v>       0.48148148      -0.40000000       0.07692308 </v>
   <v>      -0.48148148      -0.40000000       0.07692308 </v>
   <v>      -0.44444444      -0.40000000       0.07692308 </v>
   <v>      -0.40740741      -0.40000000       0.07692308 </v>
   <v>      -0.37037037      -0.40000000       0.07692308 </v>
   <v>      -0.33333333      -0.40000000       0.07692308 </v>
   <v>      -0.29629630      -0.40000000       0.07692308 </v>
   <v>      -0.25925926      -0.40000000       0.07692308 </v>
   <v>      -0.22222222      -0.40000000       0.07692308 </v>
   <v>      -0.18518519      -0.40000000       0.07692308 </v>
   <v>      -0.14814815      -0.40000000       0.07692308 </v>
   <v>      -0.11111111      -0.40000000       0.07692308 </v>
   <v>      -0.07407407      -0.40000000       0.07692308 </v>
   <v>      -0.03703704      -0.40000000       0.07692308 </v>
   <v>       0.00000000      -0.33333333       0.07692308 </v>
   <v>       0.03703704      -0.33333333       0.07692308 </v>
   <v>       0.07407407      -0.33333333       0.07692308 </v>
   <v>       0.11111111      -0.33333333       0.07692308 </v>
   <v>       0.14814815      -0.33333333       0.07692308 </v>
   <v>       0.18518519      -0.33333333       0.07692308 </v>
   <v>       0.22222222      -0.33333333       0.07692308 </v>
   <v>       0.25925926      -0.33333333       0.07692308 </v>
   <v>       0.29629630      -0.33333333       0.07692308 </v>
   <v>       0.33333333      -0.33333333       0.07692308 </v>
   <v>       0.37037037      -0.33333333       0.07692308 </v>
   <v>       0.40740741      -0.33333333       0.07692308 </v>
   <v>       0.44444444      -0.33333333       0.07692308 </v>
   <v>       0.48148148      -0.33333333       0.07692308 </v>
   <v>      -0.48148148      -0.33333333       0.07692308 </v>
   <v>      -0.44444444      -0.33333333       0.07692308 </v>
   <v>      -0.40740741      -0.33333333       0.07692308 </v>
   <v>      -0.37037037      -0.33333333       0.07692308 </v>
   <v>      -0.33333333      -0.33333333       0.07692308 </v>
   <v>      -0.29629630      -0.33333333       0.07692308 </v>
   <v>      -0.25925926      -0.33333333       0.07692308 </v>
   <v>      -0.22222222      -0.33333333       0.07692308 </v>
   <v>      -0.18518519      -0.33333333       0.07692308 </v>
   <v>      -0.14814815      -0.33333333       0.07692308 </v>
   <v>      -0.11111111      -0.33333333       0.07692308 </v>
   <v>      -0.07407407      -0.33333333       0.07692308 </v>
   <v>      -0.03703704      -0.33333333       0.07692308 </v>
   <v>       0.00000000      -0.26666667       0.07692308 </v>
   <v>       0.03703704      -0.26666667       0.07692308 </v>
   <v>       0.07407407      -0.26666667       0.07692308 </v>
   <v>       0.11111111      -0.26666667       0.07692308 </v>
   <v>       0.14814815      -0.26666667       0.07692308 </v>
   <v>       0.18518519      -0.26666667       0.07692308 </v>
   <v>       0.22222222      -0.26666667       0.07692308 </v>
   <v>       0.25925926      -0.26666667       0.07692308 </v>
   <v>       0.29629630      -0.26666667       0.07692308 </v>
   <v>       0.33333333      -0.26666667       0.07692308 </v>
   <v>       0.37037037      -0.26666667       0.07692308 </v>
   <v>       0.40740741      -0.26666667       0.07692308 </v>
   <v>       0.44444444      -0.26666667       0.07692308 </v>
   <v>       0.48148148      -0.26666667       0.07692308 </v>
   <v>      -0.48148148      -0.26666667       0.07692308 </v>
   <v>      -0.44444444      -0.26666667       0.07692308 </v>
   <v>      -0.40740741      -0.26666667       0.07692308 </v>
   <v>      -0.37037037      -0.26666667       0.07692308 </v>
   <v>      -0.33333333      -0.26666667       0.07692308 </v>
   <v>      -0.29629630      -0.26666667       0.07692308 </v>
   <v>      -0.25925926      -0.26666667       0.07692308 </v>
   <v>      -0.22222222      -0.26666667       0.07692308 </v>
   <v>      -0.18518519      -0.26666667       0.07692308 </v>
   <v>      -0.14814815      -0.26666667       0.07692308 </v>
   <v>      -0.11111111      -0.26666667       0.07692308 </v>
   <v>      -0.07407407      -0.26666667       0.07692308 </v>
   <v>      -0.03703704      -0.26666667       0.07692308 </v>
   <v>       0.00000000      -0.20000000       0.07692308 </v>
   <v>       0.03703704      -0.20000000       0.07692308 </v>
   <v>       0.07407407      -0.20000000       0.07692308 </v>
   <v>       0.11111111      -0.20000000       0.07692308 </v>
   <v>       0.14814815      -0.20000000       0.07692308 </v>
   <v>       0.18518519      -0.20000000       0.07692308 </v>
   <v>       0.22222222      -0.20000000       0.07692308 </v>
   <v>       0.25925926      -0.20000000       0.07692308 </v>
   <v>       0.29629630      -0.20000000       0.07692308 </v>
   <v>       0.33333333      -0.20000000       0.07692308 </v>
   <v>       0.37037037      -0.20000000       0.07692308 </v>
   <v>       0.40740741      -0.20000000       0.07692308 </v>
   <v>       0.44444444      -0.20000000       0.07692308 </v>
   <v>       0.48148148      -0.20000000       0.07692308 </v>
   <v>      -0.48148148      -0.20000000       0.07692308 </v>
   <v>      -0.44444444      -0.20000000       0.07692308 </v>
   <v>      -0.40740741      -0.20000000       0.07692308 </v>
   <v>      -0.37037037      -0.20000000       0.07692308 </v>
   <v>      -0.33333333      -0.20000000       0.07692308 </v>
   <v>      -0.29629630      -0.20000000       0.07692308 </v>
   <v>      -0.25925926      -0.20000000       0.07692308 </v>
   <v>      -0.22222222      -0.20000000       0.07692308 </v>
   <v>      -0.18518519      -0.20000000       0.07692308 </v>
   <v>      -0.14814815      -0.20000000       0.07692308 </v>
   <v>      -0.11111111      -0.20000000       0.07692308 </v>
   <v>      -0.07407407      -0.20000000       0.07692308 </v>
   <v>      -0.03703704      -0.20000000       0.07692308 </v>
   <v>       0.00000000      -0.13333333       0.07692308 </v>
   <v>       0.03703704      -0.13333333       0.07692308 </v>
   <v>       0.07407407      -0.13333333       0.07692308 </v>
   <v>       0.11111111      -0.13333333       0.07692308 </v>
   <v>       0.14814815      -0.13333333       0.07692308 </v>
   <v>       0.18518519      -0.13333333       0.07692308 </v>
   <v>       0.22222222      -0.13333333       0.07692308 </v>
   <v>       0.25925926      -0.13333333       0.07692308 </v>
   <v>       0.29629630      -0.13333333       0.07692308 </v>
   <v>       0.33333333      -0.13333333       0.07692308 </v>
   <v>       0.37037037      -0.13333333       0.07692308 </v>
   <v>       0.40740741      -0.13333333       0.07692308 </v>
   <v>       0.44444444      -0.13333333       0.07692308 </v>
   <v>       0.48148148      -0.13333333       0.07692308 </v>
   <v>      -0.48148148      -0.13333333       0.07692308 </v>
   <v>      -0.44444444      -0.13333333       0.07692308 </v>
   <v>      -0.40740741      -0.13333333       0.07692308 </v>
   <v>      -0.37037037      -0.13333333       0.07692308 </v>
   <v>      -0.33333333      -0.13333333       0.07692308 </v>
   <v>      -0.29629630      -0.13333333       0.07692308 </v>
   <v>      -0.25925926      -0.13333333       0.07692308 </v>
   <v>      -0.22222222      -0.13333333       0.07692308 </v>
   <v>      -0.18518519      -0.13333333       0.07692308 </v>
   <v>      -0.14814815      -0.13333333       0.07692308 </v>
   <v>      -0.11111111      -0.13333333       0.07692308 </v>
   <v>      -0.07407407      -0.13333333       0.07692308 </v>
   <v>      -0.03703704      -0.13333333       0.07692308 </v>
   <v>       0.00000000      -0.06666667       0.07692308 </v>
   <v>       0.03703704      -0.06666667       0.07692308 </v>
   <v>       0.07407407      -0.06666667       0.07692308 </v>
   <v>       0.11111111      -0.06666667       0.07692308 </v>
   <v>       0.14814815      -0.06666667       0.07692308 </v>
   <v>       0.18518519      -0.06666667       0.07692308 </v>
   <v>       0.22222222      -0.06666667       0.07692308 </v>
   <v>       0.25925926      -0.06666667       0.07692308 </v>
   <v>       0.29629630      -0.06666667       0.07692308 </v>
   <v>       0.33333333      -0.06666667       0.07692308 </v>
   <v>       0.37037037      -0.06666667       0.07692308 </v>
   <v>       0.40740741      -0.06666667       0.07692308 </v>
   <v>       0.44444444      -0.06666667       0.07692308 </v>
   <v>       0.48148148      -0.06666667       0.07692308 </v>
   <v>      -0.48148148      -0.06666667       0.07692308 </v>
   <v>      -0.44444444      -0.06666667       0.07692308 </v>
   <v>      -0.40740741      -0.06666667       0.07692308 </v>
   <v>      -0.37037037      -0.06666667       0.07692308 </v>
   <v>      -0.33333333      -0.06666667       0.07692308 </v>
   <v>      -0.29629630      -0.06666667       0.07692308 </v>
   <v>      -0.25925926      -0.06666667       0.07692308 </v>
   <v>      -0.22222222      -0.06666667       0.07692308 </v>
   <v>      -0.18518519      -0.06666667       0.07692308 </v>
   <v>      -0.14814815      -0.06666667       0.07692308 </v>
   <v>      -0.11111111      -0.06666667       0.07692308 </v>
   <v>      -0.07407407      -0.06666667       0.07692308 </v>
   <v>      -0.03703704      -0.06666667       0.07692308 </v>
   <v>       0.00000000       0.00000000       0.15384615 </v>
   <v>       0.03703704       0.00000000       0.15384615 </v>
   <v>       0.07407407       0.00000000       0.15384615 </v>
   <v>       0.11111111       0.00000000       0.15384615 </v>
   <v>       0.14814815       0.00000000       0.15384615 </v>
   <v>       0.18518519       0.00000000       0.15384615 </v>
   <v>       0.22222222       0.00000000       0.15384615 </v>
   <v>       0.25925926       0.00000000       0.15384615 </v>
   <v>       0.29629630       0.00000000       0.15384615 </v>
   <v>       0.33333333       0.00000000       0.15384615 </v>
   <v>       0.37037037       0.00000000       0.15384615 </v>
   <v>       0.40740741       0.00000000       0.15384615 </v>
   <v>       0.44444444       0.00000000       0.15384615 </v>
   <v>       0.48148148       0.00000000       0.15384615 </v>
   <v>      -0.48148148       0.00000000       0.15384615 </v>
   <v>      -0.44444444       0.00000000       0.15384615 </v>
   <v>      -0.40740741       0.00000000       0.15384615 </v>
   <v>      -0.37037037       0.00000000       0.15384615 </v>
   <v>      -0.33333333       0.00000000       0.15384615 </v>
   <v>      -0.29629630       0.00000000       0.15384615 </v>
   <v>      -0.25925926       0.00000000       0.15384615 </v>
   <v>      -0.22222222       0.00000000       0.15384615 </v>
   <v>      -0.18518519       0.00000000       0.15384615 </v>
   <v>      -0.14814815       0.00000000       0.15384615 </v>
   <v>      -0.11111111       0.00000000       0.15384615 </v>
   <v>      -0.07407407       0.00000000       0.15384615 </v>
   <v>      -0.03703704       0.00000000       0.15384615 </v>
   <v>       0.00000000       0.06666667       0.15384615 </v>
   <v>       0.03703704       0.06666667       0.15384615 </v>
   <v>       0.07407407       0.06666667       0.15384615 </v>
   <v>       0.11111111       0.06666667       0.15384615 </v>
   <v>       0.14814815       0.06666667       0.15384615 </v>
   <v>       0.18518519       0.06666667       0.15384615 </v>
   <v>       0.22222222       0.06666667       0.15384615 </v>
   <v>       0.25925926       0.06666667       0.15384615 </v>
   <v>       0.29629630       0.06666667       0.15384615 </v>
   <v>       0.33333333       0.06666667       0.15384615 </v>
   <v>       0.37037037       0.06666667       0.15384615 </v>
   <v>       0.40740741       0.06666667       0.15384615 </v>
   <v>       0.44444444       0.06666667       0.15384615 </v>
   <v>       0.48148148       0.06666667       0.15384615 </v>
   <v>      -0.48148148       0.06666667       0.15384615 </v>
   <v>      -0.44444444       0.06666667       0.15384615 </v>
   <v>      -0.40740741       0.06666667       0.15384615 </v>
   <v>      -0.37037037       0.06666667       0.15384615 </v>
   <v>      -0.33333333       0.06666667       0.15384615 </v>
   <v>      -0.29629630       0.06666667       0.15384615 </v>
   <v>      -0.25925926       0.06666667       0.15384615 </v>
   <v>      -0.22222222       0.06666667       0.15384615 </v>
   <v>      -0.18518519       0.06666667       0.15384615 </v>
   <v>      -0.14814815       0.06666667       0.15384615 </v>
   <v>      -0.11111111       0.06666667       0.15384615 </v>
   <v>      -0.07407407       0.06666667       0.15384615 </v>
   <v>      -0.03703704       0.06666667       0.15384615 </v>
   <v>       0.00000000       0.13333333       0.15384615 </v>
   <v>       0.03703704       0.13333333       0.15384615 </v>
   <v>       0.07407407       0.13333333       0.15384615 </v>
   <v>       0.11111111       0.13333333       0.15384615 </v>
   <v>       0.14814815       0.13333333       0.15384615 </v>
   <v>       0.18518519       0.13333333       0.15384615 </v>
   <v>       0.22222222       0.13333333       0.15384615 </v>
   <v>       0.25925926       0.13333333       0.15384615 </v>
   <v>       0.29629630       0.13333333       0.15384615 </v>
   <v>       0.33333333       0.13333333       0.15384615 </v>
   <v>       0.37037037       0.13333333       0.15384615 </v>
   <v>       0.40740741       0.13333333       0.15384615 </v>
   <v>       0.44444444       0.13333333       0.15384615 </v>
   <v>       0.48148148       0.13333333       0.15384615 </v>
   <v>      -0.48148148       0.13333333       0.15384615 </v>
   <v>      -0.44444444       0.13333333       0.15384615 </v>
   <v>      -0.40740741       0.13333333       0.15384615 </v>
   <v>      -0.37037037       0.13333333       0.15384615 </v>
   <v>      -0.33333333       0.13333333       0.15384615 </v>
   <v>      -0.29629630       0.13333333       0.15384615 </v>
   <v>      -0.25925926       0.13333333       0.15384615 </v>
   <v>      -0.22222222       0.13333333       0.15384615 </v>
   <v>      -0.18518519       0.13333333       0.15384615 </v>
   <v>      -0.14814815       0.13333333       0.15384615 </v>
   <v>      -0.11111111       0.13333333       0.15384615 </v>
   <v>      -0.07407407       0.13333333       0.15384615 </v>
   <v>      -0.03703704       0.13333333       0.15384615 </v>
   <v>       0.00000000       0.20000000       0.15384615 </v>
   <v>       0.03703704       0.20000000       0.15384615 </v>
   <v>       0.07407407       0.20000000       0.15384615 </v>
   <v>       0.11111111       0.20000000       0.15384615 </v>
   <v>       0.14814815       0.20000000       0.15384615 </v>
   <v>       0.18518519       0.20000000       0.15384615 </v>
   <v>       0.22222222       0.20000000       0.15384615 </v>
   <v>       0.25925926       0.20000000       0.15384615 </v>
   <v>       0.29629630       0.20000000       0.15384615 </v>
   <v>       0.33333333       0.20000000       0.15384615 </v>
   <v>       0.37037037       0.20000000       0.15384615 </v>
   <v>       0.40740741       0.20000000       0.15384615 </v>
   <v>       0.44444444       0.20000000       0.15384615 </v>
   <v>       0.48148148       0.20000000       0.15384615 </v>
   <v>      -0.48148148       0.20000000       0.15384615 </v>
   <v>      -0.44444444       0.20000000       0.15384615 </v>
   <v>      -0.40740741       0.20000000       0.15384615 </v>
   <v>      -0.37037037       0.20000000       0.15384615 </v>
   <v>      -0.33333333       0.20000000       0.15384615 </v>
   <v>      -0.29629630       0.20000000       0.15384615 </v>
   <v>      -0.25925926       0.20000000       0.15384615 </v>
   <v>      -0.22222222       0.20000000       0.15384615 </v>
   <v>      -0.18518519       0.20000000       0.15384615 </v>
   <v>      -0.14814815       0.20000000       0.15384615 </v>
   <v>      -0.11111111       0.20000000       0.15384615 </v>
   <v>      -0.07407407       0.20000000       0.15384615 </v>
   <v>      -0.03703704       0.20000000       0.15384615 </v>
   <v>       0.00000000       0.26666667       0.15384615 </v>
   <v>       0.03703704       0.26666667       0.15384615 </v>
   <v>       0.07407407       0.26666667       0.15384615 </v>
   <v>       0.11111111       0.26666667       0.15384615 </v>
   <v>       0.14814815       0.26666667       0.15384615 </v>
   <v>       0.18518519       0.26666667       0.15384615 </v>
   <v>       0.22222222       0.26666667       0.15384615 </v>
   <v>       0.25925926       0.26666667       0.15384615 </v>
   <v>       0.29629630       0.26666667       0.15384615 </v>
   <v>       0.33333333       0.26666667       0.15384615 </v>
   <v>       0.37037037       0.26666667       0.15384615 </v>
   <v>       0.40740741       0.26666667       0.15384615 </v>
   <v>       0.44444444       0.26666667       0.15384615 </v>
   <v>       0.48148148       0.26666667       0.15384615 </v>
   <v>      -0.48148148       0.26666667       0.15384615 </v>
   <v>      -0.44444444       0.26666667       0.15384615 </v>
   <v>      -0.40740741       0.26666667       0.15384615 </v>
   <v>      -0.37037037       0.26666667       0.15384615 </v>
   <v>      -0.33333333       0.26666667       0.15384615 </v>
   <v>      -0.29629630       0.26666667       0.15384615 </v>
   <v>      -0.25925926       0.26666667       0.15384615 </v>
   <v>      -0.22222222       0.26666667       0.15384615 </v>
   <v>      -0.18518519       0.26666667       0.15384615 </v>
   <v>      -0.14814815       0.26666667       0.15384615 </v>
   <v>      -0.11111111       0.26666667       0.15384615 </v>
   <v>      -0.07407407       0.26666667       0.15384615 </v>
   <v>      -0.03703704       0.26666667       0.15384615 </v>
   <v>       0.00000000       0.33333333       0.15384615 </v>
   <v>       0.03703704       0.33333333       0.15384615 </v>
   <v>       0.07407407       0.33333333       0.15384615 </v>
   <v>       0.11111111       0.33333333       0.15384615 </v>
   <v>       0.14814815       0.33333333       0.15384615 </v>
   <v>       0.18518519       0.33333333       0.15384615 </v>
   <v>       0.22222222       0.33333333       0.15384615 </v>
   <v>       0.25925926       0.33333333       0.15384615 </v>
   <v>       0.29629630       0.33333333       0.15384615 </v>
   <v>       0.33333333       0.33333333       0.15384615 </v>
   <v>       0.37037037       0.33333333       0.15384615 </v>
   <v>       0.40740741       0.33333333       0.15384615 </v>
   <v>       0.44444444       0.33333333       0.15384615 </v>
   <v>       0.48148148       0.33333333       0.15384615 </v>
   <v>      -0.48148148       0.33333333       0.15384615 </v>
   <v>      -0.44444444       0.33333333       0.15384615 </v>
   <v>      -0.40740741       0.33333333       0.15384615 </v>
   <v>      -0.37037037       0.33333333       0.15384615 </v>
   <v>      -0.33333333       0.33333333       0.15384615 </v>
   <v>      -0.29629630       0.33333333       0.15384615 </v>
   <v>      -0.25925926       0.33333333       0.15384615 </v>
   <v>      -0.22222222       0.33333333       0.15384615 </v>
   <v>      -0.18518519       0.33333333       0.15384615 </v>
   <v>      -0.14814815       0.33333333       0.15384615 </v>
   <v>      -0.11111111       0.33333333       0.15384615 </v>
   <v>      -0.07407407       0.33333333       0.15384615 </v>
   <v>      -0.03703704       0.33333333       0.15384615 </v>
   <v>       0.00000000       0.40000000       0.15384615 </v>
   <v>       0.03703704       0.40000000       0.15384615 </v>
   <v>       0.07407407       0.40000000       0.15384615 </v>
   <v>       0.11111111       0.40000000       0.15384615 </v>
   <v>       0.14814815       0.40000000       0.15384615 </v>
   <v>       0.18518519       0.40000000       0.15384615 </v>
   <v>       0.22222222       0.40000000       0.15384615 </v>
   <v>       0.25925926       0.40000000       0.15384615 </v>
   <v>       0.29629630       0.40000000       0.15384615 </v>
   <v>       0.33333333       0.40000000       0.15384615 </v>
   <v>       0.37037037       0.40000000       0.15384615 </v>
   <v>       0.40740741       0.40000000       0.15384615 </v>
   <v>       0.44444444       0.40000000       0.15384615 </v>
   <v>       0.48148148       0.40000000       0.15384615 </v>
   <v>      -0.48148148       0.40000000       0.15384615 </v>
   <v>      -0.44444444       0.40000000       0.15384615 </v>
   <v>      -0.40740741       0.40000000       0.15384615 </v>
   <v>      -0.37037037       0.40000000       0.15384615 </v>
   <v>      -0.33333333       0.40000000       0.15384615 </v>
   <v>      -0.29629630       0.40000000       0.15384615 </v>
   <v>      -0.25925926       0.40000000       0.15384615 </v>
   <v>      -0.22222222       0.40000000       0.15384615 </v>
   <v>      -0.18518519       0.40000000       0.15384615 </v>
   <v>      -0.14814815       0.40000000       0.15384615 </v>
   <v>      -0.11111111       0.40000000       0.15384615 </v>
   <v>      -0.07407407       0.40000000       0.15384615 </v>
   <v>      -0.03703704       0.40000000       0.15384615 </v>
   <v>       0.00000000       0.46666667       0.15384615 </v>
   <v>       0.03703704       0.46666667       0.15384615 </v>
   <v>       0.07407407       0.46666667       0.15384615 </v>
   <v>       0.11111111       0.46666667       0.15384615 </v>
   <v>       0.14814815       0.46666667       0.15384615 </v>
   <v>       0.18518519       0.46666667       0.15384615 </v>
   <v>       0.22222222       0.46666667       0.15384615 </v>
   <v>       0.25925926       0.46666667       0.15384615 </v>
   <v>       0.29629630       0.46666667       0.15384615 </v>
   <v>       0.33333333       0.46666667       0.15384615 </v>
   <v>       0.37037037       0.46666667       0.15384615 </v>
   <v>       0.40740741       0.46666667       0.15384615 </v>
   <v>       0.44444444       0.46666667       0.15384615 </v>
   <v>       0.48148148       0.46666667       0.15384615 </v>
   <v>      -0.48148148       0.46666667       0.15384615 </v>
   <v>      -0.44444444       0.46666667       0.15384615 </v>
   <v>      -0.40740741       0.46666667       0.15384615 </v>
   <v>      -0.37037037       0.46666667       0.15384615 </v>
   <v>      -0.33333333       0.46666667       0.15384615 </v>
   <v>      -0.29629630       0.46666667       0.15384615 </v>
   <v>      -0.25925926       0.46666667       0.15384615 </v>
   <v>      -0.22222222       0.46666667       0.15384615 </v>
   <v>      -0.18518519       0.46666667       0.15384615 </v>
   <v>      -0.14814815       0.46666667       0.15384615 </v>
   <v>      -0.11111111       0.46666667       0.15384615 </v>
   <v>      -0.07407407       0.46666667       0.15384615 </v>
   <v>      -0.03703704       0.46666667       0.15384615 </v>
   <v>       0.00000000      -0.46666667       0.15384615 </v>
   <v>       0.03703704      -0.46666667       0.15384615 </v>
   <v>       0.07407407      -0.46666667       0.15384615 </v>
   <v>       0.11111111      -0.46666667       0.15384615 </v>
   <v>       0.14814815      -0.46666667       0.15384615 </v>
   <v>       0.18518519      -0.46666667       0.15384615 </v>
   <v>       0.22222222      -0.46666667       0.15384615 </v>
   <v>       0.25925926      -0.46666667       0.15384615 </v>
   <v>       0.29629630      -0.46666667       0.15384615 </v>
   <v>       0.33333333      -0.46666667       0.15384615 </v>
   <v>       0.37037037      -0.46666667       0.15384615 </v>
   <v>       0.40740741      -0.46666667       0.15384615 </v>
   <v>       0.44444444      -0.46666667       0.15384615 </v>
   <v>       0.48148148      -0.46666667       0.15384615 </v>
   <v>      -0.48148148      -0.46666667       0.15384615 </v>
   <v>      -0.44444444      -0.46666667       0.15384615 </v>
   <v>      -0.40740741      -0.46666667       0.15384615 </v>
   <v>      -0.37037037      -0.46666667       0.15384615 </v>
   <v>      -0.33333333      -0.46666667       0.15384615 </v>
   <v>      -0.29629630      -0.46666667       0.15384615 </v>
   <v>      -0.25925926      -0.46666667       0.15384615 </v>
   <v>      -0.22222222      -0.46666667       0.15384615 </v>
   <v>      -0.18518519      -0.46666667       0.15384615 </v>
   <v>      -0.14814815      -0.46666667       0.15384615 </v>
   <v>      -0.11111111      -0.46666667       0.15384615 </v>
   <v>      -0.07407407      -0.46666667       0.15384615 </v>
   <v>      -0.03703704      -0.46666667       0.15384615 </v>
   <v>       0.00000000      -0.40000000       0.15384615 </v>
   <v>       0.03703704      -0.40000000       0.15384615 </v>
   <v>       0.07407407      -0.40000000       0.15384615 </v>
   <v>       0.11111111      -0.40000000       0.15384615 </v>
   <v>       0.14814815      -0.40000000       0.15384615 </v>
   <v>       0.18518519      -0.40000000       0.15384615 </v>
   <v>       0.22222222      -0.40000000       0.15384615 </v>
   <v>       0.25925926      -0.40000000       0.15384615 </v>
   <v>       0.29629630      -0.40000000       0.15384615 </v>
   <v>       0.33333333      -0.40000000       0.15384615 </v>
   <v>       0.37037037      -0.40000000       0.15384615 </v>
   <v>       0.40740741      -0.40000000       0.15384615 </v>
   <v>       0.44444444      -0.40000000       0.15384615 </v>
   <v>       0.48148148      -0.40000000       0.15384615 </v>
   <v>      -0.48148148      -0.40000000       0.15384615 </v>
   <v>      -0.44444444      -0.40000000       0.15384615 </v>
   <v>      -0.40740741      -0.40000000       0.15384615 </v>
   <v>      -0.37037037      -0.40000000       0.15384615 </v>
   <v>      -0.33333333      -0.40000000       0.15384615 </v>
   <v>      -0.29629630      -0.40000000       0.15384615 </v>
   <v>      -0.25925926      -0.40000000       0.15384615 </v>
   <v>      -0.22222222      -0.40000000       0.15384615 </v>
   <v>      -0.18518519      -0.40000000       0.15384615 </v>
   <v>      -0.14814815      -0.40000000       0.15384615 </v>
   <v>      -0.11111111      -0.40000000       0.15384615 </v>
   <v>      -0.07407407      -0.40000000       0.15384615 </v>
   <v>      -0.03703704      -0.40000000       0.15384615 </v>
   <v>       0.00000000      -0.33333333       0.15384615 </v>
   <v>       0.03703704      -0.33333333       0.15384615 </v>
   <v>       0.07407407      -0.33333333       0.15384615 </v>
   <v>       0.11111111      -0.33333333       0.15384615 </v>
   <v>       0.14814815      -0.33333333       0.15384615 </v>
   <v>       0.18518519      -0.33333333       0.15384615 </v>
   <v>       0.22222222      -0.33333333       0.15384615 </v>
   <v>       0.25925926      -0.33333333       0.15384615 </v>
   <v>       0.29629630      -0.33333333       0.15384615 </v>
   <v>       0.33333333      -0.33333333       0.15384615 </v>
   <v>       0.37037037      -0.33333333       0.15384615 </v>
   <v>       0.40740741      -0.33333333       0.15384615 </v>
   <v>       0.44444444      -0.33333333       0.15384615 </v>
   <v>       0.48148148      -0.33333333       0.15384615 </v>
   <v>      -0.48148148      -0.33333333       0.15384615 </v>
   <v>      -0.44444444      -0.33333333       0.15384615 </v>
   <v>      -0.40740741      -0.33333333       0.15384615 </v>
   <v>      -0.37037037      -0.33333333       0.15384615 </v>
   <v>      -0.33333333      -0.33333333       0.15384615 </v>
   <v>      -0.29629630      -0.33333333       0.15384615 </v>
   <v>      -0.25925926      -0.33333333       0.15384615 </v>
   <v>      -0.22222222      -0.33333333       0.15384615 </v>
   <v>      -0.18518519      -0.33333333       0.15384615 </v>
   <v>      -0.14814815      -0.33333333       0.15384615 </v>
   <v>      -0.11111111      -0.33333333       0.15384615 </v>
   <v>      -0.07407407      -0.33333333       0.15384615 </v>
   <v>      -0.03703704      -0.33333333       0.15384615 </v>
   <v>       0.00000000      -0.26666667       0.15384615 </v>
   <v>       0.03703704      -0.26666667       0.15384615 </v>
   <v>       0.07407407      -0.26666667       0.15384615 </v>
   <v>       0.11111111      -0.26666667       0.15384615 </v>
   <v>       0.14814815      -0.26666667       0.15384615 </v>
   <v>       0.18518519      -0.26666667       0.15384615 </v>
   <v>       0.22222222      -0.26666667       0.15384615 </v>
   <v>       0.25925926      -0.26666667       0.15384615 </v>
   <v>       0.29629630      -0.26666667       0.15384615 </v>
   <v>       0.33333333      -0.26666667       0.15384615 </v>
   <v>       0.37037037      -0.26666667       0.15384615 </v>
   <v>       0.40740741      -0.26666667       0.15384615 </v>
   <v>       0.44444444      -0.26666667       0.15384615 </v>
   <v>       0.48148148      -0.26666667       0.15384615 </v>
   <v>      -0.48148148      -0.26666667       0.15384615 </v>
   <v>      -0.44444444      -0.26666667       0.15384615 </v>
   <v>      -0.40740741      -0.26666667       0.15384615 </v>
   <v>      -0.37037037      -0.26666667       0.15384615 </v>
   <v>      -0.33333333      -0.26666667       0.15384615 </v>
   <v>      -0.29629630      -0.26666667       0.15384615 </v>
   <v>      -0.25925926      -0.26666667       0.15384615 </v>
   <v>      -0.22222222      -0.26666667       0.15384615 </v>
   <v>      -0.18518519      -0.26666667       0.15384615 </v>
   <v>      -0.14814815      -0.26666667       0.15384615 </v>
   <v>      -0.11111111      -0.26666667       0.15384615 </v>
   <v>      -0.07407407      -0.26666667       0.15384615 </v>
   <v>      -0.03703704      -0.26666667       0.15384615 </v>
   <v>       0.00000000      -0.20000000       0.15384615 </v>
   <v>       0.03703704      -0.20000000       0.15384615 </v>
   <v>       0.07407407      -0.20000000       0.15384615 </v>
   <v>       0.11111111      -0.20000000       0.15384615 </v>
   <v>       0.14814815      -0.20000000       0.15384615 </v>
   <v>       0.18518519      -0.20000000       0.15384615 </v>
   <v>       0.22222222      -0.20000000       0.15384615 </v>
   <v>       0.25925926      -0.20000000       0.15384615 </v>
   <v>       0.29629630      -0.20000000       0.15384615 </v>
   <v>       0.33333333      -0.20000000       0.15384615 </v>
   <v>       0.37037037      -0.20000000       0.15384615 </v>
   <v>       0.40740741      -0.20000000       0.15384615 </v>
   <v>       0.44444444      -0.20000000       0.15384615 </v>
   <v>       0.48148148      -0.20000000       0.15384615 </v>
   <v>      -0.48148148      -0.20000000       0.15384615 </v>
   <v>      -0.44444444      -0.20000000       0.15384615 </v>
   <v>      -0.40740741      -0.20000000       0.15384615 </v>
   <v>      -0.37037037      -0.20000000       0.15384615 </v>
   <v>      -0.33333333      -0.20000000       0.15384615 </v>
   <v>      -0.29629630      -0.20000000       0.15384615 </v>
   <v>      -0.25925926      -0.20000000       0.15384615 </v>
   <v>      -0.22222222      -0.20000000       0.15384615 </v>
   <v>      -0.18518519      -0.20000000       0.15384615 </v>
   <v>      -0.14814815      -0.20000000       0.15384615 </v>
   <v>      -0.11111111      -0.20000000       0.15384615 </v>
   <v>      -0.07407407      -0.20000000       0.15384615 </v>
   <v>      -0.03703704      -0.20000000       0.15384615 </v>
   <v>       0.00000000      -0.13333333       0.15384615 </v>
   <v>       0.03703704      -0.13333333       0.15384615 </v>
   <v>       0.07407407      -0.13333333       0.15384615 </v>
   <v>       0.11111111      -0.13333333       0.15384615 </v>
   <v>       0.14814815      -0.13333333       0.15384615 </v>
   <v>       0.18518519      -0.13333333       0.15384615 </v>
   <v>       0.22222222      -0.13333333       0.15384615 </v>
   <v>       0.25925926      -0.13333333       0.15384615 </v>
   <v>       0.29629630      -0.13333333       0.15384615 </v>
   <v>       0.33333333      -0.13333333       0.15384615 </v>
   <v>       0.37037037      -0.13333333       0.15384615 </v>
   <v>       0.40740741      -0.13333333       0.15384615 </v>
   <v>       0.44444444      -0.13333333       0.15384615 </v>
   <v>       0.48148148      -0.13333333       0.15384615 </v>
   <v>      -0.48148148      -0.13333333       0.15384615 </v>
   <v>      -0.44444444      -0.13333333       0.15384615 </v>
   <v>      -0.40740741      -0.13333333       0.15384615 </v>
   <v>      -0.37037037      -0.13333333       0.15384615 </v>
   <v>      -0.33333333      -0.13333333       0.15384615 </v>
   <v>      -0.29629630      -0.13333333       0.15384615 </v>
   <v>      -0.25925926      -0.13333333       0.15384615 </v>
   <v>      -0.22222222      -0.13333333       0.15384615 </v>
   <v>      -0.18518519      -0.13333333       0.15384615 </v>
   <v>      -0.14814815      -0.13333333       0.15384615 </v>
   <v>      -0.11111111      -0.13333333       0.15384615 </v>
   <v>      -0.07407407      -0.13333333       0.15384615 </v>
   <v>      -0.03703704      -0.13333333       0.15384615 </v>
   <v>       0.00000000      -0.06666667       0.15384615 </v>
   <v>       0.03703704      -0.06666667       0.15384615 </v>
   <v>       0.07407407      -0.06666667       0.15384615 </v>
   <v>       0.11111111      -0.06666667       0.15384615 </v>
   <v>       0.14814815      -0.06666667       0.15384615 </v>
   <v>       0.18518519      -0.06666667       0.15384615 </v>
   <v>       0.22222222      -0.06666667       0.15384615 </v>
   <v>       0.25925926      -0.06666667       0.15384615 </v>
   <v>       0.29629630      -0.06666667       0.15384615 </v>
   <v>       0.33333333      -0.06666667       0.15384615 </v>
   <v>       0.37037037      -0.06666667       0.15384615 </v>
   <v>       0.40740741      -0.06666667       0.15384615 </v>
   <v>       0.44444444      -0.06666667       0.15384615 </v>
   <v>       0.48148148      -0.06666667       0.15384615 </v>
   <v>      -0.48148148      -0.06666667       0.15384615 </v>
   <v>      -0.44444444      -0.06666667       0.15384615 </v>
   <v>      -0.40740741      -0.06666667       0.15384615 </v>
   <v>      -0.37037037      -0.06666667       0.15384615 </v>
   <v>      -0.33333333      -0.06666667       0.15384615 </v>
   <v>      -0.29629630      -0.06666667       0.15384615 </v>
   <v>      -0.25925926      -0.06666667       0.15384615 </v>
   <v>      -0.22222222      -0.06666667       0.15384615 </v>
   <v>      -0.18518519      -0.06666667       0.15384615 </v>
   <v>      -0.14814815      -0.06666667       0.15384615 </v>
   <v>      -0.11111111      -0.06666667       0.15384615 </v>
   <v>      -0.07407407      -0.06666667       0.15384615 </v>
   <v>      -0.03703704      -0.06666667       0.15384615 </v>
   <v>       0.00000000       0.00000000       0.23076923 </v>
   <v>       0.03703704       0.00000000       0.23076923 </v>
   <v>       0.07407407       0.00000000       0.23076923 </v>
   <v>       0.11111111       0.00000000       0.23076923 </v>
   <v>       0.14814815       0.00000000       0.23076923 </v>
   <v>       0.18518519       0.00000000       0.23076923 </v>
   <v>       0.22222222       0.00000000       0.23076923 </v>
   <v>       0.25925926       0.00000000       0.23076923 </v>
   <v>       0.29629630       0.00000000       0.23076923 </v>
   <v>       0.33333333       0.00000000       0.23076923 </v>
   <v>       0.37037037       0.00000000       0.23076923 </v>
   <v>       0.40740741       0.00000000       0.23076923 </v>
   <v>       0.44444444       0.00000000       0.23076923 </v>
   <v>       0.48148148       0.00000000       0.23076923 </v>
   <v>      -0.48148148       0.00000000       0.23076923 </v>
   <v>      -0.44444444       0.00000000       0.23076923 </v>
   <v>      -0.40740741       0.00000000       0.23076923 </v>
   <v>      -0.37037037       0.00000000       0.23076923 </v>
   <v>      -0.33333333       0.00000000       0.23076923 </v>
   <v>      -0.29629630       0.00000000       0.23076923 </v>
   <v>      -0.25925926       0.00000000       0.23076923 </v>
   <v>      -0.22222222       0.00000000       0.23076923 </v>
   <v>      -0.18518519       0.00000000       0.23076923 </v>
   <v>      -0.14814815       0.00000000       0.23076923 </v>
   <v>      -0.11111111       0.00000000       0.23076923 </v>
   <v>      -0.07407407       0.00000000       0.23076923 </v>
   <v>      -0.03703704       0.00000000       0.23076923 </v>
   <v>       0.00000000       0.06666667       0.23076923 </v>
   <v>       0.03703704       0.06666667       0.23076923 </v>
   <v>       0.07407407       0.06666667       0.23076923 </v>
   <v>       0.11111111       0.06666667       0.23076923 </v>
   <v>       0.14814815       0.06666667       0.23076923 </v>
   <v>       0.18518519       0.06666667       0.23076923 </v>
   <v>       0.22222222       0.06666667       0.23076923 </v>
   <v>       0.25925926       0.06666667       0.23076923 </v>
   <v>       0.29629630       0.06666667       0.23076923 </v>
   <v>       0.33333333       0.06666667       0.23076923 </v>
   <v>       0.37037037       0.06666667       0.23076923 </v>
   <v>       0.40740741       0.06666667       0.23076923 </v>
   <v>       0.44444444       0.06666667       0.23076923 </v>
   <v>       0.48148148       0.06666667       0.23076923 </v>
   <v>      -0.48148148       0.06666667       0.23076923 </v>
   <v>      -0.44444444       0.06666667       0.23076923 </v>
   <v>      -0.40740741       0.06666667       0.23076923 </v>
   <v>      -0.37037037       0.06666667       0.23076923 </v>
   <v>      -0.33333333       0.06666667       0.23076923 </v>
   <v>      -0.29629630       0.06666667       0.23076923 </v>
   <v>      -0.25925926       0.06666667       0.23076923 </v>
   <v>      -0.22222222       0.06666667       0.23076923 </v>
   <v>      -0.18518519       0.06666667       0.23076923 </v>
   <v>      -0.14814815       0.06666667       0.23076923 </v>
   <v>      -0.11111111       0.06666667       0.23076923 </v>
   <v>      -0.07407407       0.06666667       0.23076923 </v>
   <v>      -0.03703704       0.06666667       0.23076923 </v>
   <v>       0.00000000       0.13333333       0.23076923 </v>
   <v>       0.03703704       0.13333333       0.23076923 </v>
   <v>       0.07407407       0.13333333       0.23076923 </v>
   <v>       0.11111111       0.13333333       0.23076923 </v>
   <v>       0.14814815       0.13333333       0.23076923 </v>
   <v>       0.18518519       0.13333333       0.23076923 </v>
   <v>       0.22222222       0.13333333       0.23076923 </v>
   <v>       0.25925926       0.13333333       0.23076923 </v>
   <v>       0.29629630       0.13333333       0.23076923 </v>
   <v>       0.33333333       0.13333333       0.23076923 </v>
   <v>       0.37037037       0.13333333       0.23076923 </v>
   <v>       0.40740741       0.13333333       0.23076923 </v>
   <v>       0.44444444       0.13333333       0.23076923 </v>
   <v>       0.48148148       0.13333333       0.23076923 </v>
   <v>      -0.48148148       0.13333333       0.23076923 </v>
   <v>      -0.44444444       0.13333333       0.23076923 </v>
   <v>      -0.40740741       0.13333333       0.23076923 </v>
   <v>      -0.37037037       0.13333333       0.23076923 </v>
   <v>      -0.33333333       0.13333333       0.23076923 </v>
   <v>      -0.29629630       0.13333333       0.23076923 </v>
   <v>      -0.25925926       0.13333333       0.23076923 </v>
   <v>      -0.22222222       0.13333333       0.23076923 </v>
   <v>      -0.18518519       0.13333333       0.23076923 </v>
   <v>      -0.14814815       0.13333333       0.23076923 </v>
   <v>      -0.11111111       0.13333333       0.23076923 </v>
   <v>      -0.07407407       0.13333333       0.23076923 </v>
   <v>      -0.03703704       0.13333333       0.23076923 </v>
   <v>       0.00000000       0.20000000       0.23076923 </v>
   <v>       0.03703704       0.20000000       0.23076923 </v>
   <v>       0.07407407       0.20000000       0.23076923 </v>
   <v>       0.11111111       0.20000000       0.23076923 </v>
   <v>       0.14814815       0.20000000       0.23076923 </v>
   <v>       0.18518519       0.20000000       0.23076923 </v>
   <v>       0.22222222       0.20000000       0.23076923 </v>
   <v>       0.25925926       0.20000000       0.23076923 </v>
   <v>       0.29629630       0.20000000       0.23076923 </v>
   <v>       0.33333333       0.20000000       0.23076923 </v>
   <v>       0.37037037       0.20000000       0.23076923 </v>
   <v>       0.40740741       0.20000000       0.23076923 </v>
   <v>       0.44444444       0.20000000       0.23076923 </v>
   <v>       0.48148148       0.20000000       0.23076923 </v>
   <v>      -0.48148148       0.20000000       0.23076923 </v>
   <v>      -0.44444444       0.20000000       0.23076923 </v>
   <v>      -0.40740741       0.20000000       0.23076923 </v>
   <v>      -0.37037037       0.20000000       0.23076923 </v>
   <v>      -0.33333333       0.20000000       0.23076923 </v>
   <v>      -0.29629630       0.20000000       0.23076923 </v>
   <v>      -0.25925926       0.20000000       0.23076923 </v>
   <v>      -0.22222222       0.20000000       0.23076923 </v>
   <v>      -0.18518519       0.20000000       0.23076923 </v>
   <v>      -0.14814815       0.20000000       0.23076923 </v>
   <v>      -0.11111111       0.20000000       0.23076923 </v>
   <v>      -0.07407407       0.20000000       0.23076923 </v>
   <v>      -0.03703704       0.20000000       0.23076923 </v>
   <v>       0.00000000       0.26666667       0.23076923 </v>
   <v>       0.03703704       0.26666667       0.23076923 </v>
   <v>       0.07407407       0.26666667       0.23076923 </v>
   <v>       0.11111111       0.26666667       0.23076923 </v>
   <v>       0.14814815       0.26666667       0.23076923 </v>
   <v>       0.18518519       0.26666667       0.23076923 </v>
   <v>       0.22222222       0.26666667       0.23076923 </v>
   <v>       0.25925926       0.26666667       0.23076923 </v>
   <v>       0.29629630       0.26666667       0.23076923 </v>
   <v>       0.33333333       0.26666667       0.23076923 </v>
   <v>       0.37037037       0.26666667       0.23076923 </v>
   <v>       0.40740741       0.26666667       0.23076923 </v>
   <v>       0.44444444       0.26666667       0.23076923 </v>
   <v>       0.48148148       0.26666667       0.23076923 </v>
   <v>      -0.48148148       0.26666667       0.23076923 </v>
   <v>      -0.44444444       0.26666667       0.23076923 </v>
   <v>      -0.40740741       0.26666667       0.23076923 </v>
   <v>      -0.37037037       0.26666667       0.23076923 </v>
   <v>      -0.33333333       0.26666667       0.23076923 </v>
   <v>      -0.29629630       0.26666667       0.23076923 </v>
   <v>      -0.25925926       0.26666667       0.23076923 </v>
   <v>      -0.22222222       0.26666667       0.23076923 </v>
   <v>      -0.18518519       0.26666667       0.23076923 </v>
   <v>      -0.14814815       0.26666667       0.23076923 </v>
   <v>      -0.11111111       0.26666667       0.23076923 </v>
   <v>      -0.07407407       0.26666667       0.23076923 </v>
   <v>      -0.03703704       0.26666667       0.23076923 </v>
   <v>       0.00000000       0.33333333       0.23076923 </v>
   <v>       0.03703704       0.33333333       0.23076923 </v>
   <v>       0.07407407       0.33333333       0.23076923 </v>
   <v>       0.11111111       0.33333333       0.23076923 </v>
   <v>       0.14814815       0.33333333       0.23076923 </v>
   <v>       0.18518519       0.33333333       0.23076923 </v>
   <v>       0.22222222       0.33333333       0.23076923 </v>
   <v>       0.25925926       0.33333333       0.23076923 </v>
   <v>       0.29629630       0.33333333       0.23076923 </v>
   <v>       0.33333333       0.33333333       0.23076923 </v>
   <v>       0.37037037       0.33333333       0.23076923 </v>
   <v>       0.40740741       0.33333333       0.23076923 </v>
   <v>       0.44444444       0.33333333       0.23076923 </v>
   <v>       0.48148148       0.33333333       0.23076923 </v>
   <v>      -0.48148148       0.33333333       0.23076923 </v>
   <v>      -0.44444444       0.33333333       0.23076923 </v>
   <v>      -0.40740741       0.33333333       0.23076923 </v>
   <v>      -0.37037037       0.33333333       0.23076923 </v>
   <v>      -0.33333333       0.33333333       0.23076923 </v>
   <v>      -0.29629630       0.33333333       0.23076923 </v>
   <v>      -0.25925926       0.33333333       0.23076923 </v>
   <v>      -0.22222222       0.33333333       0.23076923 </v>
   <v>      -0.18518519       0.33333333       0.23076923 </v>
   <v>      -0.14814815       0.33333333       0.23076923 </v>
   <v>      -0.11111111       0.33333333       0.23076923 </v>
   <v>      -0.07407407       0.33333333       0.23076923 </v>
   <v>      -0.03703704       0.33333333       0.23076923 </v>
   <v>       0.00000000       0.40000000       0.23076923 </v>
   <v>       0.03703704       0.40000000       0.23076923 </v>
   <v>       0.07407407       0.40000000       0.23076923 </v>
   <v>       0.11111111       0.40000000       0.23076923 </v>
   <v>       0.14814815       0.40000000       0.23076923 </v>
   <v>       0.18518519       0.40000000       0.23076923 </v>
   <v>       0.22222222       0.40000000       0.23076923 </v>
   <v>       0.25925926       0.40000000       0.23076923 </v>
   <v>       0.29629630       0.40000000       0.23076923 </v>
   <v>       0.33333333       0.40000000       0.23076923 </v>
   <v>       0.37037037       0.40000000       0.23076923 </v>
   <v>       0.40740741       0.40000000       0.23076923 </v>
   <v>       0.44444444       0.40000000       0.23076923 </v>
   <v>       0.48148148       0.40000000       0.23076923 </v>
   <v>      -0.48148148       0.40000000       0.23076923 </v>
   <v>      -0.44444444       0.40000000       0.23076923 </v>
   <v>      -0.40740741       0.40000000       0.23076923 </v>
   <v>      -0.37037037       0.40000000       0.23076923 </v>
   <v>      -0.33333333       0.40000000       0.23076923 </v>
   <v>      -0.29629630       0.40000000       0.23076923 </v>
   <v>      -0.25925926       0.40000000       0.23076923 </v>
   <v>      -0.22222222       0.40000000       0.23076923 </v>
   <v>      -0.18518519       0.40000000       0.23076923 </v>
   <v>      -0.14814815       0.40000000       0.23076923 </v>
   <v>      -0.11111111       0.40000000       0.23076923 </v>
   <v>      -0.07407407       0.40000000       0.23076923 </v>
   <v>      -0.03703704       0.40000000       0.23076923 </v>
   <v>       0.00000000       0.46666667       0.23076923 </v>
   <v>       0.03703704       0.46666667       0.23076923 </v>
   <v>       0.07407407       0.46666667       0.23076923 </v>
   <v>       0.11111111       0.46666667       0.23076923 </v>
   <v>       0.14814815       0.46666667       0.23076923 </v>
   <v>       0.18518519       0.46666667       0.23076923 </v>
   <v>       0.22222222       0.46666667       0.23076923 </v>
   <v>       0.25925926       0.46666667       0.23076923 </v>
   <v>       0.29629630       0.46666667       0.23076923 </v>
   <v>       0.33333333       0.46666667       0.23076923 </v>
   <v>       0.37037037       0.46666667       0.23076923 </v>
   <v>       0.40740741       0.46666667       0.23076923 </v>
   <v>       0.44444444       0.46666667       0.23076923 </v>
   <v>       0.48148148       0.46666667       0.23076923 </v>
   <v>      -0.48148148       0.46666667       0.23076923 </v>
   <v>      -0.44444444       0.46666667       0.23076923 </v>
   <v>      -0.40740741       0.46666667       0.23076923 </v>
   <v>      -0.37037037       0.46666667       0.23076923 </v>
   <v>      -0.33333333       0.46666667       0.23076923 </v>
   <v>      -0.29629630       0.46666667       0.23076923 </v>
   <v>      -0.25925926       0.46666667       0.23076923 </v>
   <v>      -0.22222222       0.46666667       0.23076923 </v>
   <v>      -0.18518519       0.46666667       0.23076923 </v>
   <v>      -0.14814815       0.46666667       0.23076923 </v>
   <v>      -0.11111111       0.46666667       0.23076923 </v>
   <v>      -0.07407407       0.46666667       0.23076923 </v>
   <v>      -0.03703704       0.46666667       0.23076923 </v>
   <v>       0.00000000      -0.46666667       0.23076923 </v>
   <v>       0.03703704      -0.46666667       0.23076923 </v>
   <v>       0.07407407      -0.46666667       0.23076923 </v>
   <v>       0.11111111      -0.46666667       0.23076923 </v>
   <v>       0.14814815      -0.46666667       0.23076923 </v>
   <v>       0.18518519      -0.46666667       0.23076923 </v>
   <v>       0.22222222      -0.46666667       0.23076923 </v>
   <v>       0.25925926      -0.46666667       0.23076923 </v>
   <v>       0.29629630      -0.46666667       0.23076923 </v>
   <v>       0.33333333      -0.46666667       0.23076923 </v>
   <v>       0.37037037      -0.46666667       0.23076923 </v>
   <v>       0.40740741      -0.46666667       0.23076923 </v>
   <v>       0.44444444      -0.46666667       0.23076923 </v>
[...]
       <r>    3.4262    1.0000 </r>
       <r>    3.6747    1.0000 </r>
       <r>    3.6972    1.0000 </r>
       <r>    3.9642    1.0000 </r>
       <r>    4.2881    1.0000 </r>
       <r>    4.5045    1.0000 </r>
       <r>    4.7042    1.0000 </r>
       <r>    4.8191    1.0000 </r>
       <r>    4.9126    1.0000 </r>
       <r>    5.1228    1.0000 </r>
       <r>    5.3522    1.0000 </r>
       <r>    5.4136    1.0000 </r>
       <r>    5.5640    1.0000 </r>
       <r>    5.5883    1.0000 </r>
       <r>    5.6533    1.0000 </r>
       <r>    5.7313    1.0000 </r>
       <r>    5.8373    1.0000 </r>
       <r>    5.9914    1.0000 </r>
       <r>    6.0667    1.0000 </r>
       <r>    6.2954    1.0000 </r>
       <r>    7.9049    0.3725 </r>
       <r>    8.8588    0.0000 </r>
       <r>   11.2807    0.0000 </r>
       <r>   12.0087    0.0000 </r>
       <r>   13.7624    0.0000 </r>
       <r>   15.3014    0.0000 </r>
       <r>   14.5593    0.0000 </r>
       <r>   14.5120    0.0000 </r>
       <r>   16.3734    0.0000 </r>
      </set>
      <set comment="kpoint 2632">
       <r>   -0.1834    1.0000 </r>
       <r>    0.9439    1.0000 </r>
       <r>    1.6724    1.0000 </r>
       <r>    1.9467    1.0000 </r>
       <r>    2.2970    1.0000 </r>
       <r>    2.7766    1.0000 </r>
       <r>    3.3376    1.0000 </r>
       <r>    3.5371    1.0000 </r>
       <r>    3.6638    1.0000 </r>
       <r>    3.7824    1.0000 </r>
       <r>    4.1081    1.0000 </r>
       <r>    4.2943    1.0000 </r>
       <r>    4.5198    1.0000 </r>
       <r>    4.7034    1.0000 </r>
       <r>    4.7590    1.0000 </r>
       <r>    4.9132    1.0000 </r>
       <r>    5.1942    1.0000 </r>
       <r>    5.3421    1.0000 </r>
       <r>    5.4368    1.0000 </r>
       <r>    5.5494    1.0000 </r>
       <r>    5.5923    1.0000 </r>
       <r>    5.6937    1.0000 </r>
       <r>    5.7363    1.0000 </r>
       <r>    5.7849    1.0000 </r>
       <r>    5.9205    1.0000 </r>
       <r>    6.1091    1.0000 </r>
       <r>    6.2947    1.0000 </r>
       <r>    7.5502    1.0279 </r>
       <r>    8.9987    0.0000 </r>
       <r>   11.2889    0.0000 </r>
       <r>   11.8667    0.0000 </r>
       <r>   13.2345    0.0000 </r>
       <r>   14.8087    0.0000 </r>
       <r>   14.6538    0.0000 </r>
       <r>   15.8015    0.0000 </r>
       <r>   16.9807    0.0000 </r>
      </set>
      <set comment="kpoint 2633">
       <r>   -0.2479    1.0000 </r>
       <r>    0.7970    1.0000 </r>
       <r>    1.5882    1.0000 </r>
       <r>    1.8679    1.0000 </r>
       <r>    2.2924    1.0000 </r>
       <r>    2.7425    1.0000 </r>
       <r>    3.4463    1.0000 </r>
       <r>    3.5927    1.0000 </r>
       <r>    3.6261    1.0000 </r>
       <r>    3.8484    1.0000 </r>
       <r>    4.2279    1.0000 </r>
       <r>    4.2852    1.0000 </r>
       <r>    4.5674    1.0000 </r>
       <r>    4.6742    1.0000 </r>
       <r>    4.7287    1.0000 </r>
       <r>    4.9051    1.0000 </r>
       <r>    5.2624    1.0000 </r>
       <r>    5.3566    1.0000 </r>
       <r>    5.4347    1.0000 </r>
       <r>    5.4968    1.0000 </r>
       <r>    5.5661    1.0000 </r>
       <r>    5.7010    1.0000 </r>
       <r>    5.7333    1.0000 </r>
       <r>    5.8542    1.0000 </r>
       <r>    5.8872    1.0000 </r>
       <r>    6.1839    1.0000 </r>
       <r>    6.2981    1.0000 </r>
       <r>    7.2355    1.0061 </r>
       <r>    9.1867    0.0000 </r>
       <r>   11.2847    0.0000 </r>
       <r>   11.8478    0.0000 </r>
       <r>   12.8156    0.0000 </r>
       <r>   14.3681    0.0000 </r>
       <r>   14.6349    0.0000 </r>
       <r>   16.9025    0.0000 </r>
       <r>   17.0187    0.0000 </r>
      </set>
     </set>
    </set>
   </array>
  </eigenvalues>
  <separator name="orbital magnetization" >
   <v name="MAGDIPOLOUT">      0.00000000      0.00000000      0.00000000</v>
  </separator>
  <dos>
   <i name="efermi">      7.85913194 </i>
   <total>
    <array>
     <dimension dim="1">gridpoints</dimension>
     <dimension dim="2">spin</dimension>
     <field>energy</field>
     <field>total</field>
     <field>integrated</field>
     <set>
      <set comment="spin 1">
       <r>    -4.1235     0.0000     0.0000 </r>
       <r>    -4.0343     0.0000     0.0000 </r>
       <r>    -3.9450     0.0000     0.0000 </r>
       <r>    -3.8558     0.0000     0.0000 </r>
       <r>    -3.7665     0.0000     0.0000 </r>
       <r>    -3.6773     0.0000     0.0000 </r>
       <r>    -3.5881     0.0000     0.0000 </r>
       <r>    -3.4988     0.0000     0.0000 </r>
       <r>    -3.4096     0.0000     0.0000 </r>
       <r>    -3.3203     0.0000     0.0000 </r>
       <r>    -3.2311     0.0000     0.0000 </r>
       <r>    -3.1418     0.0000     0.0000 </r>
       <r>    -3.0526     0.0000     0.0000 </r>
       <r>    -2.9634     0.0000     0.0000 </r>
       <r>    -2.8741     0.0000     0.0000 </r>
       <r>    -2.7849     0.0000     0.0000 </r>
       <r>    -2.6956     0.0000     0.0000 </r>
       <r>    -2.6064     0.0000     0.0000 </r>
       <r>    -2.5172     0.0000     0.0000 </r>
       <r>    -2.4279     0.0000     0.0000 </r>
       <r>    -2.3387     0.0000     0.0000 </r>
       <r>    -2.2494     0.0000     0.0000 </r>
       <r>    -2.1602     0.0000     0.0000 </r>
       <r>    -2.0709     0.0000     0.0000 </r>
       <r>    -1.9817     0.0000     0.0000 </r>
       <r>    -1.8925     0.0000     0.0000 </r>
       <r>    -1.8032    -0.0002     0.0000 </r>
       <r>    -1.7140    -0.0006    -0.0001 </r>
       <r>    -1.6247    -0.0016    -0.0002 </r>
       <r>    -1.5355    -0.0035    -0.0005 </r>
       <r>    -1.4463    -0.0058    -0.0010 </r>
       <r>    -1.3570    -0.0061    -0.0016 </r>
       <r>    -1.2678     0.0005    -0.0015 </r>
       <r>    -1.1785     0.0199     0.0002 </r>
       <r>    -1.0893     0.0550     0.0051 </r>
       <r>    -1.0000     0.1033     0.0144 </r>
       <r>    -0.9108     0.1573     0.0284 </r>
       <r>    -0.8216     0.2093     0.0471 </r>
       <r>    -0.7323     0.2553     0.0699 </r>
       <r>    -0.6431     0.2956     0.0962 </r>
       <r>    -0.5538     0.3333     0.1260 </r>
       <r>    -0.4646     0.3717     0.1592 </r>
       <r>    -0.3754     0.4121     0.1959 </r>
       <r>    -0.2861     0.4530     0.2364 </r>
       <r>    -0.1969     0.4909     0.2802 </r>
       <r>    -0.1076     0.5231     0.3269 </r>
       <r>    -0.0184     0.5492     0.3759 </r>
       <r>     0.0709     0.5717     0.4269 </r>
       <r>     0.1601     0.5937     0.4799 </r>
       <r>     0.2493     0.6162     0.5349 </r>
       <r>     0.3386     0.6358     0.5916 </r>
       <r>     0.4278     0.6477     0.6494 </r>
       <r>     0.5171     0.6497     0.7074 </r>
       <r>     0.6063     0.6447     0.7649 </r>
       <r>     0.6956     0.6384     0.8219 </r>
       <r>     0.7848     0.6384     0.8789 </r>
       <r>     0.8740     0.6563     0.9374 </r>
       <r>     0.9633     0.7098     1.0008 </r>
       <r>     1.0525     0.8184     1.0738 </r>
       <r>     1.1418     0.9951     1.1626 </r>
       <r>     1.2310     1.2475     1.2739 </r>
       <r>     1.3202     1.5963     1.4164 </r>
       <r>     1.4095     2.0870     1.6026 </r>
       <r>     1.4987     2.7675     1.8496 </r>
       <r>     1.5880     3.6386     2.1743 </r>
       <r>     1.6772     4.6255     2.5871 </r>
       <r>     1.7665     5.6072     3.0875 </r>
       <r>     1.8557     6.4770     3.6655 </r>
       <r>     1.9449     7.1789     4.3062 </r>
       <r>     2.0342     7.6922     4.9927 </r>
       <r>     2.1234     7.9837     5.7051 </r>
       <r>     2.2127     7.9812     6.4174 </r>
       <r>     2.3019     7.6281     7.0981 </r>
       <r>     2.3911     7.0151     7.7242 </r>
       <r>     2.4804     6.4607     8.3007 </r>
       <r>     2.5696     6.3954     8.8715 </r>
       <r>     2.6589     7.0785     9.5032 </r>
       <r>     2.7481     8.3701    10.2501 </r>
       <r>     2.8374     9.7594    11.1211 </r>
       <r>     2.9266    10.6466    12.0712 </r>
       <r>     3.0158    10.6925    13.0254 </r>
       <r>     3.1051    10.0066    13.9184 </r>
       <r>     3.1943     9.0531    14.7263 </r>
       <r>     3.2836     8.3473    15.4713 </r>
       <r>     3.3728     8.1569    16.1992 </r>
       <r>     3.4620     8.3852    16.9475 </r>
       <r>     3.5513     8.6646    17.7208 </r>
       <r>     3.6405     8.5867    18.4871 </r>
       <r>     3.7298     7.9469    19.1962 </r>
       <r>     3.8190     6.8693    19.8093 </r>
       <r>     3.9083     5.7345    20.3210 </r>
       <r>     3.9975     4.9566    20.7634 </r>
       <r>     4.0867     4.7534    21.1876 </r>
       <r>     4.1760     5.0622    21.6393 </r>
       <r>     4.2652     5.6660    22.1450 </r>
       <r>     4.3545     6.4230    22.7182 </r>
       <r>     4.4437     7.3791    23.3767 </r>
       <r>     4.5329     8.6556    24.1491 </r>
       <r>     4.6222    10.2420    25.0631 </r>
       <r>     4.7114    11.9087    26.1259 </r>
       <r>     4.8007    13.3035    27.3131 </r>
       <r>     4.8899    14.1415    28.5751 </r>
       <r>     4.9792    14.3568    29.8564 </r>
       <r>     5.0684    14.1328    31.1176 </r>
       <r>     5.1576    13.8045    32.3495 </r>
       <r>     5.2469    13.7019    33.5723 </r>
       <r>     5.3361    14.0127    34.8228 </r>
       <r>     5.4254    14.7119    36.1357 </r>
       <r>     5.5146    15.5919    37.5272 </r>
       <r>     5.6038    16.4115    38.9918 </r>
       <r>     5.6931    17.0921    40.5171 </r>
       <r>     5.7823    17.7859    42.1044 </r>
       <r>     5.8716    18.6870    43.7720 </r>
       <r>     5.9608    19.6884    45.5290 </r>
       <r>     6.0501    20.2004    47.3318 </r>
       <r>     6.1393    19.3942    49.0625 </r>
       <r>     6.2285    16.7891    50.5608 </r>
       <r>     6.3178    12.7314    51.6970 </r>
       <r>     6.4070     8.3042    52.4381 </r>
       <r>     6.4963     4.6809    52.8558 </r>
       <r>     6.5855     2.4614    53.0755 </r>
       <r>     6.6747     1.5132    53.2105 </r>
       <r>     6.7640     1.3178    53.3281 </r>
       <r>     6.8532     1.4021    53.4532 </r>
       <r>     6.9425     1.5232    53.5892 </r>
       <r>     7.0317     1.6094    53.7328 </r>
       <r>     7.1210     1.6482    53.8799 </r>
       <r>     7.2102     1.6382    54.0261 </r>
       <r>     7.2994     1.5932    54.1683 </r>
       <r>     7.3887     1.5406    54.3057 </r>
       <r>     7.4779     1.5043    54.4400 </r>
       <r>     7.5672     1.4892    54.5729 </r>
       <r>     7.6564     1.4829    54.7052 </r>
       <r>     7.7456     1.4695    54.8364 </r>
       <r>     7.8349     1.4452    54.9653 </r>
       <r>     7.9241     1.4229    55.0923 </r>
       <r>     8.0134     1.4196    55.2190 </r>
       <r>     8.1026     1.4398    55.3475 </r>
       <r>     8.1919     1.4693    55.4786 </r>
       <r>     8.2811     1.4861    55.6112 </r>
       <r>     8.3703     1.4773    55.7431 </r>
       <r>     8.4596     1.4471    55.8722 </r>
       <r>     8.5488     1.4123    55.9983 </r>
       <r>     8.6381     1.3891    56.1222 </r>
       <r>     8.7273     1.3834    56.2457 </r>
       <r>     8.8165     1.3885    56.3696 </r>
       <r>     8.9058     1.3905    56.4937 </r>
       <r>     8.9950     1.3777    56.6166 </r>
       <r>     9.0843     1.3478    56.7369 </r>
       <r>     9.1735     1.3092    56.8537 </r>
       <r>     9.2628     1.2758    56.9676 </r>
       <r>     9.3520     1.2578    57.0798 </r>
       <r>     9.4412     1.2569    57.1920 </r>
       <r>     9.5305     1.2645    57.3049 </r>
       <r>     9.6197     1.2670    57.4179 </r>
       <r>     9.7090     1.2531    57.5298 </r>
       <r>     9.7982     1.2203    57.6387 </r>
       <r>     9.8874     1.1762    57.7436 </r>
       <r>     9.9767     1.1335    57.8448 </r>
       <r>    10.0659     1.1019    57.9431 </r>
       <r>    10.1552     1.0841    58.0399 </r>
       <r>    10.2444     1.0750    58.1358 </r>
       <r>    10.3337     1.0666    58.2310 </r>
       <r>    10.4229     1.0537    58.3250 </r>
       <r>    10.5121     1.0361    58.4175 </r>
       <r>    10.6014     1.0155    58.5081 </r>
       <r>    10.6906     0.9913    58.5966 </r>
       <r>    10.7799     0.9624    58.6825 </r>
       <r>    10.8691     0.9356    58.7660 </r>
       <r>    10.9583     0.9284    58.8488 </r>
       <r>    11.0476     0.9598    58.9345 </r>
       <r>    11.1368     1.0358    59.0269 </r>
       <r>    11.2261     1.1444    59.1290 </r>
       <r>    11.3153     1.2641    59.2418 </r>
       <r>    11.4046     1.3759    59.3646 </r>
       <r>    11.4938     1.4673    59.4956 </r>
       <r>    11.5830     1.5296    59.6321 </r>
       <r>    11.6723     1.5562    59.7710 </r>
       <r>    11.7615     1.5468    59.9090 </r>
       <r>    11.8508     1.5117    60.0439 </r>
       <r>    11.9400     1.4703    60.1751 </r>
       <r>    12.0292     1.4431    60.3039 </r>
       <r>    12.1185     1.4415    60.4326 </r>
       <r>    12.2077     1.4615    60.5630 </r>
       <r>    12.2970     1.4861    60.6956 </r>
       <r>    12.3862     1.4980    60.8293 </r>
       <r>    12.4755     1.4938    60.9626 </r>
       <r>    12.5647     1.4836    61.0950 </r>
       <r>    12.6539     1.4774    61.2268 </r>
       <r>    12.7432     1.4725    61.3583 </r>
       <r>    12.8324     1.4573    61.4883 </r>
       <r>    12.9217     1.4243    61.6154 </r>
       <r>    13.0109     1.3788    61.7385 </r>
       <r>    13.1001     1.3370    61.8578 </r>
       <r>    13.1894     1.3163    61.9753 </r>
       <r>    13.2786     1.3264    62.0936 </r>
       <r>    13.3679     1.3636    62.2153 </r>
       <r>    13.4571     1.4135    62.3415 </r>
       <r>    13.5464     1.4658    62.4723 </r>
       <r>    13.6356     1.5383    62.6096 </r>
       <r>    13.7248     1.6847    62.7599 </r>
       <r>    13.8141     1.9666    62.9354 </r>
       <r>    13.9033     2.3978    63.1494 </r>
       <r>    13.9926     2.9093    63.4090 </r>
       <r>    14.0818     3.3764    63.7103 </r>
       <r>    14.1710     3.6914    64.0398 </r>
       <r>    14.2603     3.8199    64.3807 </r>
       <r>    14.3495     3.7986    64.7197 </r>
       <r>    14.4388     3.6918    65.0491 </r>
       <r>    14.5280     3.5544    65.3663 </r>
       <r>    14.6173     3.4201    65.6715 </r>
       <r>    14.7065     3.3061    65.9666 </r>
       <r>    14.7957     3.2200    66.2539 </r>
       <r>    14.8850     3.1640    66.5363 </r>
       <r>    14.9742     3.1357    66.8161 </r>
       <r>    15.0635     3.1253    67.0950 </r>
       <r>    15.1527     3.1196    67.3734 </r>
       <r>    15.2419     3.1132    67.6513 </r>
       <r>    15.3312     3.1159    67.9293 </r>
       <r>    15.4204     3.1451    68.2100 </r>
       <r>    15.5097     3.2134    68.4968 </r>
       <r>    15.5989     3.3343    68.7943 </r>
       <r>    15.6882     3.5332    69.1097 </r>
       <r>    15.7774     3.8260    69.4511 </r>
       <r>    15.8666     4.1534    69.8218 </r>
       <r>    15.9559     4.3340    70.2085 </r>
       <r>    16.0451     4.1355    70.5776 </r>
       <r>    16.1344     3.4584    70.8862 </r>
       <r>    16.2236     2.4633    71.1061 </r>
       <r>    16.3128     1.4863    71.2387 </r>
       <r>    16.4021     0.8048    71.3105 </r>
       <r>    16.4913     0.4828    71.3536 </r>
       <r>    16.5806     0.4111    71.3903 </r>
       <r>    16.6698     0.4426    71.4298 </r>
       <r>    16.7591     0.4824    71.4728 </r>
       <r>    16.8483     0.4956    71.5171 </r>
       <r>    16.9375     0.4799    71.5599 </r>
       <r>    17.0268     0.4448    71.5996 </r>
       <r>    17.1160     0.4028    71.6355 </r>
       <r>    17.2053     0.3657    71.6682 </r>
       <r>    17.2945     0.3406    71.6986 </r>
       <r>    17.3837     0.3258    71.7277 </r>
       <r>    17.4730     0.3131    71.7556 </r>
       <r>    17.5622     0.2959    71.7820 </r>
       <r>    17.6515     0.2750    71.8065 </r>
       <r>    17.7407     0.2550    71.8293 </r>
       <r>    17.8300     0.2373    71.8505 </r>
       <r>    17.9192     0.2182    71.8700 </r>
       <r>    18.0084     0.1949    71.8874 </r>
       <r>    18.0977     0.1692    71.9024 </r>
       <r>    18.1869     0.1458    71.9155 </r>
       <r>    18.2762     0.1275    71.9268 </r>
       <r>    18.3654     0.1140    71.9370 </r>
       <r>    18.4546     0.1041    71.9463 </r>
       <r>    18.5439     0.0967    71.9549 </r>
       <r>    18.6331     0.0899    71.9630 </r>
       <r>    18.7224     0.0811    71.9702 </r>
       <r>    18.8116     0.0688    71.9763 </r>
       <r>    18.9009     0.0551    71.9813 </r>
       <r>    18.9901     0.0441    71.9852 </r>
       <r>    19.0793     0.0379    71.9886 </r>
       <r>    19.1686     0.0347    71.9917 </r>
       <r>    19.2578     0.0310    71.9944 </r>
       <r>    19.3471     0.0251    71.9967 </r>
       <r>    19.4363     0.0177    71.9982 </r>
       <r>    19.5255     0.0109    71.9992 </r>
       <r>    19.6148     0.0059    71.9998 </r>
       <r>    19.7040     0.0028    72.0000 </r>
       <r>    19.7933     0.0010    72.0001 </r>
       <r>    19.8825     0.0001    72.0001 </r>
       <r>    19.9718    -0.0003    72.0001 </r>
       <r>    20.0610    -0.0003    72.0000 </r>
       <r>    20.1502    -0.0002    72.0000 </r>
       <r>    20.2395    -0.0001    72.0000 </r>
       <r>    20.3287     0.0000    72.0000 </r>
       <r>    20.4180     0.0000    72.0000 </r>
       <r>    20.5072     0.0000    72.0000 </r>
       <r>    20.5964     0.0000    72.0000 </r>
       <r>    20.6857     0.0000    72.0000 </r>
       <r>    20.7749     0.0000    72.0000 </r>
       <r>    20.8642     0.0000    72.0000 </r>
       <r>    20.9534     0.0000    72.0000 </r>
       <r>    21.0427     0.0000    72.0000 </r>
       <r>    21.1319     0.0000    72.0000 </r>
       <r>    21.2211     0.0000    72.0000 </r>
       <r>    21.3104     0.0000    72.0000 </r>
       <r>    21.3996     0.0000    72.0000 </r>
       <r>    21.4889     0.0000    72.0000 </r>
       <r>    21.5781     0.0000    72.0000 </r>
       <r>    21.6673     0.0000    72.0000 </r>
       <r>    21.7566     0.0000    72.0000 </r>
       <r>    21.8458     0.0000    72.0000 </r>
       <r>    21.9351     0.0000    72.0000 </r>
       <r>    22.0243     0.0000    72.0000 </r>
       <r>    22.1136     0.0000    72.0000 </r>
       <r>    22.2028     0.0000    72.0000 </r>
       <r>    22.2920     0.0000    72.0000 </r>
       <r>    22.3813     0.0000    72.0000 </r>
       <r>    22.4705     0.0000    72.0000 </r>
       <r>    22.5598     0.0000    72.0000 </r>
       <r>    22.6490     0.0000    72.0000 </r>
      </set>
     </set>
    </array>
   </total>
  </dos>
 </calculation>
 <structure name="finalpos" >
  <crystal>
   <varray name="basis" >
    <v>       0.00000000      -1.98062351      -1.98062351 </v>
    <v>      -1.78282201       4.03227728      -2.05165377 </v>
    <v>       5.37913112       2.01667289      -0.03604938 </v>
   </varray>
   <i name="volume">     72.06677146 </i>
   <varray name="rec_basis" >
    <v>       0.05539520      -0.15402916      -0.35086235 </v>
    <v>      -0.05641532       0.14783559      -0.14783559 </v>
    <v>       0.16720573       0.04899760      -0.04899760 </v>
   </varray>
  </crystal>
  <varray name="positions" >
   <v>       0.62420883       0.42997677       0.81844088 </v>
   <v>       0.40391074       0.60594386       0.20187761 </v>
   <v>       0.17474444       0.76420719       0.58528168 </v>
   <v>       0.80880954       0.19749676       0.42012232 </v>
   <v>       0.98832645       0.00237541       0.97427749 </v>
  </varray>
 </structure>
</modeling>
