<?xml version="1.0" encoding="ISO-8859-1"?>
<modeling>
 <generator>
  <i name="program" type="string">vasp </i>
  <i name="version" type="string">5.3.5  </i>
  <i name="subversion" type="string">31Mar14 (build Jun 20 2014 13:15:13) complex                          parallel </i>
  <i name="platform" type="string">LinuxIFC </i>
  <i name="date" type="string">2025 11 21 </i>
  <i name="time" type="string">11:45:24 </i>
 </generator>
 <incar>
  <i type="string" name="PREC">accurate</i>
  <i type="int" name="IALGO">    68</i>
  <i type="logical" name="ADDGRID"> T  </i>
  <i type="int" name="NELM">   100</i>
  <i type="int" name="NELMIN">     4</i>
  <i type="int" name="IBRION">     2</i>
  <i name="EDIFF">      0.00000100</i>
  <i name="EDIFFG">     -0.02000000</i>
  <i type="int" name="NSW">    30</i>
  <i type="int" name="ISIF">     3</i>
  <i name="ENCUT">    500.00000000</i>
  <i type="logical" name="LREAL"> F  </i>
  <i type="int" name="ISMEAR">     1</i>
  <i name="SIGMA">      0.30000000</i>
  <i type="logical" name="LWAVE"> F  </i>
  <i type="logical" name="LCHARG"> F  </i>
  <i type="int" name="NELM">   100</i>
 </incar>
 <kpoints>
  <generation param="Auto">
   <i name="subdivisionlength">     70.00000000 </i>
   <v type="int" name="divisions">      24       17        8 </v>
   <v name="usershift">      0.00000000       0.00000000       0.00000000 </v>
   <v name="genvec1">      0.04166667       0.00000000       0.00000000 </v>
   <v name="genvec2">      0.00000000       0.05882353       0.00000000 </v>
   <v name="genvec3">      0.00000000       0.00000000       0.12500000 </v>
   <v name="shift">      0.00000000       0.00000000       0.00000000 </v>
  </generation>
  <varray name="kpointlist" >
   <v>       0.00000000       0.00000000       0.00000000 </v>
   <v>       0.04166667       0.00000000       0.00000000 </v>
   <v>       0.08333333       0.00000000       0.00000000 </v>
   <v>       0.12500000       0.00000000       0.00000000 </v>
   <v>       0.16666667       0.00000000       0.00000000 </v>
   <v>       0.20833333       0.00000000       0.00000000 </v>
   <v>       0.25000000       0.00000000       0.00000000 </v>
   <v>       0.29166667       0.00000000       0.00000000 </v>
   <v>       0.33333333       0.00000000       0.00000000 </v>
   <v>       0.37500000       0.00000000       0.00000000 </v>
   <v>       0.41666667       0.00000000       0.00000000 </v>
   <v>       0.45833333       0.00000000       0.00000000 </v>
   <v>       0.50000000       0.00000000       0.00000000 </v>
   <v>       0.00000000       0.05882353       0.00000000 </v>
   <v>       0.04166667       0.05882353       0.00000000 </v>
   <v>       0.08333333       0.05882353       0.00000000 </v>
   <v>       0.12500000       0.05882353       0.00000000 </v>
   <v>       0.16666667       0.05882353       0.00000000 </v>
   <v>       0.20833333       0.05882353       0.00000000 </v>
   <v>       0.25000000       0.05882353       0.00000000 </v>
   <v>       0.29166667       0.05882353       0.00000000 </v>
   <v>       0.33333333       0.05882353       0.00000000 </v>
   <v>       0.37500000       0.05882353       0.00000000 </v>
   <v>       0.41666667       0.05882353       0.00000000 </v>
   <v>       0.45833333       0.05882353       0.00000000 </v>
   <v>       0.50000000       0.05882353       0.00000000 </v>
   <v>       0.00000000       0.11764706       0.00000000 </v>
   <v>       0.04166667       0.11764706       0.00000000 </v>
   <v>       0.08333333       0.11764706       0.00000000 </v>
   <v>       0.12500000       0.11764706       0.00000000 </v>
   <v>       0.16666667       0.11764706       0.00000000 </v>
   <v>       0.20833333       0.11764706       0.00000000 </v>
   <v>       0.25000000       0.11764706       0.00000000 </v>
   <v>       0.29166667       0.11764706       0.00000000 </v>
   <v>       0.33333333       0.11764706       0.00000000 </v>
   <v>       0.37500000       0.11764706       0.00000000 </v>
   <v>       0.41666667       0.11764706       0.00000000 </v>
   <v>       0.45833333       0.11764706       0.00000000 </v>
   <v>       0.50000000       0.11764706       0.00000000 </v>
   <v>       0.00000000       0.17647059       0.00000000 </v>
   <v>       0.04166667       0.17647059       0.00000000 </v>
   <v>       0.08333333       0.17647059       0.00000000 </v>
   <v>       0.12500000       0.17647059       0.00000000 </v>
   <v>       0.16666667       0.17647059       0.00000000 </v>
   <v>       0.20833333       0.17647059       0.00000000 </v>
   <v>       0.25000000       0.17647059       0.00000000 </v>
   <v>       0.29166667       0.17647059       0.00000000 </v>
   <v>       0.33333333       0.17647059       0.00000000 </v>
   <v>       0.37500000       0.17647059       0.00000000 </v>
   <v>       0.41666667       0.17647059       0.00000000 </v>
   <v>       0.45833333       0.17647059       0.00000000 </v>
   <v>       0.50000000       0.17647059       0.00000000 </v>
   <v>       0.00000000       0.23529412       0.00000000 </v>
   <v>       0.04166667       0.23529412       0.00000000 </v>
   <v>       0.08333333       0.23529412       0.00000000 </v>
   <v>       0.12500000       0.23529412       0.00000000 </v>
   <v>       0.16666667       0.23529412       0.00000000 </v>
   <v>       0.20833333       0.23529412       0.00000000 </v>
   <v>       0.25000000       0.23529412       0.00000000 </v>
   <v>       0.29166667       0.23529412       0.00000000 </v>
   <v>       0.33333333       0.23529412       0.00000000 </v>
   <v>       0.37500000       0.23529412       0.00000000 </v>
   <v>       0.41666667       0.23529412       0.00000000 </v>
   <v>       0.45833333       0.23529412       0.00000000 </v>
   <v>       0.50000000       0.23529412       0.00000000 </v>
   <v>       0.00000000       0.29411765       0.00000000 </v>
   <v>       0.04166667       0.29411765       0.00000000 </v>
   <v>       0.08333333       0.29411765       0.00000000 </v>
   <v>       0.12500000       0.29411765       0.00000000 </v>
   <v>       0.16666667       0.29411765       0.00000000 </v>
   <v>       0.20833333       0.29411765       0.00000000 </v>
   <v>       0.25000000       0.29411765       0.00000000 </v>
   <v>       0.29166667       0.29411765       0.00000000 </v>
   <v>       0.33333333       0.29411765       0.00000000 </v>
   <v>       0.37500000       0.29411765       0.00000000 </v>
   <v>       0.41666667       0.29411765       0.00000000 </v>
   <v>       0.45833333       0.29411765       0.00000000 </v>
   <v>       0.50000000       0.29411765       0.00000000 </v>
   <v>       0.00000000       0.35294118       0.00000000 </v>
   <v>       0.04166667       0.35294118       0.00000000 </v>
   <v>       0.08333333       0.35294118       0.00000000 </v>
   <v>       0.12500000       0.35294118       0.00000000 </v>
   <v>       0.16666667       0.35294118       0.00000000 </v>
   <v>       0.20833333       0.35294118       0.00000000 </v>
   <v>       0.25000000       0.35294118       0.00000000 </v>
   <v>       0.29166667       0.35294118       0.00000000 </v>
   <v>       0.33333333       0.35294118       0.00000000 </v>
   <v>       0.37500000       0.35294118       0.00000000 </v>
   <v>       0.41666667       0.35294118       0.00000000 </v>
   <v>       0.45833333       0.35294118       0.00000000 </v>
   <v>       0.50000000       0.35294118       0.00000000 </v>
   <v>       0.00000000       0.41176471       0.00000000 </v>
   <v>       0.04166667       0.41176471       0.00000000 </v>
   <v>       0.08333333       0.41176471       0.00000000 </v>
   <v>       0.12500000       0.41176471       0.00000000 </v>
   <v>       0.16666667       0.41176471       0.00000000 </v>
   <v>       0.20833333       0.41176471       0.00000000 </v>
   <v>       0.25000000       0.41176471       0.00000000 </v>
   <v>       0.29166667       0.41176471       0.00000000 </v>
   <v>       0.33333333       0.41176471       0.00000000 </v>
   <v>       0.37500000       0.41176471       0.00000000 </v>
   <v>       0.41666667       0.41176471       0.00000000 </v>
   <v>       0.45833333       0.41176471       0.00000000 </v>
   <v>       0.50000000       0.41176471       0.00000000 </v>
   <v>       0.00000000       0.47058824       0.00000000 </v>
   <v>       0.04166667       0.47058824       0.00000000 </v>
   <v>       0.08333333       0.47058824       0.00000000 </v>
   <v>       0.12500000       0.47058824       0.00000000 </v>
   <v>       0.16666667       0.47058824       0.00000000 </v>
   <v>       0.20833333       0.47058824       0.00000000 </v>
   <v>       0.25000000       0.47058824       0.00000000 </v>
   <v>       0.29166667       0.47058824       0.00000000 </v>
   <v>       0.33333333       0.47058824       0.00000000 </v>
   <v>       0.37500000       0.47058824       0.00000000 </v>
   <v>       0.41666667       0.47058824       0.00000000 </v>
   <v>       0.45833333       0.47058824       0.00000000 </v>
   <v>       0.50000000       0.47058824       0.00000000 </v>
   <v>       0.00000000       0.00000000       0.12500000 </v>
   <v>       0.04166667       0.00000000       0.12500000 </v>
   <v>       0.08333333       0.00000000       0.12500000 </v>
   <v>       0.12500000       0.00000000       0.12500000 </v>
   <v>       0.16666667       0.00000000       0.12500000 </v>
   <v>       0.20833333       0.00000000       0.12500000 </v>
   <v>       0.25000000       0.00000000       0.12500000 </v>
   <v>       0.29166667       0.00000000       0.12500000 </v>
   <v>       0.33333333       0.00000000       0.12500000 </v>
   <v>       0.37500000       0.00000000       0.12500000 </v>
   <v>       0.41666667       0.00000000       0.12500000 </v>
   <v>       0.45833333       0.00000000       0.12500000 </v>
   <v>       0.50000000       0.00000000       0.12500000 </v>
   <v>       0.00000000       0.05882353       0.12500000 </v>
   <v>       0.04166667       0.05882353       0.12500000 </v>
   <v>       0.08333333       0.05882353       0.12500000 </v>
   <v>       0.12500000       0.05882353       0.12500000 </v>
   <v>       0.16666667       0.05882353       0.12500000 </v>
   <v>       0.20833333       0.05882353       0.12500000 </v>
   <v>       0.25000000       0.05882353       0.12500000 </v>
   <v>       0.29166667       0.05882353       0.12500000 </v>
   <v>       0.33333333       0.05882353       0.12500000 </v>
   <v>       0.37500000       0.05882353       0.12500000 </v>
   <v>       0.41666667       0.05882353       0.12500000 </v>
   <v>       0.45833333       0.05882353       0.12500000 </v>
   <v>       0.50000000       0.05882353       0.12500000 </v>
   <v>       0.00000000       0.11764706       0.12500000 </v>
   <v>       0.04166667       0.11764706       0.12500000 </v>
   <v>       0.08333333       0.11764706       0.12500000 </v>
   <v>       0.12500000       0.11764706       0.12500000 </v>
   <v>       0.16666667       0.11764706       0.12500000 </v>
   <v>       0.20833333       0.11764706       0.12500000 </v>
   <v>       0.25000000       0.11764706       0.12500000 </v>
   <v>       0.29166667       0.11764706       0.12500000 </v>
   <v>       0.33333333       0.11764706       0.12500000 </v>
   <v>       0.37500000       0.11764706       0.12500000 </v>
   <v>       0.41666667       0.11764706       0.12500000 </v>
   <v>       0.45833333       0.11764706       0.12500000 </v>
   <v>       0.50000000       0.11764706       0.12500000 </v>
   <v>       0.00000000       0.17647059       0.12500000 </v>
   <v>       0.04166667       0.17647059       0.12500000 </v>
   <v>       0.08333333       0.17647059       0.12500000 </v>
   <v>       0.12500000       0.17647059       0.12500000 </v>
   <v>       0.16666667       0.17647059       0.12500000 </v>
   <v>       0.20833333       0.17647059       0.12500000 </v>
   <v>       0.25000000       0.17647059       0.12500000 </v>
   <v>       0.29166667       0.17647059       0.12500000 </v>
   <v>       0.33333333       0.17647059       0.12500000 </v>
   <v>       0.37500000       0.17647059       0.12500000 </v>
   <v>       0.41666667       0.17647059       0.12500000 </v>
   <v>       0.45833333       0.17647059       0.12500000 </v>
   <v>       0.50000000       0.17647059       0.12500000 </v>
   <v>       0.00000000       0.23529412       0.12500000 </v>
   <v>       0.04166667       0.23529412       0.12500000 </v>
   <v>       0.08333333       0.23529412       0.12500000 </v>
   <v>       0.12500000       0.23529412       0.12500000 </v>
   <v>       0.16666667       0.23529412       0.12500000 </v>
   <v>       0.20833333       0.23529412       0.12500000 </v>
   <v>       0.25000000       0.23529412       0.12500000 </v>
   <v>       0.29166667       0.23529412       0.12500000 </v>
   <v>       0.33333333       0.23529412       0.12500000 </v>
   <v>       0.37500000       0.23529412       0.12500000 </v>
   <v>       0.41666667       0.23529412       0.12500000 </v>
   <v>       0.45833333       0.23529412       0.12500000 </v>
   <v>       0.50000000       0.23529412       0.12500000 </v>
   <v>       0.00000000       0.29411765       0.12500000 </v>
   <v>       0.04166667       0.29411765       0.12500000 </v>
   <v>       0.08333333       0.29411765       0.12500000 </v>
   <v>       0.12500000       0.29411765       0.12500000 </v>
   <v>       0.16666667       0.29411765       0.12500000 </v>
   <v>       0.20833333       0.29411765       0.12500000 </v>
   <v>       0.25000000       0.29411765       0.12500000 </v>
   <v>       0.29166667       0.29411765       0.12500000 </v>
   <v>       0.33333333       0.29411765       0.12500000 </v>
   <v>       0.37500000       0.29411765       0.12500000 </v>
   <v>       0.41666667       0.29411765       0.12500000 </v>
   <v>       0.45833333       0.29411765       0.12500000 </v>
   <v>       0.50000000       0.29411765       0.12500000 </v>
   <v>       0.00000000       0.35294118       0.12500000 </v>
   <v>       0.04166667       0.35294118       0.12500000 </v>
   <v>       0.08333333       0.35294118       0.12500000 </v>
   <v>       0.12500000       0.35294118       0.12500000 </v>
   <v>       0.16666667       0.35294118       0.12500000 </v>
   <v>       0.20833333       0.35294118       0.12500000 </v>
   <v>       0.25000000       0.35294118       0.12500000 </v>
   <v>       0.29166667       0.35294118       0.12500000 </v>
   <v>       0.33333333       0.35294118       0.12500000 </v>
   <v>       0.37500000       0.35294118       0.12500000 </v>
   <v>       0.41666667       0.35294118       0.12500000 </v>
   <v>       0.45833333       0.35294118       0.12500000 </v>
   <v>       0.50000000       0.35294118       0.12500000 </v>
   <v>       0.00000000       0.41176471       0.12500000 </v>
   <v>       0.04166667       0.41176471       0.12500000 </v>
   <v>       0.08333333       0.41176471       0.12500000 </v>
   <v>       0.12500000       0.41176471       0.12500000 </v>
   <v>       0.16666667       0.41176471       0.12500000 </v>
   <v>       0.20833333       0.41176471       0.12500000 </v>
   <v>       0.25000000       0.41176471       0.12500000 </v>
   <v>       0.29166667       0.41176471       0.12500000 </v>
   <v>       0.33333333       0.41176471       0.12500000 </v>
   <v>       0.37500000       0.41176471       0.12500000 </v>
   <v>       0.41666667       0.41176471       0.12500000 </v>
   <v>       0.45833333       0.41176471       0.12500000 </v>
   <v>       0.50000000       0.41176471       0.12500000 </v>
   <v>       0.00000000       0.47058824       0.12500000 </v>
   <v>       0.04166667       0.47058824       0.12500000 </v>
   <v>       0.08333333       0.47058824       0.12500000 </v>
   <v>       0.12500000       0.47058824       0.12500000 </v>
   <v>       0.16666667       0.47058824       0.12500000 </v>
   <v>       0.20833333       0.47058824       0.12500000 </v>
   <v>       0.25000000       0.47058824       0.12500000 </v>
   <v>       0.29166667       0.47058824       0.12500000 </v>
   <v>       0.33333333       0.47058824       0.12500000 </v>
   <v>       0.37500000       0.47058824       0.12500000 </v>
   <v>       0.41666667       0.47058824       0.12500000 </v>
   <v>       0.45833333       0.47058824       0.12500000 </v>
   <v>       0.50000000       0.47058824       0.12500000 </v>
   <v>       0.00000000       0.00000000       0.25000000 </v>
   <v>       0.04166667       0.00000000       0.25000000 </v>
   <v>       0.08333333       0.00000000       0.25000000 </v>
   <v>       0.12500000       0.00000000       0.25000000 </v>
   <v>       0.16666667       0.00000000       0.25000000 </v>
   <v>       0.20833333       0.00000000       0.25000000 </v>
   <v>       0.25000000       0.00000000       0.25000000 </v>
   <v>       0.29166667       0.00000000       0.25000000 </v>
   <v>       0.33333333       0.00000000       0.25000000 </v>
   <v>       0.37500000       0.00000000       0.25000000 </v>
   <v>       0.41666667       0.00000000       0.25000000 </v>
   <v>       0.45833333       0.00000000       0.25000000 </v>
   <v>       0.50000000       0.00000000       0.25000000 </v>
   <v>       0.00000000       0.05882353       0.25000000 </v>
   <v>       0.04166667       0.05882353       0.25000000 </v>
   <v>       0.08333333       0.05882353       0.25000000 </v>
   <v>       0.12500000       0.05882353       0.25000000 </v>
   <v>       0.16666667       0.05882353       0.25000000 </v>
   <v>       0.20833333       0.05882353       0.25000000 </v>
   <v>       0.25000000       0.05882353       0.25000000 </v>
   <v>       0.29166667       0.05882353       0.25000000 </v>
   <v>       0.33333333       0.05882353       0.25000000 </v>
   <v>       0.37500000       0.05882353       0.25000000 </v>
   <v>       0.41666667       0.05882353       0.25000000 </v>
   <v>       0.45833333       0.05882353       0.25000000 </v>
   <v>       0.50000000       0.05882353       0.25000000 </v>
   <v>       0.00000000       0.11764706       0.25000000 </v>
   <v>       0.04166667       0.11764706       0.25000000 </v>
   <v>       0.08333333       0.11764706       0.25000000 </v>
   <v>       0.12500000       0.11764706       0.25000000 </v>
   <v>       0.16666667       0.11764706       0.25000000 </v>
   <v>       0.20833333       0.11764706       0.25000000 </v>
   <v>       0.25000000       0.11764706       0.25000000 </v>
   <v>       0.29166667       0.11764706       0.25000000 </v>
   <v>       0.33333333       0.11764706       0.25000000 </v>
   <v>       0.37500000       0.11764706       0.25000000 </v>
   <v>       0.41666667       0.11764706       0.25000000 </v>
   <v>       0.45833333       0.11764706       0.25000000 </v>
   <v>       0.50000000       0.11764706       0.25000000 </v>
   <v>       0.00000000       0.17647059       0.25000000 </v>
   <v>       0.04166667       0.17647059       0.25000000 </v>
   <v>       0.08333333       0.17647059       0.25000000 </v>
   <v>       0.12500000       0.17647059       0.25000000 </v>
   <v>       0.16666667       0.17647059       0.25000000 </v>
   <v>       0.20833333       0.17647059       0.25000000 </v>
   <v>       0.25000000       0.17647059       0.25000000 </v>
   <v>       0.29166667       0.17647059       0.25000000 </v>
   <v>       0.33333333       0.17647059       0.25000000 </v>
   <v>       0.37500000       0.17647059       0.25000000 </v>
   <v>       0.41666667       0.17647059       0.25000000 </v>
   <v>       0.45833333       0.17647059       0.25000000 </v>
   <v>       0.50000000       0.17647059       0.25000000 </v>
   <v>       0.00000000       0.23529412       0.25000000 </v>
   <v>       0.04166667       0.23529412       0.25000000 </v>
   <v>       0.08333333       0.23529412       0.25000000 </v>
   <v>       0.12500000       0.23529412       0.25000000 </v>
   <v>       0.16666667       0.23529412       0.25000000 </v>
   <v>       0.20833333       0.23529412       0.25000000 </v>
   <v>       0.25000000       0.23529412       0.25000000 </v>
   <v>       0.29166667       0.23529412       0.25000000 </v>
   <v>       0.33333333       0.23529412       0.25000000 </v>
   <v>       0.37500000       0.23529412       0.25000000 </v>
   <v>       0.41666667       0.23529412       0.25000000 </v>
   <v>       0.45833333       0.23529412       0.25000000 </v>
   <v>       0.50000000       0.23529412       0.25000000 </v>
   <v>       0.00000000       0.29411765       0.25000000 </v>
   <v>       0.04166667       0.29411765       0.25000000 </v>
   <v>       0.08333333       0.29411765       0.25000000 </v>
   <v>       0.12500000       0.29411765       0.25000000 </v>
   <v>       0.16666667       0.29411765       0.25000000 </v>
   <v>       0.20833333       0.29411765       0.25000000 </v>
   <v>       0.25000000       0.29411765       0.25000000 </v>
   <v>       0.29166667       0.29411765       0.25000000 </v>
   <v>       0.33333333       0.29411765       0.25000000 </v>
   <v>       0.37500000       0.29411765       0.25000000 </v>
   <v>       0.41666667       0.29411765       0.25000000 </v>
   <v>       0.45833333       0.29411765       0.25000000 </v>
   <v>       0.50000000       0.29411765       0.25000000 </v>
   <v>       0.00000000       0.35294118       0.25000000 </v>
   <v>       0.04166667       0.35294118       0.25000000 </v>
   <v>       0.08333333       0.35294118       0.25000000 </v>
   <v>       0.12500000       0.35294118       0.25000000 </v>
   <v>       0.16666667       0.35294118       0.25000000 </v>
   <v>       0.20833333       0.35294118       0.25000000 </v>
   <v>       0.25000000       0.35294118       0.25000000 </v>
   <v>       0.29166667       0.35294118       0.25000000 </v>
   <v>       0.33333333       0.35294118       0.25000000 </v>
   <v>       0.37500000       0.35294118       0.25000000 </v>
   <v>       0.41666667       0.35294118       0.25000000 </v>
   <v>       0.45833333       0.35294118       0.25000000 </v>
   <v>       0.50000000       0.35294118       0.25000000 </v>
   <v>       0.00000000       0.41176471       0.25000000 </v>
   <v>       0.04166667       0.41176471       0.25000000 </v>
   <v>       0.08333333       0.41176471       0.25000000 </v>
   <v>       0.12500000       0.41176471       0.25000000 </v>
   <v>       0.16666667       0.41176471       0.25000000 </v>
   <v>       0.20833333       0.41176471       0.25000000 </v>
   <v>       0.25000000       0.41176471       0.25000000 </v>
   <v>       0.29166667       0.41176471       0.25000000 </v>
   <v>       0.33333333       0.41176471       0.25000000 </v>
   <v>       0.37500000       0.41176471       0.25000000 </v>
   <v>       0.41666667       0.41176471       0.25000000 </v>
   <v>       0.45833333       0.41176471       0.25000000 </v>
   <v>       0.50000000       0.41176471       0.25000000 </v>
   <v>       0.00000000       0.47058824       0.25000000 </v>
   <v>       0.04166667       0.47058824       0.25000000 </v>
   <v>       0.08333333       0.47058824       0.25000000 </v>
   <v>       0.12500000       0.47058824       0.25000000 </v>
   <v>       0.16666667       0.47058824       0.25000000 </v>
   <v>       0.20833333       0.47058824       0.25000000 </v>
   <v>       0.25000000       0.47058824       0.25000000 </v>
   <v>       0.29166667       0.47058824       0.25000000 </v>
   <v>       0.33333333       0.47058824       0.25000000 </v>
   <v>       0.37500000       0.47058824       0.25000000 </v>
   <v>       0.41666667       0.47058824       0.25000000 </v>
   <v>       0.45833333       0.47058824       0.25000000 </v>
   <v>       0.50000000       0.47058824       0.25000000 </v>
   <v>       0.00000000       0.00000000       0.37500000 </v>
   <v>       0.04166667       0.00000000       0.37500000 </v>
   <v>       0.08333333       0.00000000       0.37500000 </v>
   <v>       0.12500000       0.00000000       0.37500000 </v>
   <v>       0.16666667       0.00000000       0.37500000 </v>
   <v>       0.20833333       0.00000000       0.37500000 </v>
   <v>       0.25000000       0.00000000       0.37500000 </v>
   <v>       0.29166667       0.00000000       0.37500000 </v>
   <v>       0.33333333       0.00000000       0.37500000 </v>
   <v>       0.37500000       0.00000000       0.37500000 </v>
   <v>       0.41666667       0.00000000       0.37500000 </v>
   <v>       0.45833333       0.00000000       0.37500000 </v>
   <v>       0.50000000       0.00000000       0.37500000 </v>
   <v>       0.00000000       0.05882353       0.37500000 </v>
   <v>       0.04166667       0.05882353       0.37500000 </v>
   <v>       0.08333333       0.05882353       0.37500000 </v>
   <v>       0.12500000       0.05882353       0.37500000 </v>
   <v>       0.16666667       0.05882353       0.37500000 </v>
   <v>       0.20833333       0.05882353       0.37500000 </v>
   <v>       0.25000000       0.05882353       0.37500000 </v>
   <v>       0.29166667       0.05882353       0.37500000 </v>
   <v>       0.33333333       0.05882353       0.37500000 </v>
   <v>       0.37500000       0.05882353       0.37500000 </v>
   <v>       0.41666667       0.05882353       0.37500000 </v>
   <v>       0.45833333       0.05882353       0.37500000 </v>
   <v>       0.50000000       0.05882353       0.37500000 </v>
   <v>       0.00000000       0.11764706       0.37500000 </v>
   <v>       0.04166667       0.11764706       0.37500000 </v>
   <v>       0.08333333       0.11764706       0.37500000 </v>
   <v>       0.12500000       0.11764706       0.37500000 </v>
   <v>       0.16666667       0.11764706       0.37500000 </v>
   <v>       0.20833333       0.11764706       0.37500000 </v>
   <v>       0.25000000       0.11764706       0.37500000 </v>
   <v>       0.29166667       0.11764706       0.37500000 </v>
   <v>       0.33333333       0.11764706       0.37500000 </v>
   <v>       0.37500000       0.11764706       0.37500000 </v>
   <v>       0.41666667       0.11764706       0.37500000 </v>
   <v>       0.45833333       0.11764706       0.37500000 </v>
   <v>       0.50000000       0.11764706       0.37500000 </v>
   <v>       0.00000000       0.17647059       0.37500000 </v>
   <v>       0.04166667       0.17647059       0.37500000 </v>
   <v>       0.08333333       0.17647059       0.37500000 </v>
   <v>       0.12500000       0.17647059       0.37500000 </v>
   <v>       0.16666667       0.17647059       0.37500000 </v>
   <v>       0.20833333       0.17647059       0.37500000 </v>
   <v>       0.25000000       0.17647059       0.37500000 </v>
   <v>       0.29166667       0.17647059       0.37500000 </v>
   <v>       0.33333333       0.17647059       0.37500000 </v>
   <v>       0.37500000       0.17647059       0.37500000 </v>
   <v>       0.41666667       0.17647059       0.37500000 </v>
   <v>       0.45833333       0.17647059       0.37500000 </v>
   <v>       0.50000000       0.17647059       0.37500000 </v>
   <v>       0.00000000       0.23529412       0.37500000 </v>
   <v>       0.04166667       0.23529412       0.37500000 </v>
   <v>       0.08333333       0.23529412       0.37500000 </v>
   <v>       0.12500000       0.23529412       0.37500000 </v>
   <v>       0.16666667       0.23529412       0.37500000 </v>
   <v>       0.20833333       0.23529412       0.37500000 </v>
   <v>       0.25000000       0.23529412       0.37500000 </v>
   <v>       0.29166667       0.23529412       0.37500000 </v>
   <v>       0.33333333       0.23529412       0.37500000 </v>
   <v>       0.37500000       0.23529412       0.37500000 </v>
   <v>       0.41666667       0.23529412       0.37500000 </v>
   <v>       0.45833333       0.23529412       0.37500000 </v>
   <v>       0.50000000       0.23529412       0.37500000 </v>
   <v>       0.00000000       0.29411765       0.37500000 </v>
   <v>       0.04166667       0.29411765       0.37500000 </v>
   <v>       0.08333333       0.29411765       0.37500000 </v>
   <v>       0.12500000       0.29411765       0.37500000 </v>
   <v>       0.16666667       0.29411765       0.37500000 </v>
   <v>       0.20833333       0.29411765       0.37500000 </v>
   <v>       0.25000000       0.29411765       0.37500000 </v>
   <v>       0.29166667       0.29411765       0.37500000 </v>
   <v>       0.33333333       0.29411765       0.37500000 </v>
   <v>       0.37500000       0.29411765       0.37500000 </v>
   <v>       0.41666667       0.29411765       0.37500000 </v>
   <v>       0.45833333       0.29411765       0.37500000 </v>
   <v>       0.50000000       0.29411765       0.37500000 </v>
   <v>       0.00000000       0.35294118       0.37500000 </v>
   <v>       0.04166667       0.35294118       0.37500000 </v>
   <v>       0.08333333       0.35294118       0.37500000 </v>
   <v>       0.12500000       0.35294118       0.37500000 </v>
   <v>       0.16666667       0.35294118       0.37500000 </v>
   <v>       0.20833333       0.35294118       0.37500000 </v>
   <v>       0.25000000       0.35294118       0.37500000 </v>
   <v>       0.29166667       0.35294118       0.37500000 </v>
   <v>       0.33333333       0.35294118       0.37500000 </v>
   <v>       0.37500000       0.35294118       0.37500000 </v>
   <v>       0.41666667       0.35294118       0.37500000 </v>
   <v>       0.45833333       0.35294118       0.37500000 </v>
   <v>       0.50000000       0.35294118       0.37500000 </v>
   <v>       0.00000000       0.41176471       0.37500000 </v>
   <v>       0.04166667       0.41176471       0.37500000 </v>
   <v>       0.08333333       0.41176471       0.37500000 </v>
   <v>       0.12500000       0.41176471       0.37500000 </v>
   <v>       0.16666667       0.41176471       0.37500000 </v>
   <v>       0.20833333       0.41176471       0.37500000 </v>
   <v>       0.25000000       0.41176471       0.37500000 </v>
   <v>       0.29166667       0.41176471       0.37500000 </v>
   <v>       0.33333333       0.41176471       0.37500000 </v>
   <v>       0.37500000       0.41176471       0.37500000 </v>
   <v>       0.41666667       0.41176471       0.37500000 </v>
   <v>       0.45833333       0.41176471       0.37500000 </v>
   <v>       0.50000000       0.41176471       0.37500000 </v>
   <v>       0.00000000       0.47058824       0.37500000 </v>
   <v>       0.04166667       0.47058824       0.37500000 </v>
   <v>       0.08333333       0.47058824       0.37500000 </v>
   <v>       0.12500000       0.47058824       0.37500000 </v>
   <v>       0.16666667       0.47058824       0.37500000 </v>
   <v>       0.20833333       0.47058824       0.37500000 </v>
   <v>       0.25000000       0.47058824       0.37500000 </v>
   <v>       0.29166667       0.47058824       0.37500000 </v>
   <v>       0.33333333       0.47058824       0.37500000 </v>
   <v>       0.37500000       0.47058824       0.37500000 </v>
   <v>       0.41666667       0.47058824       0.37500000 </v>
   <v>       0.45833333       0.47058824       0.37500000 </v>
   <v>       0.50000000       0.47058824       0.37500000 </v>
   <v>       0.00000000       0.00000000       0.50000000 </v>
   <v>       0.04166667       0.00000000       0.50000000 </v>
   <v>       0.08333333       0.00000000       0.50000000 </v>
   <v>       0.12500000       0.00000000       0.50000000 </v>
   <v>       0.16666667       0.00000000       0.50000000 </v>
   <v>       0.20833333       0.00000000       0.50000000 </v>
   <v>       0.25000000       0.00000000       0.50000000 </v>
   <v>       0.29166667       0.00000000       0.50000000 </v>
   <v>       0.33333333       0.00000000       0.50000000 </v>
   <v>       0.37500000       0.00000000       0.50000000 </v>
   <v>       0.41666667       0.00000000       0.50000000 </v>
   <v>       0.45833333       0.00000000       0.50000000 </v>
   <v>       0.50000000       0.00000000       0.50000000 </v>
   <v>       0.00000000       0.05882353       0.50000000 </v>
   <v>       0.04166667       0.05882353       0.50000000 </v>
   <v>       0.08333333       0.05882353       0.50000000 </v>
   <v>       0.12500000       0.05882353       0.50000000 </v>
   <v>       0.16666667       0.05882353       0.50000000 </v>
   <v>       0.20833333       0.05882353       0.50000000 </v>
   <v>       0.25000000       0.05882353       0.50000000 </v>
   <v>       0.29166667       0.05882353       0.50000000 </v>
   <v>       0.33333333       0.05882353       0.50000000 </v>
   <v>       0.37500000       0.05882353       0.50000000 </v>
   <v>       0.41666667       0.05882353       0.50000000 </v>
   <v>       0.45833333       0.05882353       0.50000000 </v>
   <v>       0.50000000       0.05882353       0.50000000 </v>
   <v>       0.00000000       0.11764706       0.50000000 </v>
   <v>       0.04166667       0.11764706       0.50000000 </v>
   <v>       0.08333333       0.11764706       0.50000000 </v>
   <v>       0.12500000       0.11764706       0.50000000 </v>
   <v>       0.16666667       0.11764706       0.50000000 </v>
   <v>       0.20833333       0.11764706       0.50000000 </v>
   <v>       0.25000000       0.11764706       0.50000000 </v>
   <v>       0.29166667       0.11764706       0.50000000 </v>
   <v>       0.33333333       0.11764706       0.50000000 </v>
   <v>       0.37500000       0.11764706       0.50000000 </v>
   <v>       0.41666667       0.11764706       0.50000000 </v>
   <v>       0.45833333       0.11764706       0.50000000 </v>
   <v>       0.50000000       0.11764706       0.50000000 </v>
   <v>       0.00000000       0.17647059       0.50000000 </v>
   <v>       0.04166667       0.17647059       0.50000000 </v>
   <v>       0.08333333       0.17647059       0.50000000 </v>
   <v>       0.12500000       0.17647059       0.50000000 </v>
   <v>       0.16666667       0.17647059       0.50000000 </v>
   <v>       0.20833333       0.17647059       0.50000000 </v>
   <v>       0.25000000       0.17647059       0.50000000 </v>
   <v>       0.29166667       0.17647059       0.50000000 </v>
   <v>       0.33333333       0.17647059       0.50000000 </v>
   <v>       0.37500000       0.17647059       0.50000000 </v>
   <v>       0.41666667       0.17647059       0.50000000 </v>
   <v>       0.45833333       0.17647059       0.50000000 </v>
   <v>       0.50000000       0.17647059       0.50000000 </v>
   <v>       0.00000000       0.23529412       0.50000000 </v>
   <v>       0.04166667       0.23529412       0.50000000 </v>
   <v>       0.08333333       0.23529412       0.50000000 </v>
   <v>       0.12500000       0.23529412       0.50000000 </v>
   <v>       0.16666667       0.23529412       0.50000000 </v>
   <v>       0.20833333       0.23529412       0.50000000 </v>
   <v>       0.25000000       0.23529412       0.50000000 </v>
   <v>       0.29166667       0.23529412       0.50000000 </v>
   <v>       0.33333333       0.23529412       0.50000000 </v>
   <v>       0.37500000       0.23529412       0.50000000 </v>
   <v>       0.41666667       0.23529412       0.50000000 </v>
   <v>       0.45833333       0.23529412       0.50000000 </v>
   <v>       0.50000000       0.23529412       0.50000000 </v>
   <v>       0.00000000       0.29411765       0.50000000 </v>
   <v>       0.04166667       0.29411765       0.50000000 </v>
   <v>       0.08333333       0.29411765       0.50000000 </v>
   <v>       0.12500000       0.29411765       0.50000000 </v>
   <v>       0.16666667       0.29411765       0.50000000 </v>
   <v>       0.20833333       0.29411765       0.50000000 </v>
   <v>       0.25000000       0.29411765       0.50000000 </v>
   <v>       0.29166667       0.29411765       0.50000000 </v>
   <v>       0.33333333       0.29411765       0.50000000 </v>
   <v>       0.37500000       0.29411765       0.50000000 </v>
   <v>       0.41666667       0.29411765       0.50000000 </v>
   <v>       0.45833333       0.29411765       0.50000000 </v>
   <v>       0.50000000       0.29411765       0.50000000 </v>
   <v>       0.00000000       0.35294118       0.50000000 </v>
   <v>       0.04166667       0.35294118       0.50000000 </v>
   <v>       0.08333333       0.35294118       0.50000000 </v>
   <v>       0.12500000       0.35294118       0.50000000 </v>
   <v>       0.16666667       0.35294118       0.50000000 </v>
   <v>       0.20833333       0.35294118       0.50000000 </v>
   <v>       0.25000000       0.35294118       0.50000000 </v>
   <v>       0.29166667       0.35294118       0.50000000 </v>
   <v>       0.33333333       0.35294118       0.50000000 </v>
   <v>       0.37500000       0.35294118       0.50000000 </v>
   <v>       0.41666667       0.35294118       0.50000000 </v>
   <v>       0.45833333       0.35294118       0.50000000 </v>
   <v>       0.50000000       0.35294118       0.50000000 </v>
   <v>       0.00000000       0.41176471       0.50000000 </v>
   <v>       0.04166667       0.41176471       0.50000000 </v>
   <v>       0.08333333       0.41176471       0.50000000 </v>
   <v>       0.12500000       0.41176471       0.50000000 </v>
   <v>       0.16666667       0.41176471       0.50000000 </v>
   <v>       0.20833333       0.41176471       0.50000000 </v>
   <v>       0.25000000       0.41176471       0.50000000 </v>
   <v>       0.29166667       0.41176471       0.50000000 </v>
   <v>       0.33333333       0.41176471       0.50000000 </v>
   <v>       0.37500000       0.41176471       0.50000000 </v>
   <v>       0.41666667       0.41176471       0.50000000 </v>
   <v>       0.45833333       0.41176471       0.50000000 </v>
   <v>       0.50000000       0.41176471       0.50000000 </v>
   <v>       0.00000000       0.47058824       0.50000000 </v>
   <v>       0.04166667       0.47058824       0.50000000 </v>
   <v>       0.08333333       0.47058824       0.50000000 </v>
   <v>       0.12500000       0.47058824       0.50000000 </v>
   <v>       0.16666667       0.47058824       0.50000000 </v>
   <v>       0.20833333       0.47058824       0.50000000 </v>
   <v>       0.25000000       0.47058824       0.50000000 </v>
   <v>       0.29166667       0.47058824       0.50000000 </v>
   <v>       0.33333333       0.47058824       0.50000000 </v>
   <v>       0.37500000       0.47058824       0.50000000 </v>
   <v>       0.41666667       0.47058824       0.50000000 </v>
   <v>       0.45833333       0.47058824       0.50000000 </v>
   <v>       0.50000000       0.47058824       0.50000000 </v>
  </varray>
  <varray name="weights" >
   <v>       0.00030637 </v>
   <v>       0.00061275 </v>
   <v>       0.00061275 </v>
   <v>       0.00061275 </v>
   <v>       0.00061275 </v>
   <v>       0.00061275 </v>
   <v>       0.00061275 </v>
   <v>       0.00061275 </v>
   <v>       0.00061275 </v>
   <v>       0.00061275 </v>
   <v>       0.00061275 </v>
   <v>       0.00061275 </v>
   <v>       0.00030637 </v>
   <v>       0.00061275 </v>
   <v>       0.00122549 </v>
   <v>       0.00122549 </v>
   <v>       0.00122549 </v>
   <v>       0.00122549 </v>
   <v>       0.00122549 </v>
   <v>       0.00122549 </v>
   <v>       0.00122549 </v>
   <v>       0.00122549 </v>
   <v>       0.00122549 </v>
   <v>       0.00122549 </v>
   <v>       0.00122549 </v>
   <v>       0.00061275 </v>
   <v>       0.00061275 </v>
   <v>       0.00122549 </v>
   <v>       0.00122549 </v>
   <v>       0.00122549 </v>
   <v>       0.00122549 </v>
   <v>       0.00122549 </v>
   <v>       0.00122549 </v>
   <v>       0.00122549 </v>
   <v>       0.00122549 </v>
   <v>       0.00122549 </v>
   <v>       0.00122549 </v>
   <v>       0.00122549 </v>
   <v>       0.00061275 </v>
   <v>       0.00061275 </v>
   <v>       0.00122549 </v>
   <v>       0.00122549 </v>
   <v>       0.00122549 </v>
   <v>       0.00122549 </v>
   <v>       0.00122549 </v>
   <v>       0.00122549 </v>
   <v>       0.00122549 </v>
   <v>       0.00122549 </v>
   <v>       0.00122549 </v>
   <v>       0.00122549 </v>
   <v>       0.00122549 </v>
   <v>       0.00061275 </v>
   <v>       0.00061275 </v>
   <v>       0.00122549 </v>
   <v>       0.00122549 </v>
   <v>       0.00122549 </v>
   <v>       0.00122549 </v>
   <v>       0.00122549 </v>
   <v>       0.00122549 </v>
   <v>       0.00122549 </v>
   <v>       0.00122549 </v>
   <v>       0.00122549 </v>
   <v>       0.00122549 </v>
   <v>       0.00122549 </v>
   <v>       0.00061275 </v>
   <v>       0.00061275 </v>
   <v>       0.00122549 </v>
   <v>       0.00122549 </v>
   <v>       0.00122549 </v>
   <v>       0.00122549 </v>
   <v>       0.00122549 </v>
   <v>       0.00122549 </v>
   <v>       0.00122549 </v>
   <v>       0.00122549 </v>
   <v>       0.00122549 </v>
   <v>       0.00122549 </v>
   <v>       0.00122549 </v>
   <v>       0.00061275 </v>
   <v>       0.00061275 </v>
   <v>       0.00122549 </v>
   <v>       0.00122549 </v>
   <v>       0.00122549 </v>
   <v>       0.00122549 </v>
   <v>       0.00122549 </v>
   <v>       0.00122549 </v>
   <v>       0.00122549 </v>
   <v>       0.00122549 </v>
   <v>       0.00122549 </v>
   <v>       0.00122549 </v>
   <v>       0.00122549 </v>
   <v>       0.00061275 </v>
   <v>       0.00061275 </v>
   <v>       0.00122549 </v>
   <v>       0.00122549 </v>
   <v>       0.00122549 </v>
   <v>       0.00122549 </v>
   <v>       0.00122549 </v>
   <v>       0.00122549 </v>
   <v>       0.00122549 </v>
   <v>       0.00122549 </v>
   <v>       0.00122549 </v>
   <v>       0.00122549 </v>
   <v>       0.00122549 </v>
   <v>       0.00061275 </v>
   <v>       0.00061275 </v>
   <v>       0.00122549 </v>
   <v>       0.00122549 </v>
   <v>       0.00122549 </v>
   <v>       0.00122549 </v>
   <v>       0.00122549 </v>
   <v>       0.00122549 </v>
   <v>       0.00122549 </v>
   <v>       0.00122549 </v>
   <v>       0.00122549 </v>
   <v>       0.00122549 </v>
   <v>       0.00122549 </v>
   <v>       0.00061275 </v>
   <v>       0.00061275 </v>
   <v>       0.00122549 </v>
   <v>       0.00122549 </v>
   <v>       0.00122549 </v>
   <v>       0.00122549 </v>
   <v>       0.00122549 </v>
   <v>       0.00122549 </v>
   <v>       0.00122549 </v>
   <v>       0.00122549 </v>
   <v>       0.00122549 </v>
   <v>       0.00122549 </v>
   <v>       0.00122549 </v>
   <v>       0.00061275 </v>
   <v>       0.00122549 </v>
   <v>       0.00245098 </v>
   <v>       0.00245098 </v>
   <v>       0.00245098 </v>
   <v>       0.00245098 </v>
   <v>       0.00245098 </v>
   <v>       0.00245098 </v>
   <v>       0.00245098 </v>
   <v>       0.00245098 </v>
   <v>       0.00245098 </v>
   <v>       0.00245098 </v>
   <v>       0.00245098 </v>
   <v>       0.00122549 </v>
   <v>       0.00122549 </v>
   <v>       0.00245098 </v>
   <v>       0.00245098 </v>
   <v>       0.00245098 </v>
   <v>       0.00245098 </v>
   <v>       0.00245098 </v>
   <v>       0.00245098 </v>
   <v>       0.00245098 </v>
   <v>       0.00245098 </v>
   <v>       0.00245098 </v>
   <v>       0.00245098 </v>
   <v>       0.00245098 </v>
   <v>       0.00122549 </v>
   <v>       0.00122549 </v>
   <v>       0.00245098 </v>
   <v>       0.00245098 </v>
   <v>       0.00245098 </v>
   <v>       0.00245098 </v>
   <v>       0.00245098 </v>
   <v>       0.00245098 </v>
   <v>       0.00245098 </v>
   <v>       0.00245098 </v>
   <v>       0.00245098 </v>
   <v>       0.00245098 </v>
   <v>       0.00245098 </v>
   <v>       0.00122549 </v>
   <v>       0.00122549 </v>
   <v>       0.00245098 </v>
   <v>       0.00245098 </v>
   <v>       0.00245098 </v>
   <v>       0.00245098 </v>
   <v>       0.00245098 </v>
   <v>       0.00245098 </v>
   <v>       0.00245098 </v>
   <v>       0.00245098 </v>
   <v>       0.00245098 </v>
   <v>       0.00245098 </v>
   <v>       0.00245098 </v>
   <v>       0.00122549 </v>
   <v>       0.00122549 </v>
   <v>       0.00245098 </v>
   <v>       0.00245098 </v>
   <v>       0.00245098 </v>
   <v>       0.00245098 </v>
   <v>       0.00245098 </v>
   <v>       0.00245098 </v>
   <v>       0.00245098 </v>
   <v>       0.00245098 </v>
   <v>       0.00245098 </v>
   <v>       0.00245098 </v>
   <v>       0.00245098 </v>
   <v>       0.00122549 </v>
   <v>       0.00122549 </v>
   <v>       0.00245098 </v>
   <v>       0.00245098 </v>
   <v>       0.00245098 </v>
   <v>       0.00245098 </v>
   <v>       0.00245098 </v>
   <v>       0.00245098 </v>
   <v>       0.00245098 </v>
   <v>       0.00245098 </v>
   <v>       0.00245098 </v>
   <v>       0.00245098 </v>
   <v>       0.00245098 </v>
   <v>       0.00122549 </v>
   <v>       0.00122549 </v>
   <v>       0.00245098 </v>
   <v>       0.00245098 </v>
   <v>       0.00245098 </v>
   <v>       0.00245098 </v>
   <v>       0.00245098 </v>
   <v>       0.00245098 </v>
   <v>       0.00245098 </v>
   <v>       0.00245098 </v>
   <v>       0.00245098 </v>
   <v>       0.00245098 </v>
   <v>       0.00245098 </v>
   <v>       0.00122549 </v>
   <v>       0.00122549 </v>
   <v>       0.00245098 </v>
   <v>       0.00245098 </v>
   <v>       0.00245098 </v>
   <v>       0.00245098 </v>
   <v>       0.00245098 </v>
   <v>       0.00245098 </v>
   <v>       0.00245098 </v>
   <v>       0.00245098 </v>
   <v>       0.00245098 </v>
   <v>       0.00245098 </v>
   <v>       0.00245098 </v>
   <v>       0.00122549 </v>
   <v>       0.00061275 </v>
   <v>       0.00122549 </v>
   <v>       0.00122549 </v>
   <v>       0.00122549 </v>
   <v>       0.00122549 </v>
   <v>       0.00122549 </v>
   <v>       0.00122549 </v>
   <v>       0.00122549 </v>
   <v>       0.00122549 </v>
   <v>       0.00122549 </v>
   <v>       0.00122549 </v>
   <v>       0.00122549 </v>
   <v>       0.00061275 </v>
   <v>       0.00122549 </v>
   <v>       0.00245098 </v>
   <v>       0.00245098 </v>
   <v>       0.00245098 </v>
   <v>       0.00245098 </v>
   <v>       0.00245098 </v>
   <v>       0.00245098 </v>
   <v>       0.00245098 </v>
   <v>       0.00245098 </v>
   <v>       0.00245098 </v>
   <v>       0.00245098 </v>
   <v>       0.00245098 </v>
   <v>       0.00122549 </v>
   <v>       0.00122549 </v>
   <v>       0.00245098 </v>
   <v>       0.00245098 </v>
   <v>       0.00245098 </v>
   <v>       0.00245098 </v>
   <v>       0.00245098 </v>
   <v>       0.00245098 </v>
   <v>       0.00245098 </v>
   <v>       0.00245098 </v>
   <v>       0.00245098 </v>
   <v>       0.00245098 </v>
   <v>       0.00245098 </v>
   <v>       0.00122549 </v>
   <v>       0.00122549 </v>
   <v>       0.00245098 </v>
   <v>       0.00245098 </v>
   <v>       0.00245098 </v>
   <v>       0.00245098 </v>
   <v>       0.00245098 </v>
   <v>       0.00245098 </v>
   <v>       0.00245098 </v>
   <v>       0.00245098 </v>
   <v>       0.00245098 </v>
   <v>       0.00245098 </v>
   <v>       0.00245098 </v>
   <v>       0.00122549 </v>
   <v>       0.00122549 </v>
   <v>       0.00245098 </v>
   <v>       0.00245098 </v>
   <v>       0.00245098 </v>
   <v>       0.00245098 </v>
   <v>       0.00245098 </v>
   <v>       0.00245098 </v>
   <v>       0.00245098 </v>
   <v>       0.00245098 </v>
   <v>       0.00245098 </v>
   <v>       0.00245098 </v>
   <v>       0.00245098 </v>
   <v>       0.00122549 </v>
   <v>       0.00122549 </v>
   <v>       0.00245098 </v>
   <v>       0.00245098 </v>
   <v>       0.00245098 </v>
   <v>       0.00245098 </v>
   <v>       0.00245098 </v>
   <v>       0.00245098 </v>
   <v>       0.00245098 </v>
   <v>       0.00245098 </v>
   <v>       0.00245098 </v>
   <v>       0.00245098 </v>
   <v>       0.00245098 </v>
   <v>       0.00122549 </v>
   <v>       0.00122549 </v>
   <v>       0.00245098 </v>
   <v>       0.00245098 </v>
   <v>       0.00245098 </v>
   <v>       0.00245098 </v>
   <v>       0.00245098 </v>
   <v>       0.00245098 </v>
   <v>       0.00245098 </v>
   <v>       0.00245098 </v>
   <v>       0.00245098 </v>
   <v>       0.00245098 </v>
   <v>       0.00245098 </v>
   <v>       0.00122549 </v>
   <v>       0.00122549 </v>
   <v>       0.00245098 </v>
   <v>       0.00245098 </v>
   <v>       0.00245098 </v>
   <v>       0.00245098 </v>
   <v>       0.00245098 </v>
   <v>       0.00245098 </v>
   <v>       0.00245098 </v>
   <v>       0.00245098 </v>
   <v>       0.00245098 </v>
   <v>       0.00245098 </v>
   <v>       0.00245098 </v>
   <v>       0.00122549 </v>
   <v>       0.00122549 </v>
   <v>       0.00245098 </v>
   <v>       0.00245098 </v>
   <v>       0.00245098 </v>
   <v>       0.00245098 </v>
   <v>       0.00245098 </v>
   <v>       0.00245098 </v>
   <v>       0.00245098 </v>
   <v>       0.00245098 </v>
   <v>       0.00245098 </v>
   <v>       0.00245098 </v>
   <v>       0.00245098 </v>
   <v>       0.00122549 </v>
   <v>       0.00061275 </v>
   <v>       0.00122549 </v>
   <v>       0.00122549 </v>
   <v>       0.00122549 </v>
   <v>       0.00122549 </v>
   <v>       0.00122549 </v>
   <v>       0.00122549 </v>
   <v>       0.00122549 </v>
   <v>       0.00122549 </v>
   <v>       0.00122549 </v>
   <v>       0.00122549 </v>
   <v>       0.00122549 </v>
   <v>       0.00061275 </v>
   <v>       0.00122549 </v>
   <v>       0.00245098 </v>
   <v>       0.00245098 </v>
   <v>       0.00245098 </v>
   <v>       0.00245098 </v>
   <v>       0.00245098 </v>
   <v>       0.00245098 </v>
   <v>       0.00245098 </v>
   <v>       0.00245098 </v>
   <v>       0.00245098 </v>
   <v>       0.00245098 </v>
   <v>       0.00245098 </v>
   <v>       0.00122549 </v>
   <v>       0.00122549 </v>
   <v>       0.00245098 </v>
   <v>       0.00245098 </v>
   <v>       0.00245098 </v>
   <v>       0.00245098 </v>
   <v>       0.00245098 </v>
   <v>       0.00245098 </v>
   <v>       0.00245098 </v>
   <v>       0.00245098 </v>
   <v>       0.00245098 </v>
   <v>       0.00245098 </v>
   <v>       0.00245098 </v>
   <v>       0.00122549 </v>
   <v>       0.00122549 </v>
   <v>       0.00245098 </v>
   <v>       0.00245098 </v>
   <v>       0.00245098 </v>
   <v>       0.00245098 </v>
   <v>       0.00245098 </v>
   <v>       0.00245098 </v>
   <v>       0.00245098 </v>
   <v>       0.00245098 </v>
   <v>       0.00245098 </v>
   <v>       0.00245098 </v>
   <v>       0.00245098 </v>
   <v>       0.00122549 </v>
   <v>       0.00122549 </v>
   <v>       0.00245098 </v>
   <v>       0.00245098 </v>
   <v>       0.00245098 </v>
   <v>       0.00245098 </v>
   <v>       0.00245098 </v>
   <v>       0.00245098 </v>
   <v>       0.00245098 </v>
   <v>       0.00245098 </v>
   <v>       0.00245098 </v>
   <v>       0.00245098 </v>
   <v>       0.00245098 </v>
   <v>       0.00122549 </v>
   <v>       0.00122549 </v>
   <v>       0.00245098 </v>
   <v>       0.00245098 </v>
   <v>       0.00245098 </v>
   <v>       0.00245098 </v>
   <v>       0.00245098 </v>
   <v>       0.00245098 </v>
   <v>       0.00245098 </v>
   <v>       0.00245098 </v>
   <v>       0.00245098 </v>
   <v>       0.00245098 </v>
   <v>       0.00245098 </v>
   <v>       0.00122549 </v>
   <v>       0.00122549 </v>
   <v>       0.00245098 </v>
   <v>       0.00245098 </v>
   <v>       0.00245098 </v>
   <v>       0.00245098 </v>
   <v>       0.00245098 </v>
   <v>       0.00245098 </v>
   <v>       0.00245098 </v>
   <v>       0.00245098 </v>
   <v>       0.00245098 </v>
   <v>       0.00245098 </v>
   <v>       0.00245098 </v>
   <v>       0.00122549 </v>
   <v>       0.00122549 </v>
   <v>       0.00245098 </v>
   <v>       0.00245098 </v>
   <v>       0.00245098 </v>
   <v>       0.00245098 </v>
   <v>       0.00245098 </v>
   <v>       0.00245098 </v>
   <v>       0.00245098 </v>
   <v>       0.00245098 </v>
   <v>       0.00245098 </v>
   <v>       0.00245098 </v>
   <v>       0.00245098 </v>
   <v>       0.00122549 </v>
   <v>       0.00122549 </v>
   <v>       0.00245098 </v>
   <v>       0.00245098 </v>
   <v>       0.00245098 </v>
   <v>       0.00245098 </v>
   <v>       0.00245098 </v>
   <v>       0.00245098 </v>
   <v>       0.00245098 </v>
   <v>       0.00245098 </v>
   <v>       0.00245098 </v>
   <v>       0.00245098 </v>
   <v>       0.00245098 </v>
   <v>       0.00122549 </v>
   <v>       0.00030637 </v>
   <v>       0.00061275 </v>
   <v>       0.00061275 </v>
   <v>       0.00061275 </v>
   <v>       0.00061275 </v>
   <v>       0.00061275 </v>
   <v>       0.00061275 </v>
   <v>       0.00061275 </v>
   <v>       0.00061275 </v>
   <v>       0.00061275 </v>
   <v>       0.00061275 </v>
   <v>       0.00061275 </v>
   <v>       0.00030637 </v>
   <v>       0.00061275 </v>
   <v>       0.00122549 </v>
   <v>       0.00122549 </v>
   <v>       0.00122549 </v>
   <v>       0.00122549 </v>
   <v>       0.00122549 </v>
   <v>       0.00122549 </v>
   <v>       0.00122549 </v>
   <v>       0.00122549 </v>
   <v>       0.00122549 </v>
   <v>       0.00122549 </v>
   <v>       0.00122549 </v>
   <v>       0.00061275 </v>
   <v>       0.00061275 </v>
   <v>       0.00122549 </v>
   <v>       0.00122549 </v>
   <v>       0.00122549 </v>
   <v>       0.00122549 </v>
   <v>       0.00122549 </v>
   <v>       0.00122549 </v>
   <v>       0.00122549 </v>
   <v>       0.00122549 </v>
   <v>       0.00122549 </v>
   <v>       0.00122549 </v>
   <v>       0.00122549 </v>
   <v>       0.00061275 </v>
   <v>       0.00061275 </v>
   <v>       0.00122549 </v>
   <v>       0.00122549 </v>
   <v>       0.00122549 </v>
   <v>       0.00122549 </v>
   <v>       0.00122549 </v>
   <v>       0.00122549 </v>
   <v>       0.00122549 </v>
   <v>       0.00122549 </v>
   <v>       0.00122549 </v>
   <v>       0.00122549 </v>
   <v>       0.00122549 </v>
   <v>       0.00061275 </v>
   <v>       0.00061275 </v>
   <v>       0.00122549 </v>
   <v>       0.00122549 </v>
   <v>       0.00122549 </v>
   <v>       0.00122549 </v>
   <v>       0.00122549 </v>
   <v>       0.00122549 </v>
   <v>       0.00122549 </v>
   <v>       0.00122549 </v>
   <v>       0.00122549 </v>
   <v>       0.00122549 </v>
   <v>       0.00122549 </v>
   <v>       0.00061275 </v>
   <v>       0.00061275 </v>
   <v>       0.00122549 </v>
   <v>       0.00122549 </v>
   <v>       0.00122549 </v>
   <v>       0.00122549 </v>
   <v>       0.00122549 </v>
   <v>       0.00122549 </v>
   <v>       0.00122549 </v>
   <v>       0.00122549 </v>
   <v>       0.00122549 </v>
   <v>       0.00122549 </v>
   <v>       0.00122549 </v>
   <v>       0.00061275 </v>
   <v>       0.00061275 </v>
   <v>       0.00122549 </v>
   <v>       0.00122549 </v>
   <v>       0.00122549 </v>
   <v>       0.00122549 </v>
   <v>       0.00122549 </v>
   <v>       0.00122549 </v>
   <v>       0.00122549 </v>
   <v>       0.00122549 </v>
   <v>       0.00122549 </v>
   <v>       0.00122549 </v>
   <v>       0.00122549 </v>
   <v>       0.00061275 </v>
   <v>       0.00061275 </v>
   <v>       0.00122549 </v>
   <v>       0.00122549 </v>
   <v>       0.00122549 </v>
   <v>       0.00122549 </v>
   <v>       0.00122549 </v>
   <v>       0.00122549 </v>
   <v>       0.00122549 </v>
   <v>       0.00122549 </v>
   <v>       0.00122549 </v>
   <v>       0.00122549 </v>
   <v>       0.00122549 </v>
   <v>       0.00061275 </v>
   <v>       0.00061275 </v>
   <v>       0.00122549 </v>
   <v>       0.00122549 </v>
   <v>       0.00122549 </v>
   <v>       0.00122549 </v>
   <v>       0.00122549 </v>
   <v>       0.00122549 </v>
   <v>       0.00122549 </v>
   <v>       0.00122549 </v>
   <v>       0.00122549 </v>
   <v>       0.00122549 </v>
   <v>       0.00122549 </v>
   <v>       0.00061275 </v>
  </varray>
 </kpoints>
 <parameters>
  <separator name="general" >
   <i type="string" name="SYSTEM">unknown system</i>
   <i type="logical" name="LCOMPAT"> F  </i>
  </separator>
  <separator name="electronic" >
   <i type="string" name="PREC">accura</i>
   <i name="ENMAX">    500.00000000</i>
   <i name="ENAUG">    412.49600000</i>
   <i name="EDIFF">      0.00000100</i>
   <i type="int" name="IALGO">    68</i>
   <i type="int" name="IWAVPR">    11</i>
   <i type="int" name="NBANDS">    40</i>
   <i name="NELECT">     66.00000000</i>
   <i type="int" name="TURBO">     0</i>
   <i type="int" name="IRESTART">     0</i>
   <i type="int" name="NREBOOT">     0</i>
   <i type="int" name="NMIN">     0</i>
   <i name="EREF">      0.00000000</i>
   <separator name="electronic smearing" >
    <i type="int" name="ISMEAR">     1</i>
    <i name="SIGMA">      0.30000000</i>
    <i name="KSPACING">      0.50000000</i>
    <i type="logical" name="KGAMMA"> T  </i>
   </separator>
   <separator name="electronic projectors" >
    <i type="logical" name="LREAL"> F  </i>
    <v name="ROPT">      0.00000000      0.00000000</v>
    <i type="int" name="LMAXPAW">  -100</i>
    <i type="int" name="LMAXMIX">     2</i>
    <i type="logical" name="NLSPLINE"> F  </i>
   </separator>
   <separator name="electronic startup" >
    <i type="int" name="ISTART">     0</i>
    <i type="int" name="ICHARG">     2</i>
    <i type="int" name="INIWAV">     1</i>
   </separator>
   <separator name="electronic spin" >
    <i type="int" name="ISPIN">     1</i>
    <i type="logical" name="LNONCOLLINEAR"> F  </i>
    <v name="MAGMOM">      1.00000000      1.00000000      1.00000000      1.00000000      1.00000000      1.00000000</v>
    <i name="NUPDOWN">     -1.00000000</i>
    <i type="logical" name="LSORBIT"> F  </i>
    <v name="SAXIS">      0.00000000      0.00000000      1.00000000</v>
    <i type="logical" name="LSPIRAL"> F  </i>
    <v name="QSPIRAL">      0.00000000      0.00000000      0.00000000</v>
    <i type="logical" name="LZEROZ"> F  </i>
   </separator>
   <separator name="electronic exchange-correlation" >
    <i type="logical" name="LASPH"> F  </i>
    <i type="logical" name="LMETAGGA"> F  </i>
   </separator>
   <separator name="electronic convergence" >
    <i type="int" name="NELM">   100</i>
    <i type="int" name="NELMDL">     0</i>
    <i type="int" name="NELMIN">     4</i>
    <i name="ENINI">    500.00000000</i>
    <separator name="electronic convergence detail" >
     <i type="logical" name="LDIAG"> T  </i>
     <i type="logical" name="LSUBROT"> F  </i>
     <i name="WEIMIN">      0.00100000</i>
     <i name="EBREAK">      0.00000001</i>
     <i name="DEPER">      0.30000000</i>
     <i type="int" name="NRMM">     4</i>
     <i name="TIME">      0.40000000</i>
    </separator>
   </separator>
   <separator name="electronic mixer" >
    <i name="AMIX">      0.40000000</i>
    <i name="BMIX">      1.00000000</i>
    <i name="AMIN">      0.10000000</i>
    <i name="AMIX_MAG">      1.60000000</i>
    <i name="BMIX_MAG">      1.00000000</i>
    <separator name="electronic mixer details" >
     <i type="int" name="IMIX">     4</i>
     <i type="int" name="MAXMIX">   -45</i>
     <i name="WC">    100.00000000</i>
     <i type="int" name="INIMIX">     1</i>
     <i type="int" name="MIXPRE">     1</i>
     <i type="int" name="MREMOVE">     5</i>
    </separator>
   </separator>
   <separator name="electronic dipolcorrection" >
    <i type="logical" name="LDIPOL"> F  </i>
    <i type="logical" name="LMONO"> F  </i>
    <i type="int" name="IDIPOL">     0</i>
    <i name="EPSILON">      1.00000000</i>
    <v name="DIPOL">   -100.00000000   -100.00000000   -100.00000000</v>
    <i name="EFIELD">      0.00000000</i>
   </separator>
  </separator>
  <separator name="grids" >
   <i type="int" name="NGX">    24</i>
   <i type="int" name="NGY">    30</i>
   <i type="int" name="NGZ">    64</i>
   <i type="int" name="NGXF">    48</i>
   <i type="int" name="NGYF">    60</i>
   <i type="int" name="NGZF">   128</i>
   <i type="logical" name="ADDGRID"> T  </i>
  </separator>
  <separator name="ionic" >
   <i type="int" name="NSW">    30</i>
   <i type="int" name="IBRION">     2</i>
   <i type="int" name="ISIF">     3</i>
   <i name="PSTRESS">      0.00000000</i>
   <i name="EDIFFG">     -0.02000000</i>
   <i type="int" name="NFREE">     1</i>
   <i name="POTIM">      0.50000000</i>
   <i name="SMASS">     -3.00000000</i>
   <i name="SCALEE">      1.00000000</i>
  </separator>
  <separator name="ionic md" >
   <i name="TEBEG">      0.00010000</i>
   <i name="TEEND">      0.00010000</i>
   <i type="int" name="NBLOCK">     1</i>
   <i type="int" name="KBLOCK">    30</i>
   <i type="int" name="NPACO">   256</i>
   <i name="APACO">     16.00000000</i>
  </separator>
  <separator name="symmetry" >
   <i type="int" name="ISYM">     2</i>
   <i name="SYMPREC">      0.00001000</i>
  </separator>
  <separator name="dos" >
   <i type="logical" name="LORBIT"> F  </i>
   <v name="RWIGS">     -1.00000000     -1.00000000</v>
   <i type="int" name="NEDOS">   301</i>
   <i name="EMIN">     10.00000000</i>
   <i name="EMAX">    -10.00000000</i>
   <i name="EFERMI">      0.00000000</i>
  </separator>
  <separator name="writing" >
   <i type="int" name="NWRITE">     2</i>
   <i type="logical" name="LWAVE"> F  </i>
   <i type="logical" name="LCHARG"> F  </i>
   <i type="logical" name="LPARD"> F  </i>
   <i type="logical" name="LVTOT"> F  </i>
   <i type="logical" name="LVHAR"> F  </i>
   <i type="logical" name="LELF"> F  </i>
   <i type="logical" name="LOPTICS"> F  </i>
   <v name="STM">      0.00000000      0.00000000      0.00000000      0.00000000      0.00000000      0.00000000      0.00000000</v>
  </separator>
  <separator name="performance" >
   <i type="int" name="NPAR">     4</i>
   <i type="int" name="NSIM">     4</i>
   <i type="int" name="NBLK">    -1</i>
   <i type="logical" name="LPLANE"> T  </i>
   <i type="logical" name="LSCALAPACK"> T  </i>
   <i type="logical" name="LSCAAWARE"> F  </i>
   <i type="logical" name="LSCALU"> F  </i>
   <i type="logical" name="LASYNC"> F  </i>
   <i type="logical" name="LORBITALREAL"> F  </i>
  </separator>
  <separator name="miscellaneous" >
   <i type="int" name="IDIOT">     3</i>
   <i type="logical" name="LMUSIC"> F  </i>
   <v name="POMASS">    107.86800000    196.96600000</v>
   <v name="DARWINR">      0.00000000      0.00000000</v>
   <v name="DARWINV">      1.00000000      1.00000000</v>
   <i type="logical" name="LCORR"> T  </i>
  </separator>
  <i type="logical" name="GGA_COMPAT"> T  </i>
  <i type="logical" name="LBERRY"> F  </i>
  <i type="int" name="ICORELEVEL">     0</i>
  <i type="logical" name="LDAU"> F  </i>
  <i type="int" name="I_CONSTRAINED_M">     0</i>
  <separator name="electronic exchange-correlation" >
   <i type="string" name="GGA">--</i>
   <i type="int" name="VOSKOWN">     0</i>
   <i type="logical" name="LHFCALC"> F  </i>
   <i type="string" name="PRECFOCK"></i>
   <i type="logical" name="LSYMGRAD"> F  </i>
   <i type="logical" name="LHFONE"> F  </i>
   <i type="logical" name="LRHFCALC"> F  </i>
   <i type="logical" name="LTHOMAS"> F  </i>
   <i type="logical" name="LMODELHF"> F  </i>
   <i name="ENCUT4O">     -1.00000000</i>
   <i type="int" name="EXXOEP">     0</i>
   <i type="int" name="FOURORBIT">     0</i>
   <i name="AEXX">      0.00000000</i>
   <i name="HFALPHA">      0.00000000</i>
   <i name="MCALPHA">      0.00000000</i>
   <i name="ALDAX">      1.00000000</i>
   <i name="AGGAX">      1.00000000</i>
   <i name="ALDAC">      1.00000000</i>
   <i name="AGGAC">      1.00000000</i>
   <i type="int" name="NKREDX">     1</i>
   <i type="int" name="NKREDY">     1</i>
   <i type="int" name="NKREDZ">     1</i>
   <i type="logical" name="SHIFTRED"> F  </i>
   <i type="logical" name="ODDONLY"> F  </i>
   <i type="logical" name="EVENONLY"> F  </i>
   <i type="int" name="LMAXFOCK">     0</i>
   <i type="int" name="NMAXFOCKAE">     0</i>
   <i type="logical" name="LFOCKAEDFT"> F  </i>
   <i name="HFSCREEN">      0.00000000</i>
   <i name="HFSCREENC">      0.00000000</i>
   <i type="int" name="NBANDSGWLOW">     0</i>
  </separator>
  <separator name="vdW DFT" >
   <i type="logical" name="LUSE_VDW"> F  </i>
   <i name="Zab_VDW">     -0.84910000</i>
   <i name="PARAM1">      0.12340000</i>
   <i name="PARAM2">      1.00000000</i>
   <i name="PARAM3">      0.00000000</i>
  </separator>
  <separator name="model GW" >
   <i type="int" name="MODEL_GW">     0</i>
   <i name="MODEL_EPS0">     10.72005238</i>
   <i name="MODEL_ALPHA">      1.00000000</i>
  </separator>
  <separator name="linear response parameters" >
   <i type="logical" name="LEPSILON"> F  </i>
   <i type="logical" name="LRPA"> F  </i>
   <i type="logical" name="LNABLA"> F  </i>
   <i type="logical" name="LVEL"> F  </i>
   <i type="int" name="KINTER">     0</i>
   <i name="CSHIFT">      0.10000000</i>
   <i name="OMEGAMAX">     -1.00000000</i>
   <i name="DEG_THRESHOLD">      0.00200000</i>
  </separator>
  <separator name="orbital magnetization" >
   <i type="logical" name="NUCIND"> F  </i>
   <v name="MAGPOS">      0.00000000      0.00000000      0.00000000</v>
   <i type="logical" name="LNICSALL"> T  </i>
   <i type="logical" name="ORBITALMAG"> F  </i>
   <i type="logical" name="LMAGBLOCH"> F  </i>
   <i type="logical" name="LCHIMAG"> F  </i>
   <i type="logical" name="LGAUGE"> T  </i>
   <i type="int" name="MAGATOM">     0</i>
   <v name="MAGDIPOL">      0.00000000      0.00000000      0.00000000</v>
   <v name="AVECCONST">      0.00000000      0.00000000      0.00000000</v>
  </separator>
  <separator name="response functions" >
   <i type="logical" name="LADDER"> F  </i>
   <i type="logical" name="LFXC"> F  </i>
   <i type="logical" name="LHARTREE"> T  </i>
   <i type="int" name="IBSE">     0</i>
   <i type="logical" name="LTCTE"> F  </i>
   <i type="logical" name="LTETE"> F  </i>
   <i type="logical" name="LTRIPLET"> F  </i>
   <i type="logical" name="LFXCEPS"> F  </i>
   <i type="logical" name="LFXHEG"> F  </i>
   <i type="logical" name="L2ORDER"> F  </i>
   <i type="logical" name="LUSEW"> F  </i>
   <i name="ENCUTGW">     -2.00000000</i>
   <i name="ENCUTGWSOFT">     -2.00000000</i>
   <i name="ENCUTLF">     -1.00000000</i>
   <i type="int" name="LMAXMP2">    -1</i>
   <i name="SCISSOR">      0.00000000</i>
   <i type="int" name="NOMEGA">     0</i>
   <i type="int" name="NOMEGAR">     0</i>
   <i type="int" name="NBANDSGW">    -1</i>
   <i type="int" name="NBANDSO">    -1</i>
   <i type="int" name="NBANDSV">    -1</i>
   <i type="int" name="NELM">   100</i>
   <i type="int" name="DIM">     3</i>
   <i type="int" name="ANTIRES">     0</i>
   <i name="OMEGAMAX">    -30.00000000</i>
   <i name="OMEGAMIN">    -30.00000000</i>
   <i name="OMEGATL">   -200.00000000</i>
   <i type="int" name="OMEGAGRID">     0</i>
   <i name="CSHIFT">     -0.10000000</i>
   <i type="logical" name="SELFENERGY"> F  </i>
   <i type="logical" name="LSPECTRAL"> F  </i>
   <i type="logical" name="ODDONLYGW"> F  </i>
   <i type="logical" name="EVENONLYGW"> F  </i>
   <i type="int" name="NKREDLFX">     1</i>
   <i type="int" name="NKREDLFY">     1</i>
   <i type="int" name="NKREDLFZ">     1</i>
   <i type="int" name="MAXMEM">  1800</i>
   <i type="int" name="TELESCOPE">     0</i>
   <i type="int" name="TAUPAR">     1</i>
  </separator>
  <separator name="External order field" >
   <i name="OFIELD_KAPPA">      0.00000000</i>
   <v name="OFIELD_K">      0.00000000      0.00000000      0.00000000</v>
   <i name="OFIELD_Q6_NEAR">      0.00000000</i>
   <i name="OFIELD_Q6_FAR">      0.00000000</i>
   <i name="OFIELD_A">      0.00000000</i>
  </separator>
 </parameters>
 <atominfo>
  <atoms>       6 </atoms>
  <types>       2 </types>
  <array name="atoms" >
   <dimension dim="1">ion</dimension>
   <field type="string">element</field>
   <field type="int">atomtype</field>
   <set>
    <rc><c>Ag</c><c>   1</c></rc>
    <rc><c>Ag</c><c>   1</c></rc>
    <rc><c>Au</c><c>   2</c></rc>
    <rc><c>Au</c><c>   2</c></rc>
    <rc><c>Au</c><c>   2</c></rc>
    <rc><c>Au</c><c>   2</c></rc>
   </set>
  </array>
  <array name="atomtypes" >
   <dimension dim="1">type</dimension>
   <field type="int">atomspertype</field>
   <field type="string">element</field>
   <field>mass</field>
   <field>valence</field>
   <field type="string">pseudopotential</field>
   <set>
    <rc><c>   2</c><c>Ag</c><c>    107.86800000</c><c>     11.00000000</c><c>  PAW_PBE Ag 02Apr2005                  </c></rc>
    <rc><c>   4</c><c>Au</c><c>    196.96600000</c><c>     11.00000000</c><c>  PAW_PBE Au 04Oct2007                  </c></rc>
   </set>
  </array>
 </atominfo>
 <structure name="initialpos" >
  <crystal>
   <varray name="basis" >
    <v>       0.00000000       2.06110443       2.06110443 </v>
    <v>       4.17055179       0.00000000       0.00000000 </v>
    <v>       0.00000000       6.23553033      -6.23553033 </v>
   </varray>
   <i name="volume">    107.20052380 </i>
   <varray name="rec_basis" >
    <v>       0.00000000       0.24258839       0.24258839 </v>
    <v>       0.23977643       0.00000000       0.00000000 </v>
    <v>       0.00000000       0.08018564      -0.08018564 </v>
   </varray>
  </crystal>
  <varray name="positions" >
   <v>       0.00000000       0.00000000       0.66681594 </v>
   <v>       0.50000000       0.50000000       0.83318406 </v>
   <v>       0.00000000       0.00000000       0.99733214 </v>
   <v>       0.50000000       0.50000000       0.16575677 </v>
   <v>       0.00000000       0.00000000       0.33424323 </v>
   <v>       0.50000000       0.50000000       0.50266786 </v>
  </varray>
 </structure>
 <calculation>
  <scstep>
   <time name="dav">    6.50    6.50</time>
   <time name="total">    6.55    6.56</time>
   <energy>
    <i name="alphaZ">    355.98745861 </i>
    <i name="ewald">  -5774.37096112 </i>
    <i name="hartreedc">   -940.44716548 </i>
    <i name="XCdc">     40.89357604 </i>
    <i name="pawpsdc">   5503.31431206 </i>
    <i name="pawaedc">  -5318.73908776 </i>
    <i name="eentropy">      0.00081559 </i>
    <i name="bandstr">    800.20537602 </i>
    <i name="atom">   5778.85447048 </i>
    <i name="e_fr_energy">    445.69879445 </i>
    <i name="e_wo_entrp">    445.69797886 </i>
    <i name="e_0_energy">    445.69852259 </i>
   </energy>
  </scstep>
  <scstep>
   <time name="dav">    6.97    6.97</time>
   <time name="total">    7.00    7.02</time>
   <energy>
    <i name="e_fr_energy">     -8.17087057 </i>
    <i name="e_wo_entrp">     -8.17176632 </i>
    <i name="e_0_energy">     -8.17116916 </i>
   </energy>
  </scstep>
  <scstep>
   <time name="dav">    7.24    7.24</time>
   <time name="total">    7.28    7.29</time>
   <energy>
    <i name="e_fr_energy">    -20.00475961 </i>
    <i name="e_wo_entrp">    -20.00561897 </i>
    <i name="e_0_energy">    -20.00504606 </i>
   </energy>
  </scstep>
  <scstep>
   <time name="dav">    6.83    6.86</time>
   <time name="total">    6.87    6.92</time>
   <energy>
    <i name="e_fr_energy">    -20.09903573 </i>
    <i name="e_wo_entrp">    -20.09987440 </i>
    <i name="e_0_energy">    -20.09931529 </i>
   </energy>
  </scstep>
  <scstep>
   <time name="dav">    7.36    7.38</time>
   <time name="total">    7.79    7.82</time>
   <energy>
    <i name="e_fr_energy">    -20.09997226 </i>
    <i name="e_wo_entrp">    -20.10081070 </i>
    <i name="e_0_energy">    -20.10025174 </i>
   </energy>
  </scstep>
  <scstep>
   <time name="diag">    1.74    1.74</time>
   <time name="diis">    2.76    2.76</time>
   <time name="orth">    0.30    0.30</time>
   <time name="total">    5.24    5.26</time>
   <energy>
    <i name="e_fr_energy">    -18.59911263 </i>
    <i name="e_wo_entrp">    -18.60011556 </i>
    <i name="e_0_energy">    -18.59944694 </i>
   </energy>
  </scstep>
  <scstep>
   <time name="diag">    1.73    1.73</time>
   <time name="diis">    2.77    2.78</time>
   <time name="orth">    0.30    0.30</time>
   <time name="total">    5.25    5.28</time>
   <energy>
    <i name="e_fr_energy">    -18.52737299 </i>
    <i name="e_wo_entrp">    -18.52835419 </i>
    <i name="e_0_energy">    -18.52770005 </i>
   </energy>
  </scstep>
  <scstep>
   <time name="diag">    1.74    1.74</time>
   <time name="diis">    2.76    2.76</time>
   <time name="orth">    0.30    0.30</time>
   <time name="total">    5.25    5.26</time>
   <energy>
    <i name="e_fr_energy">    -18.51521095 </i>
    <i name="e_wo_entrp">    -18.51634806 </i>
    <i name="e_0_energy">    -18.51558999 </i>
   </energy>
  </scstep>
  <scstep>
   <time name="diag">    1.74    1.74</time>
   <time name="diis">    2.77    2.77</time>
   <time name="orth">    0.30    0.30</time>
   <time name="total">    5.26    5.27</time>
   <energy>
    <i name="e_fr_energy">    -18.51335340 </i>
    <i name="e_wo_entrp">    -18.51436330 </i>
    <i name="e_0_energy">    -18.51369003 </i>
   </energy>
  </scstep>
  <scstep>
   <time name="diag">    1.74    1.74</time>
   <time name="diis">    2.76    2.76</time>
   <time name="orth">    0.30    0.30</time>
   <time name="total">    5.24    5.26</time>
   <energy>
    <i name="e_fr_energy">    -18.51333844 </i>
    <i name="e_wo_entrp">    -18.51434887 </i>
    <i name="e_0_energy">    -18.51367525 </i>
   </energy>
  </scstep>
  <scstep>
   <time name="diag">    1.74    1.74</time>
   <time name="diis">    2.68    2.68</time>
   <time name="orth">    0.30    0.30</time>
   <time name="total">    5.17    5.18</time>
   <energy>
    <i name="e_fr_energy">    -18.51334790 </i>
    <i name="e_wo_entrp">    -18.51436002 </i>
    <i name="e_0_energy">    -18.51368527 </i>
   </energy>
  </scstep>
  <scstep>
   <time name="diag">    1.73    1.73</time>
   <time name="diis">    1.84    1.84</time>
   <time name="orth">    0.30    0.30</time>
   <time name="total">    4.32    4.33</time>
   <energy>
    <i name="e_fr_energy">    -18.51334966 </i>
    <i name="e_wo_entrp">    -18.51436140 </i>
    <i name="e_0_energy">    -18.51368691 </i>
   </energy>
  </scstep>
  <scstep>
   <time name="diag">    1.74    1.74</time>
   <time name="diis">    1.73    1.73</time>
   <time name="orth">    0.30    0.30</time>
   <time name="total">    3.83    3.85</time>
   <energy>
    <i name="alphaZ">    355.98745861 </i>
    <i name="ewald">  -5774.37096112 </i>
    <i name="hartreedc">   -871.98838387 </i>
    <i name="XCdc">     38.01480969 </i>
    <i name="pawpsdc">   6294.33339576 </i>
    <i name="pawaedc">  -6124.37602981 </i>
    <i name="eentropy">      0.00101149 </i>
    <i name="bandstr">    285.03087987 </i>
    <i name="atom">   5778.85447048 </i>
    <i name="e_fr_energy">    -18.51334888 </i>
    <i name="e_wo_entrp">    -18.51436038 </i>
    <i name="e_0_energy">    -18.51368605 </i>
   </energy>
  </scstep>
  <structure>
   <crystal>
    <varray name="basis" >
     <v>       0.00000000       2.06110443       2.06110443 </v>
     <v>       4.17055179       0.00000000       0.00000000 </v>
     <v>       0.00000000       6.23553033      -6.23553033 </v>
    </varray>
    <i name="volume">    107.20052380 </i>
    <varray name="rec_basis" >
     <v>       0.00000000       0.24258839       0.24258839 </v>
     <v>       0.23977643       0.00000000       0.00000000 </v>
     <v>       0.00000000       0.08018564      -0.08018564 </v>
    </varray>
   </crystal>
   <varray name="positions" >
    <v>       0.00000000       0.00000000       0.66681594 </v>
    <v>       0.50000000       0.50000000       0.83318406 </v>
    <v>       0.00000000       0.00000000       0.99733214 </v>
    <v>       0.50000000       0.50000000       0.16575677 </v>
    <v>       0.00000000       0.00000000       0.33424323 </v>
    <v>       0.50000000       0.50000000       0.50266786 </v>
   </varray>
  </structure>
  <varray name="forces" >
   <v>       0.00000000       0.00074095      -0.00074095 </v>
   <v>       0.00000000      -0.00074095       0.00074095 </v>
   <v>       0.00000000      -0.00381190       0.00381190 </v>
   <v>       0.00000000       0.01045230      -0.01045230 </v>
   <v>       0.00000000      -0.01045230       0.01045230 </v>
   <v>       0.00000000       0.00381190      -0.00381190 </v>
  </varray>
  <varray name="stress" >
   <v>       0.50280599       0.00000000       0.00000000 </v>
   <v>       0.00000000      -0.42553214       1.32591219 </v>
   <v>       0.00000000       1.32591219      -0.42553214 </v>
  </varray>
  <energy>
   <i name="e_fr_energy">    -18.51334888 </i>
   <i name="e_wo_entrp">    -18.51368605 </i>
   <i name="e_0_energy">      0.00101149 </i>
  </energy>
  <time name="totalsc">   79.63   79.90</time>
  <eigenvalues>
   <array>
    <dimension dim="1">band</dimension>
    <dimension dim="2">kpoint</dimension>
    <dimension dim="3">spin</dimension>
    <field>eigene</field>
    <field>occ</field>
    <set>
     <set comment="spin 1">
      <set comment="kpoint 1">
       <r>   -0.5054    1.0000 </r>
       <r>    1.4062    1.0000 </r>
       <r>    1.9326    1.0000 </r>
       <r>    2.0135    1.0000 </r>
       <r>    2.1647    1.0000 </r>
       <r>    2.6723    1.0000 </r>
       <r>    2.7521    1.0000 </r>
       <r>    3.3961    1.0000 </r>
       <r>    3.4112    1.0000 </r>
       <r>    3.4194    1.0000 </r>
       <r>    3.4442    1.0000 </r>
       <r>    3.8290    1.0000 </r>
       <r>    3.8722    1.0000 </r>
       <r>    3.8987    1.0000 </r>
       <r>    4.0462    1.0000 </r>
       <r>    4.0485    1.0000 </r>
       <r>    4.1223    1.0000 </r>
       <r>    4.1711    1.0000 </r>
       <r>    4.5072    1.0000 </r>
       <r>    4.5186    1.0000 </r>
       <r>    4.5541    1.0000 </r>
       <r>    4.6531    1.0000 </r>
       <r>    5.0448    1.0000 </r>
       <r>    5.0672    1.0000 </r>
       <r>    5.1793    1.0000 </r>
       <r>    5.3298    1.0000 </r>
       <r>    5.5243    1.0000 </r>
       <r>    5.9152    1.0000 </r>
       <r>    5.9413    1.0000 </r>
       <r>    6.0497    1.0000 </r>
       <r>    6.1665    1.0000 </r>
       <r>    6.3762    1.0000 </r>
       <r>    6.5280    1.0000 </r>
       <r>    9.6384    0.0000 </r>
       <r>   10.8991    0.0000 </r>
       <r>   10.9196    0.0000 </r>
       <r>   14.1549    0.0000 </r>
       <r>   14.2101    0.0000 </r>
       <r>   14.5459    0.0000 </r>
       <r>   15.2222    0.0000 </r>
      </set>
      <set comment="kpoint 2">
       <r>   -0.4664    1.0000 </r>
       <r>    1.4391    1.0000 </r>
       <r>    1.9595    1.0000 </r>
       <r>    2.0434    1.0000 </r>
       <r>    2.1832    1.0000 </r>
       <r>    2.7030    1.0000 </r>
       <r>    2.7801    1.0000 </r>
       <r>    3.3821    1.0000 </r>
       <r>    3.3868    1.0000 </r>
       <r>    3.4083    1.0000 </r>
       <r>    3.4103    1.0000 </r>
       <r>    3.8429    1.0000 </r>
       <r>    3.8808    1.0000 </r>
       <r>    3.8902    1.0000 </r>
       <r>    4.0051    1.0000 </r>
       <r>    4.0368    1.0000 </r>
       <r>    4.0977    1.0000 </r>
       <r>    4.1176    1.0000 </r>
       <r>    4.5466    1.0000 </r>
       <r>    4.5473    1.0000 </r>
       <r>    4.5816    1.0000 </r>
       <r>    4.6734    1.0000 </r>
       <r>    5.0505    1.0000 </r>
       <r>    5.0814    1.0000 </r>
       <r>    5.1786    1.0000 </r>
       <r>    5.3179    1.0000 </r>
       <r>    5.5552    1.0000 </r>
       <r>    5.9118    1.0000 </r>
       <r>    5.9571    1.0000 </r>
       <r>    6.0471    1.0000 </r>
       <r>    6.1389    1.0000 </r>
       <r>    6.3759    1.0000 </r>
       <r>    6.4408    1.0000 </r>
       <r>    9.7779    0.0000 </r>
       <r>   10.9394    0.0000 </r>
       <r>   10.9596    0.0000 </r>
       <r>   14.1910    0.0000 </r>
       <r>   14.1923    0.0000 </r>
       <r>   14.5752    0.0000 </r>
       <r>   15.2270    0.0000 </r>
      </set>
      <set comment="kpoint 3">
       <r>   -0.3504    1.0000 </r>
       <r>    1.5330    1.0000 </r>
       <r>    2.0333    1.0000 </r>
       <r>    2.1261    1.0000 </r>
       <r>    2.2426    1.0000 </r>
       <r>    2.7891    1.0000 </r>
       <r>    2.8585    1.0000 </r>
       <r>    3.3025    1.0000 </r>
       <r>    3.3209    1.0000 </r>
       <r>    3.3637    1.0000 </r>
       <r>    3.3801    1.0000 </r>
       <r>    3.8593    1.0000 </r>
[...]
       <r>    4.9044    1.0000 </r>
       <r>    5.0472    1.0000 </r>
       <r>    5.0996    1.0000 </r>
       <r>    5.6135    1.0000 </r>
       <r>    5.6490    1.0000 </r>
       <r>    6.1317    1.0000 </r>
       <r>    6.1771    1.0000 </r>
       <r>    6.3777    1.0000 </r>
       <r>    6.3786    1.0000 </r>
       <r>    8.2826    0.7614 </r>
       <r>    8.6742   -0.0227 </r>
       <r>    8.9026   -0.0169 </r>
       <r>    9.2338   -0.0002 </r>
       <r>   11.9436    0.0000 </r>
       <r>   12.1237    0.0000 </r>
       <r>   12.2856    0.0000 </r>
       <r>   12.6142    0.0000 </r>
       <r>   13.2691    0.0000 </r>
       <r>   13.4306    0.0000 </r>
      </set>
      <set comment="kpoint 584">
       <r>    2.0659    1.0000 </r>
       <r>    2.0872    1.0000 </r>
       <r>    2.3688    1.0000 </r>
       <r>    2.3812    1.0000 </r>
       <r>    2.8520    1.0000 </r>
       <r>    2.8538    1.0000 </r>
       <r>    3.3830    1.0000 </r>
       <r>    3.3831    1.0000 </r>
       <r>    3.5934    1.0000 </r>
       <r>    3.5971    1.0000 </r>
       <r>    3.6049    1.0000 </r>
       <r>    3.6185    1.0000 </r>
       <r>    3.6864    1.0000 </r>
       <r>    3.6872    1.0000 </r>
       <r>    4.0697    1.0000 </r>
       <r>    4.0823    1.0000 </r>
       <r>    4.3475    1.0000 </r>
       <r>    4.3492    1.0000 </r>
       <r>    4.7429    1.0000 </r>
       <r>    4.7760    1.0000 </r>
       <r>    4.9905    1.0000 </r>
       <r>    5.0187    1.0000 </r>
       <r>    5.0534    1.0000 </r>
       <r>    5.0999    1.0000 </r>
       <r>    5.6823    1.0000 </r>
       <r>    5.6980    1.0000 </r>
       <r>    6.2989    1.0000 </r>
       <r>    6.3288    1.0000 </r>
       <r>    6.4925    1.0000 </r>
       <r>    6.4928    1.0000 </r>
       <r>    8.8434   -0.0258 </r>
       <r>    9.2184   -0.0003 </r>
       <r>    9.3432    0.0000 </r>
       <r>    9.6867    0.0000 </r>
       <r>   11.4078    0.0000 </r>
       <r>   11.4526    0.0000 </r>
       <r>   11.8877    0.0000 </r>
       <r>   11.9020    0.0000 </r>
       <r>   13.4679    0.0000 </r>
       <r>   13.5897    0.0000 </r>
      </set>
      <set comment="kpoint 585">
       <r>    2.0636    1.0000 </r>
       <r>    2.0636    1.0000 </r>
       <r>    2.3615    1.0000 </r>
       <r>    2.3615    1.0000 </r>
       <r>    2.8355    1.0000 </r>
       <r>    2.8355    1.0000 </r>
       <r>    3.3838    1.0000 </r>
       <r>    3.3838    1.0000 </r>
       <r>    3.5895    1.0000 </r>
       <r>    3.5895    1.0000 </r>
       <r>    3.6032    1.0000 </r>
       <r>    3.6032    1.0000 </r>
       <r>    3.6987    1.0000 </r>
       <r>    3.6987    1.0000 </r>
       <r>    4.0681    1.0000 </r>
       <r>    4.0681    1.0000 </r>
       <r>    4.3463    1.0000 </r>
       <r>    4.3463    1.0000 </r>
       <r>    4.7868    1.0000 </r>
       <r>    4.7868    1.0000 </r>
       <r>    5.0344    1.0000 </r>
       <r>    5.0344    1.0000 </r>
       <r>    5.0793    1.0000 </r>
       <r>    5.0793    1.0000 </r>
       <r>    5.7118    1.0000 </r>
       <r>    5.7118    1.0000 </r>
       <r>    6.3680    1.0000 </r>
       <r>    6.3680    1.0000 </r>
       <r>    6.5345    1.0000 </r>
       <r>    6.5345    1.0000 </r>
       <r>    9.3133   -0.0001 </r>
       <r>    9.3133   -0.0001 </r>
       <r>    9.7556    0.0000 </r>
       <r>    9.7556    0.0000 </r>
       <r>   11.1347    0.0000 </r>
       <r>   11.1347    0.0000 </r>
       <r>   11.5472    0.0000 </r>
       <r>   11.5472    0.0000 </r>
       <r>   13.9664    0.0000 </r>
       <r>   13.9675    0.0000 </r>
      </set>
     </set>
    </set>
   </array>
  </eigenvalues>
  <separator name="orbital magnetization" >
   <v name="MAGDIPOLOUT">      0.00000000      0.00000000      0.00000000</v>
  </separator>
  <dos>
   <i name="efermi">      8.38084367 </i>
   <total>
    <array>
     <dimension dim="1">gridpoints</dimension>
     <dimension dim="2">spin</dimension>
     <field>energy</field>
     <field>total</field>
     <field>integrated</field>
     <set>
      <set comment="spin 1">
       <r>    -3.5054     0.0000     0.0000 </r>
       <r>    -3.4217     0.0000     0.0000 </r>
       <r>    -3.3381     0.0000     0.0000 </r>
       <r>    -3.2545     0.0000     0.0000 </r>
       <r>    -3.1709     0.0000     0.0000 </r>
       <r>    -3.0873     0.0000     0.0000 </r>
       <r>    -3.0036     0.0000     0.0000 </r>
       <r>    -2.9200     0.0000     0.0000 </r>
       <r>    -2.8364     0.0000     0.0000 </r>
       <r>    -2.7528     0.0000     0.0000 </r>
       <r>    -2.6692     0.0000     0.0000 </r>
       <r>    -2.5855     0.0000     0.0000 </r>
       <r>    -2.5019     0.0000     0.0000 </r>
       <r>    -2.4183     0.0000     0.0000 </r>
       <r>    -2.3347     0.0000     0.0000 </r>
       <r>    -2.2511     0.0000     0.0000 </r>
       <r>    -2.1674     0.0000     0.0000 </r>
       <r>    -2.0838     0.0000     0.0000 </r>
       <r>    -2.0002     0.0000     0.0000 </r>
       <r>    -1.9166     0.0000     0.0000 </r>
       <r>    -1.8329     0.0000     0.0000 </r>
       <r>    -1.7493     0.0000     0.0000 </r>
       <r>    -1.6657     0.0000     0.0000 </r>
       <r>    -1.5821     0.0000     0.0000 </r>
       <r>    -1.4985     0.0000     0.0000 </r>
       <r>    -1.4148     0.0000     0.0000 </r>
       <r>    -1.3312     0.0000     0.0000 </r>
       <r>    -1.2476    -0.0001     0.0000 </r>
       <r>    -1.1640    -0.0004     0.0000 </r>
       <r>    -1.0804    -0.0011    -0.0001 </r>
       <r>    -0.9967    -0.0028    -0.0004 </r>
       <r>    -0.9131    -0.0057    -0.0008 </r>
       <r>    -0.8295    -0.0093    -0.0016 </r>
       <r>    -0.7459    -0.0103    -0.0025 </r>
       <r>    -0.6623    -0.0023    -0.0027 </r>
       <r>    -0.5786     0.0231    -0.0007 </r>
       <r>    -0.4950     0.0718     0.0053 </r>
       <r>    -0.4114     0.1429     0.0172 </r>
       <r>    -0.3278     0.2265     0.0362 </r>
       <r>    -0.2442     0.3076     0.0619 </r>
       <r>    -0.1605     0.3727     0.0931 </r>
       <r>    -0.0769     0.4154     0.1278 </r>
       <r>     0.0067     0.4378     0.1644 </r>
       <r>     0.0903     0.4464     0.2017 </r>
       <r>     0.1739     0.4482     0.2392 </r>
       <r>     0.2576     0.4489     0.2767 </r>
       <r>     0.3412     0.4527     0.3146 </r>
       <r>     0.4248     0.4635     0.3534 </r>
       <r>     0.5084     0.4847     0.3939 </r>
       <r>     0.5920     0.5191     0.4373 </r>
       <r>     0.6757     0.5676     0.4848 </r>
       <r>     0.7593     0.6273     0.5372 </r>
       <r>     0.8429     0.6923     0.5951 </r>
       <r>     0.9265     0.7574     0.6584 </r>
       <r>     1.0101     0.8236     0.7273 </r>
       <r>     1.0938     0.8981     0.8024 </r>
       <r>     1.1774     0.9884     0.8851 </r>
       <r>     1.2610     1.0973     0.9768 </r>
       <r>     1.3446     1.2239     1.0792 </r>
       <r>     1.4282     1.3715     1.1939 </r>
       <r>     1.5119     1.5573     1.3241 </r>
       <r>     1.5955     1.8185     1.4761 </r>
       <r>     1.6791     2.2069     1.6607 </r>
       <r>     1.7627     2.7680     1.8921 </r>
       <r>     1.8463     3.5114     2.1858 </r>
       <r>     1.9300     4.3929     2.5531 </r>
       <r>     2.0136     5.3366     2.9993 </r>
       <r>     2.0972     6.2972     3.5259 </r>
       <r>     2.1808     7.3142     4.1375 </r>
       <r>     2.2645     8.4894     4.8474 </r>
       <r>     2.3481     9.8770     5.6733 </r>
       <r>     2.4317    11.3741     6.6245 </r>
       <r>     2.5153    12.7227     7.6883 </r>
       <r>     2.5989    13.6395     8.8289 </r>
       <r>     2.6826    13.9651     9.9966 </r>
       <r>     2.7662    13.7172    11.1437 </r>
       <r>     2.8498    13.0424    12.2343 </r>
       <r>     2.9334    12.1579    13.2509 </r>
       <r>     3.0170    11.3300    14.1984 </r>
       <r>     3.1007    10.8422    15.1050 </r>
       <r>     3.1843    10.8925    16.0158 </r>
       <r>     3.2679    11.4739    16.9753 </r>
       <r>     3.3515    12.3568    18.0086 </r>
       <r>     3.4351    13.2209    19.1141 </r>
       <r>     3.5188    13.8457    20.2719 </r>
       <r>     3.6024    14.2298    21.4618 </r>
       <r>     3.6860    14.5782    22.6808 </r>
       <r>     3.7696    15.1815    23.9503 </r>
       <r>     3.8532    16.2360    25.3080 </r>
       <r>     3.9369    17.6708    26.7856 </r>
       <r>     4.0205    19.0862    28.3816 </r>
       <r>     4.1041    19.9061    30.0462 </r>
       <r>     4.1877    19.7007    31.6935 </r>
       <r>     4.2713    18.4698    33.2380 </r>
       <r>     4.3550    16.6669    34.6317 </r>
       <r>     4.4386    14.9432    35.8812 </r>
       <r>     4.5222    13.8091    37.0360 </r>
       <r>     4.6058    13.4369    38.1596 </r>
       <r>     4.6894    13.6773    39.3033 </r>
       <r>     4.7731    14.2003    40.4907 </r>
       <r>     4.8567    14.6519    41.7159 </r>
       <r>     4.9403    14.7873    42.9524 </r>
       <r>     5.0239    14.5588    44.1698 </r>
       <r>     5.1075    14.1090    45.3496 </r>
       <r>     5.1912    13.6482    46.4909 </r>
       <r>     5.2748    13.2925    47.6024 </r>
       <r>     5.3584    13.0006    48.6895 </r>
       <r>     5.4420    12.6708    49.7491 </r>
       <r>     5.5256    12.3076    50.7782 </r>
       <r>     5.6093    12.0828    51.7886 </r>
       <r>     5.6929    12.1991    52.8087 </r>
       <r>     5.7765    12.6719    53.8683 </r>
       <r>     5.8601    13.2594    54.9771 </r>
       <r>     5.9437    13.6382    56.1175 </r>
       <r>     6.0274    13.6569    57.2595 </r>
       <r>     6.1110    13.3914    58.3793 </r>
       <r>     6.1946    12.9401    59.4614 </r>
       <r>     6.2782    12.1995    60.4815 </r>
       <r>     6.3619    10.9064    61.3935 </r>
       <r>     6.4455     8.9342    62.1406 </r>
       <r>     6.5291     6.5341    62.6869 </r>
       <r>     6.6127     4.2502    63.0423 </r>
       <r>     6.6963     2.5795    63.2580 </r>
       <r>     6.7800     1.6879    63.3992 </r>
       <r>     6.8636     1.4013    63.5164 </r>
       <r>     6.9472     1.4128    63.6345 </r>
       <r>     7.0308     1.4900    63.7591 </r>
       <r>     7.1144     1.5439    63.8882 </r>
       <r>     7.1981     1.5774    64.0201 </r>
       <r>     7.2817     1.6106    64.1548 </r>
       <r>     7.3653     1.6468    64.2925 </r>
       <r>     7.4489     1.6744    64.4325 </r>
       <r>     7.5325     1.6801    64.5730 </r>
       <r>     7.6162     1.6598    64.7118 </r>
       <r>     7.6998     1.6261    64.8478 </r>
       <r>     7.7834     1.6052    64.9820 </r>
       <r>     7.8670     1.6207    65.1175 </r>
       <r>     7.9506     1.6726    65.2574 </r>
       <r>     8.0343     1.7332    65.4023 </r>
       <r>     8.1179     1.7669    65.5500 </r>
       <r>     8.2015     1.7573    65.6970 </r>
       <r>     8.2851     1.7165    65.8405 </r>
       <r>     8.3687     1.6691    65.9801 </r>
       <r>     8.4524     1.6321    66.1166 </r>
       <r>     8.5360     1.6133    66.2515 </r>
       <r>     8.6196     1.6188    66.3868 </r>
       <r>     8.7032     1.6506    66.5249 </r>
       <r>     8.7868     1.6960    66.6667 </r>
       <r>     8.8705     1.7293    66.8113 </r>
       <r>     8.9541     1.7295    66.9559 </r>
       <r>     9.0377     1.6958    67.0977 </r>
       <r>     9.1213     1.6435    67.2352 </r>
       <r>     9.2049     1.5921    67.3683 </r>
       <r>     9.2886     1.5590    67.4986 </r>
       <r>     9.3722     1.5577    67.6289 </r>
       <r>     9.4558     1.5917    67.7620 </r>
       <r>     9.5394     1.6456    67.8996 </r>
       <r>     9.6230     1.6888    68.0408 </r>
       <r>     9.7067     1.6964    68.1827 </r>
       <r>     9.7903     1.6690    68.3222 </r>
       <r>     9.8739     1.6296    68.4585 </r>
       <r>     9.9575     1.5988    68.5922 </r>
       <r>    10.0411     1.5786    68.7242 </r>
       <r>    10.1248     1.5601    68.8547 </r>
       <r>    10.2084     1.5423    68.9836 </r>
       <r>    10.2920     1.5350    69.1120 </r>
       <r>    10.3756     1.5434    69.2410 </r>
       <r>    10.4593     1.5536    69.3709 </r>
       <r>    10.5429     1.5405    69.4998 </r>
       <r>    10.6265     1.4915    69.6245 </r>
       <r>    10.7101     1.4246    69.7436 </r>
       <r>    10.7937     1.3767    69.8587 </r>
       <r>    10.8774     1.3717    69.9734 </r>
       <r>    10.9610     1.4043    70.0909 </r>
       <r>    11.0446     1.4590    70.2129 </r>
       <r>    11.1282     1.5406    70.3417 </r>
       <r>    11.2118     1.6735    70.4816 </r>
       <r>    11.2955     1.8657    70.6376 </r>
       <r>    11.3791     2.0788    70.8115 </r>
       <r>    11.4627     2.2417    70.9989 </r>
       <r>    11.5463     2.2984    71.1911 </r>
       <r>    11.6299     2.2453    71.3789 </r>
       <r>    11.7136     2.1297    71.5570 </r>
       <r>    11.7972     2.0139    71.7254 </r>
       <r>    11.8808     1.9378    71.8874 </r>
       <r>    11.9644     1.9030    72.0465 </r>
       <r>    12.0480     1.8837    72.2040 </r>
       <r>    12.1317     1.8519    72.3589 </r>
       <r>    12.2153     1.7983    72.5093 </r>
       <r>    12.2989     1.7349    72.6543 </r>
       <r>    12.3825     1.6829    72.7951 </r>
       <r>    12.4661     1.6617    72.9340 </r>
       <r>    12.5498     1.6830    73.0748 </r>
       <r>    12.6334     1.7445    73.2206 </r>
       <r>    12.7170     1.8233    73.3731 </r>
       <r>    12.8006     1.8833    73.5306 </r>
       <r>    12.8842     1.8978    73.6893 </r>
       <r>    12.9679     1.8681    73.8455 </r>
       <r>    13.0515     1.8208    73.9977 </r>
       <r>    13.1351     1.7904    74.1474 </r>
       <r>    13.2187     1.8007    74.2980 </r>
       <r>    13.3023     1.8540    74.4531 </r>
       <r>    13.3860     1.9294    74.6144 </r>
       <r>    13.4696     1.9932    74.7811 </r>
       <r>    13.5532     2.0205    74.9500 </r>
       <r>    13.6368     2.0081    75.1179 </r>
       <r>    13.7204     1.9693    75.2826 </r>
       <r>    13.8041     1.9181    75.4430 </r>
       <r>    13.8877     1.8628    75.5988 </r>
       <r>    13.9713     1.8143    75.7505 </r>
       <r>    14.0549     1.7884    75.9000 </r>
       <r>    14.1385     1.7939    76.0500 </r>
       <r>    14.2222     1.8205    76.2023 </r>
       <r>    14.3058     1.8437    76.3564 </r>
       <r>    14.3894     1.8407    76.5103 </r>
       <r>    14.4730     1.8002    76.6609 </r>
       <r>    14.5567     1.7210    76.8048 </r>
       <r>    14.6403     1.6069    76.9392 </r>
       <r>    14.7239     1.4700    77.0621 </r>
       <r>    14.8075     1.3367    77.1739 </r>
       <r>    14.8911     1.2472    77.2782 </r>
       <r>    14.9748     1.2390    77.3818 </r>
       <r>    15.0584     1.3234    77.4924 </r>
       <r>    15.1420     1.4699    77.6153 </r>
       <r>    15.2256     1.6157    77.7504 </r>
       <r>    15.3092     1.6999    77.8926 </r>
       <r>    15.3929     1.6986    78.0346 </r>
       <r>    15.4765     1.6322    78.1711 </r>
       <r>    15.5601     1.5405    78.2999 </r>
       <r>    15.6437     1.4520    78.4213 </r>
       <r>    15.7273     1.3769    78.5365 </r>
       <r>    15.8110     1.3169    78.6466 </r>
       <r>    15.8946     1.2724    78.7530 </r>
       <r>    15.9782     1.2378    78.8565 </r>
       <r>    16.0618     1.1983    78.9567 </r>
       <r>    16.1454     1.1387    79.0519 </r>
       <r>    16.2291     1.0545    79.1401 </r>
       <r>    16.3127     0.9529    79.2198 </r>
       <r>    16.3963     0.8456    79.2905 </r>
       <r>    16.4799     0.7434    79.3527 </r>
       <r>    16.5635     0.6561    79.4075 </r>
       <r>    16.6472     0.5919    79.4570 </r>
       <r>    16.7308     0.5509    79.5031 </r>
       <r>    16.8144     0.5231    79.5468 </r>
       <r>    16.8980     0.4941    79.5881 </r>
       <r>    16.9816     0.4556    79.6262 </r>
       <r>    17.0653     0.4099    79.6605 </r>
       <r>    17.1489     0.3670    79.6912 </r>
       <r>    17.2325     0.3372    79.7194 </r>
       <r>    17.3161     0.3253    79.7466 </r>
       <r>    17.3997     0.3256    79.7738 </r>
       <r>    17.4834     0.3245    79.8010 </r>
       <r>    17.5670     0.3086    79.8268 </r>
       <r>    17.6506     0.2752    79.8498 </r>
       <r>    17.7342     0.2344    79.8694 </r>
       <r>    17.8178     0.2009    79.8862 </r>
       <r>    17.9015     0.1833    79.9015 </r>
       <r>    17.9851     0.1790    79.9165 </r>
       <r>    18.0687     0.1783    79.9314 </r>
       <r>    18.1523     0.1729    79.9458 </r>
       <r>    18.2359     0.1607    79.9593 </r>
       <r>    18.3196     0.1437    79.9713 </r>
       <r>    18.4032     0.1231    79.9816 </r>
       <r>    18.4868     0.0984    79.9898 </r>
       <r>    18.5704     0.0702    79.9957 </r>
       <r>    18.6541     0.0419    79.9992 </r>
       <r>    18.7377     0.0186    80.0007 </r>
       <r>    18.8213     0.0037    80.0011 </r>
       <r>    18.9049    -0.0029    80.0008 </r>
       <r>    18.9885    -0.0041    80.0005 </r>
       <r>    19.0722    -0.0030    80.0002 </r>
       <r>    19.1558    -0.0016    80.0001 </r>
       <r>    19.2394    -0.0007    80.0000 </r>
       <r>    19.3230    -0.0002    80.0000 </r>
       <r>    19.4066    -0.0001    80.0000 </r>
       <r>    19.4903     0.0000    80.0000 </r>
       <r>    19.5739     0.0000    80.0000 </r>
       <r>    19.6575     0.0000    80.0000 </r>
       <r>    19.7411     0.0000    80.0000 </r>
       <r>    19.8247     0.0000    80.0000 </r>
       <r>    19.9084     0.0000    80.0000 </r>
       <r>    19.9920     0.0000    80.0000 </r>
       <r>    20.0756     0.0000    80.0000 </r>
       <r>    20.1592     0.0000    80.0000 </r>
       <r>    20.2428     0.0000    80.0000 </r>
       <r>    20.3265     0.0000    80.0000 </r>
       <r>    20.4101     0.0000    80.0000 </r>
       <r>    20.4937     0.0000    80.0000 </r>
       <r>    20.5773     0.0000    80.0000 </r>
       <r>    20.6609     0.0000    80.0000 </r>
       <r>    20.7446     0.0000    80.0000 </r>
       <r>    20.8282     0.0000    80.0000 </r>
       <r>    20.9118     0.0000    80.0000 </r>
       <r>    20.9954     0.0000    80.0000 </r>
       <r>    21.0790     0.0000    80.0000 </r>
       <r>    21.1627     0.0000    80.0000 </r>
       <r>    21.2463     0.0000    80.0000 </r>
       <r>    21.3299     0.0000    80.0000 </r>
       <r>    21.4135     0.0000    80.0000 </r>
       <r>    21.4971     0.0000    80.0000 </r>
       <r>    21.5808     0.0000    80.0000 </r>
      </set>
     </set>
    </array>
   </total>
  </dos>
 </calculation>
 <structure name="finalpos" >
  <crystal>
   <varray name="basis" >
    <v>       0.00000000       2.06110443       2.06110443 </v>
    <v>       4.17055179       0.00000000       0.00000000 </v>
    <v>       0.00000000       6.23553033      -6.23553033 </v>
   </varray>
   <i name="volume">    107.20052380 </i>
   <varray name="rec_basis" >
    <v>       0.00000000       0.24258839       0.24258839 </v>
    <v>       0.23977643       0.00000000       0.00000000 </v>
    <v>       0.00000000       0.08018564      -0.08018564 </v>
   </varray>
  </crystal>
  <varray name="positions" >
   <v>       0.00000000       0.00000000       0.66681594 </v>
   <v>       0.50000000       0.50000000       0.83318406 </v>
   <v>       0.00000000       0.00000000       0.99733214 </v>
   <v>       0.50000000       0.50000000       0.16575677 </v>
   <v>       0.00000000       0.00000000       0.33424323 </v>
   <v>       0.50000000       0.50000000       0.50266786 </v>
  </varray>
 </structure>
</modeling>
