<?xml version="1.0" encoding="ISO-8859-1"?>
<modeling>
 <generator>
  <i name="program" type="string">vasp </i>
  <i name="version" type="string">5.3.5  </i>
  <i name="subversion" type="string">31Mar14 (build Jun 20 2014 13:15:13) complex                          parallel </i>
  <i name="platform" type="string">LinuxIFC </i>
  <i name="date" type="string">2025 12 12 </i>
  <i name="time" type="string">12:08:15 </i>
 </generator>
 <incar>
  <i type="string" name="PREC">accurate</i>
  <i type="int" name="IALGO">    38</i>
  <i type="logical" name="ADDGRID"> T  </i>
  <i type="int" name="ISPIN">     2</i>
  <i type="int" name="NELM">   100</i>
  <i type="int" name="NELMIN">     4</i>
  <i name="EDIFF">      0.00000100</i>
  <i name="ENCUT">    500.00000000</i>
  <i type="logical" name="LREAL"> F  </i>
  <i type="int" name="ISMEAR">     0</i>
  <i name="SIGMA">      0.05000000</i>
  <i type="logical" name="LWAVE"> F  </i>
  <i type="logical" name="LCHARG"> F  </i>
  <i type="int" name="NELM">   100</i>
  <i type="logical" name="LDAU"> T  </i>
  <v name="LDAUU">      0.00000000      4.00000000      0.00000000</v>
  <v name="LDAUJ">      0.00000000      0.00000000      0.00000000</v>
 </incar>
 <kpoints>
  <generation param="Auto">
   <i name="subdivisionlength">     20.00000000 </i>
   <v type="int" name="divisions">       3        1        5 </v>
   <v name="usershift">      0.00000000       0.00000000       0.00000000 </v>
   <v name="genvec1">      0.33333333       0.00000000       0.00000000 </v>
   <v name="genvec2">      0.00000000       1.00000000       0.00000000 </v>
   <v name="genvec3">      0.00000000       0.00000000       0.20000000 </v>
   <v name="shift">      0.00000000       0.00000000       0.00000000 </v>
  </generation>
  <varray name="kpointlist" >
   <v>       0.00000000       0.00000000       0.00000000 </v>
   <v>       0.33333333       0.00000000       0.00000000 </v>
   <v>       0.00000000       0.00000000       0.20000000 </v>
   <v>       0.33333333       0.00000000       0.20000000 </v>
   <v>       0.00000000       0.00000000       0.40000000 </v>
   <v>       0.33333333       0.00000000       0.40000000 </v>
  </varray>
  <varray name="weights" >
   <v>       0.06666667 </v>
   <v>       0.13333333 </v>
   <v>       0.13333333 </v>
   <v>       0.26666667 </v>
   <v>       0.13333333 </v>
   <v>       0.26666667 </v>
  </varray>
 </kpoints>
 <parameters>
  <separator name="general" >
   <i type="string" name="SYSTEM">unknown system</i>
   <i type="logical" name="LCOMPAT"> F  </i>
  </separator>
  <separator name="electronic" >
   <i type="string" name="PREC">accura</i>
   <i name="ENMAX">    500.00000000</i>
   <i name="ENAUG">    586.98000000</i>
   <i name="EDIFF">      0.00000100</i>
   <i type="int" name="IALGO">    38</i>
   <i type="int" name="IWAVPR">    10</i>
   <i type="int" name="NBANDS">   176</i>
   <i name="NELECT">    264.00000000</i>
   <i type="int" name="TURBO">     0</i>
   <i type="int" name="IRESTART">     0</i>
   <i type="int" name="NREBOOT">     0</i>
   <i type="int" name="NMIN">     0</i>
   <i name="EREF">      0.00000000</i>
   <separator name="electronic smearing" >
    <i type="int" name="ISMEAR">     0</i>
    <i name="SIGMA">      0.05000000</i>
    <i name="KSPACING">      0.50000000</i>
    <i type="logical" name="KGAMMA"> T  </i>
   </separator>
   <separator name="electronic projectors" >
    <i type="logical" name="LREAL"> F  </i>
    <v name="ROPT">      0.00000000      0.00000000      0.00000000</v>
    <i type="int" name="LMAXPAW">  -100</i>
    <i type="int" name="LMAXMIX">     2</i>
    <i type="logical" name="NLSPLINE"> F  </i>
   </separator>
   <separator name="electronic startup" >
    <i type="int" name="ISTART">     0</i>
    <i type="int" name="ICHARG">     2</i>
    <i type="int" name="INIWAV">     1</i>
   </separator>
   <separator name="electronic spin" >
    <i type="int" name="ISPIN">     2</i>
    <i type="logical" name="LNONCOLLINEAR"> F  </i>
    <v name="MAGMOM">      1.00000000      1.00000000      1.00000000      1.00000000      1.00000000      1.00000000      1.00000000      1.00000000      1.00000000      1.00000000      1.00000000      1.00000000      1.00000000      1.00000000      1.00000000      1.00000000      1.00000000      1.00000000      1.00000000      1.00000000
      1.00000000      1.00000000      1.00000000      1.00000000      1.00000000      1.00000000      1.00000000      1.00000000      1.00000000      1.00000000      1.00000000      1.00000000</v>
    <i name="NUPDOWN">     -1.00000000</i>
    <i type="logical" name="LSORBIT"> F  </i>
    <v name="SAXIS">      0.00000000      0.00000000      1.00000000</v>
    <i type="logical" name="LSPIRAL"> F  </i>
    <v name="QSPIRAL">      0.00000000      0.00000000      0.00000000</v>
    <i type="logical" name="LZEROZ"> F  </i>
   </separator>
   <separator name="electronic exchange-correlation" >
    <i type="logical" name="LASPH"> F  </i>
    <i type="logical" name="LMETAGGA"> F  </i>
   </separator>
   <separator name="electronic convergence" >
    <i type="int" name="NELM">   100</i>
    <i type="int" name="NELMDL">    -5</i>
    <i type="int" name="NELMIN">     4</i>
    <i name="ENINI">    500.00000000</i>
    <separator name="electronic convergence detail" >
     <i type="logical" name="LDIAG"> T  </i>
     <i type="logical" name="LSUBROT"> F  </i>
     <i name="WEIMIN">      0.00000000</i>
     <i name="EBREAK">      0.00000000</i>
     <i name="DEPER">      0.30000000</i>
     <i type="int" name="NRMM">     4</i>
     <i name="TIME">      0.40000000</i>
    </separator>
   </separator>
   <separator name="electronic mixer" >
    <i name="AMIX">      0.40000000</i>
    <i name="BMIX">      1.00000000</i>
    <i name="AMIN">      0.10000000</i>
    <i name="AMIX_MAG">      1.60000000</i>
    <i name="BMIX_MAG">      1.00000000</i>
    <separator name="electronic mixer details" >
     <i type="int" name="IMIX">     4</i>
     <i type="int" name="MAXMIX">   -45</i>
     <i name="WC">    100.00000000</i>
     <i type="int" name="INIMIX">     1</i>
     <i type="int" name="MIXPRE">     1</i>
     <i type="int" name="MREMOVE">     5</i>
    </separator>
   </separator>
   <separator name="electronic dipolcorrection" >
    <i type="logical" name="LDIPOL"> F  </i>
    <i type="logical" name="LMONO"> F  </i>
    <i type="int" name="IDIPOL">     0</i>
    <i name="EPSILON">      1.00000000</i>
    <v name="DIPOL">   -100.00000000   -100.00000000   -100.00000000</v>
    <i name="EFIELD">      0.00000000</i>
   </separator>
  </separator>
  <separator name="grids" >
   <i type="int" name="NGX">    60</i>
   <i type="int" name="NGY">   120</i>
   <i type="int" name="NGZ">    30</i>
   <i type="int" name="NGXF">   120</i>
   <i type="int" name="NGYF">   240</i>
   <i type="int" name="NGZF">    60</i>
   <i type="logical" name="ADDGRID"> T  </i>
  </separator>
  <separator name="ionic" >
   <i type="int" name="NSW">     0</i>
   <i type="int" name="IBRION">    -1</i>
   <i type="int" name="ISIF">     2</i>
   <i name="PSTRESS">      0.00000000</i>
   <i name="EDIFFG">      0.00001000</i>
   <i type="int" name="NFREE">     0</i>
   <i name="POTIM">      0.50000000</i>
   <i name="SMASS">     -3.00000000</i>
   <i name="SCALEE">      1.00000000</i>
  </separator>
  <separator name="ionic md" >
   <i name="TEBEG">      0.00010000</i>
   <i name="TEEND">      0.00010000</i>
   <i type="int" name="NBLOCK">     1</i>
   <i type="int" name="KBLOCK">     1</i>
   <i type="int" name="NPACO">   256</i>
   <i name="APACO">     16.00000000</i>
  </separator>
  <separator name="symmetry" >
   <i type="int" name="ISYM">     2</i>
   <i name="SYMPREC">      0.00001000</i>
  </separator>
  <separator name="dos" >
   <i type="logical" name="LORBIT"> F  </i>
   <v name="RWIGS">     -1.00000000     -1.00000000     -1.00000000</v>
   <i type="int" name="NEDOS">   301</i>
   <i name="EMIN">     10.00000000</i>
   <i name="EMAX">    -10.00000000</i>
   <i name="EFERMI">      0.00000000</i>
  </separator>
  <separator name="writing" >
   <i type="int" name="NWRITE">     2</i>
   <i type="logical" name="LWAVE"> F  </i>
   <i type="logical" name="LCHARG"> F  </i>
   <i type="logical" name="LPARD"> F  </i>
   <i type="logical" name="LVTOT"> F  </i>
   <i type="logical" name="LVHAR"> F  </i>
   <i type="logical" name="LELF"> F  </i>
   <i type="logical" name="LOPTICS"> F  </i>
   <v name="STM">      0.00000000      0.00000000      0.00000000      0.00000000      0.00000000      0.00000000      0.00000000</v>
  </separator>
  <separator name="performance" >
   <i type="int" name="NPAR">     4</i>
   <i type="int" name="NSIM">     4</i>
   <i type="int" name="NBLK">    -1</i>
   <i type="logical" name="LPLANE"> T  </i>
   <i type="logical" name="LSCALAPACK"> T  </i>
   <i type="logical" name="LSCAAWARE"> F  </i>
   <i type="logical" name="LSCALU"> F  </i>
   <i type="logical" name="LASYNC"> F  </i>
   <i type="logical" name="LORBITALREAL"> F  </i>
  </separator>
  <separator name="miscellaneous" >
   <i type="int" name="IDIOT">     3</i>
   <i type="logical" name="LMUSIC"> F  </i>
   <v name="POMASS">     87.62000000     63.54600000     16.00000000</v>
   <v name="DARWINR">      0.00000000      0.00000000      0.00000000</v>
   <v name="DARWINV">      1.00000000      1.00000000      1.00000000</v>
   <i type="logical" name="LCORR"> T  </i>
  </separator>
  <i type="logical" name="GGA_COMPAT"> T  </i>
  <i type="logical" name="LBERRY"> F  </i>
  <i type="int" name="ICORELEVEL">     0</i>
  <i type="logical" name="LDAU"> T  </i>
  <v type="int" name="LDAUTYPE">     2</v>
  <v type="int" name="LDAUL">     2</v>
  <v name="LDAUU">      0.00000000</v>
  <v name="LDAUJ">      0.00000000</v>
  <i type="int" name="LDAUPRINT">     0</i>
  <i type="int" name="I_CONSTRAINED_M">     0</i>
  <separator name="electronic exchange-correlation" >
   <i type="string" name="GGA">--</i>
   <i type="int" name="VOSKOWN">     0</i>
   <i type="logical" name="LHFCALC"> F  </i>
   <i type="string" name="PRECFOCK"></i>
   <i type="logical" name="LSYMGRAD"> F  </i>
   <i type="logical" name="LHFONE"> F  </i>
   <i type="logical" name="LRHFCALC"> F  </i>
   <i type="logical" name="LTHOMAS"> F  </i>
   <i type="logical" name="LMODELHF"> F  </i>
   <i name="ENCUT4O">     -1.00000000</i>
   <i type="int" name="EXXOEP">     0</i>
   <i type="int" name="FOURORBIT">     0</i>
   <i name="AEXX">      0.00000000</i>
   <i name="HFALPHA">      0.00000000</i>
   <i name="MCALPHA">      0.00000000</i>
   <i name="ALDAX">      1.00000000</i>
   <i name="AGGAX">      1.00000000</i>
   <i name="ALDAC">      1.00000000</i>
   <i name="AGGAC">      1.00000000</i>
   <i type="int" name="NKREDX">     1</i>
   <i type="int" name="NKREDY">     1</i>
   <i type="int" name="NKREDZ">     1</i>
   <i type="logical" name="SHIFTRED"> F  </i>
   <i type="logical" name="ODDONLY"> F  </i>
   <i type="logical" name="EVENONLY"> F  </i>
   <i type="int" name="LMAXFOCK">     0</i>
   <i type="int" name="NMAXFOCKAE">     0</i>
   <i type="logical" name="LFOCKAEDFT"> F  </i>
   <i name="HFSCREEN">      0.00000000</i>
   <i name="HFSCREENC">      0.00000000</i>
   <i type="int" name="NBANDSGWLOW">     0</i>
  </separator>
  <separator name="vdW DFT" >
   <i type="logical" name="LUSE_VDW"> F  </i>
   <i name="Zab_VDW">     -0.84910000</i>
   <i name="PARAM1">      0.12340000</i>
   <i name="PARAM2">      1.00000000</i>
   <i name="PARAM3">      0.00000000</i>
  </separator>
  <separator name="model GW" >
   <i type="int" name="MODEL_GW">     0</i>
   <i name="MODEL_EPS0">      9.60000000</i>
   <i name="MODEL_ALPHA">      1.00000000</i>
  </separator>
  <separator name="linear response parameters" >
   <i type="logical" name="LEPSILON"> F  </i>
   <i type="logical" name="LRPA"> F  </i>
   <i type="logical" name="LNABLA"> F  </i>
   <i type="logical" name="LVEL"> F  </i>
   <i type="int" name="KINTER">     0</i>
   <i name="CSHIFT">      0.10000000</i>
   <i name="OMEGAMAX">     -1.00000000</i>
   <i name="DEG_THRESHOLD">      0.00200000</i>
  </separator>
  <separator name="orbital magnetization" >
   <i type="logical" name="NUCIND"> F  </i>
   <v name="MAGPOS">      0.00000000      0.00000000      0.00000000</v>
   <i type="logical" name="LNICSALL"> T  </i>
   <i type="logical" name="ORBITALMAG"> F  </i>
   <i type="logical" name="LMAGBLOCH"> F  </i>
   <i type="logical" name="LCHIMAG"> F  </i>
   <i type="logical" name="LGAUGE"> T  </i>
   <i type="int" name="MAGATOM">     0</i>
   <v name="MAGDIPOL">      0.00000000      0.00000000      0.00000000</v>
   <v name="AVECCONST">      0.00000000      0.00000000      0.00000000</v>
  </separator>
  <separator name="response functions" >
   <i type="logical" name="LADDER"> F  </i>
   <i type="logical" name="LFXC"> F  </i>
   <i type="logical" name="LHARTREE"> T  </i>
   <i type="int" name="IBSE">     0</i>
   <i type="logical" name="LTCTE"> F  </i>
   <i type="logical" name="LTETE"> F  </i>
   <i type="logical" name="LTRIPLET"> F  </i>
   <i type="logical" name="LFXCEPS"> F  </i>
   <i type="logical" name="LFXHEG"> F  </i>
   <i type="logical" name="L2ORDER"> F  </i>
   <i type="logical" name="LUSEW"> F  </i>
   <i name="ENCUTGW">     -2.00000000</i>
   <i name="ENCUTGWSOFT">     -2.00000000</i>
   <i name="ENCUTLF">     -1.00000000</i>
   <i type="int" name="LMAXMP2">    -1</i>
   <i name="SCISSOR">      0.00000000</i>
   <i type="int" name="NOMEGA">     0</i>
   <i type="int" name="NOMEGAR">     0</i>
   <i type="int" name="NBANDSGW">    -1</i>
   <i type="int" name="NBANDSO">    -1</i>
   <i type="int" name="NBANDSV">    -1</i>
   <i type="int" name="NELM">   100</i>
   <i type="int" name="DIM">     3</i>
   <i type="int" name="ANTIRES">     0</i>
   <i name="OMEGAMAX">    -30.00000000</i>
   <i name="OMEGAMIN">    -30.00000000</i>
   <i name="OMEGATL">   -200.00000000</i>
   <i type="int" name="OMEGAGRID">     0</i>
   <i name="CSHIFT">     -0.10000000</i>
   <i type="logical" name="SELFENERGY"> F  </i>
   <i type="logical" name="LSPECTRAL"> F  </i>
   <i type="logical" name="ODDONLYGW"> F  </i>
   <i type="logical" name="EVENONLYGW"> F  </i>
   <i type="int" name="NKREDLFX">     1</i>
   <i type="int" name="NKREDLFY">     1</i>
   <i type="int" name="NKREDLFZ">     1</i>
   <i type="int" name="MAXMEM">  1800</i>
   <i type="int" name="TELESCOPE">     0</i>
   <i type="int" name="TAUPAR">     1</i>
  </separator>
  <separator name="External order field" >
   <i name="OFIELD_KAPPA">      0.00000000</i>
   <v name="OFIELD_K">      0.00000000      0.00000000      0.00000000</v>
   <i name="OFIELD_Q6_NEAR">      0.00000000</i>
   <i name="OFIELD_Q6_FAR">      0.00000000</i>
   <i name="OFIELD_A">      0.00000000</i>
  </separator>
 </parameters>
 <atominfo>
  <atoms>      32 </atoms>
  <types>       3 </types>
  <array name="atoms" >
   <dimension dim="1">ion</dimension>
   <field type="string">element</field>
   <field type="int">atomtype</field>
   <set>
    <rc><c>Sr</c><c>   1</c></rc>
    <rc><c>Sr</c><c>   1</c></rc>
    <rc><c>Sr</c><c>   1</c></rc>
    <rc><c>Sr</c><c>   1</c></rc>
    <rc><c>Sr</c><c>   1</c></rc>
    <rc><c>Sr</c><c>   1</c></rc>
    <rc><c>Sr</c><c>   1</c></rc>
    <rc><c>Sr</c><c>   1</c></rc>
    <rc><c>Cu</c><c>   2</c></rc>
    <rc><c>Cu</c><c>   2</c></rc>
    <rc><c>Cu</c><c>   2</c></rc>
    <rc><c>Cu</c><c>   2</c></rc>
    <rc><c>Cu</c><c>   2</c></rc>
    <rc><c>Cu</c><c>   2</c></rc>
    <rc><c>Cu</c><c>   2</c></rc>
    <rc><c>Cu</c><c>   2</c></rc>
    <rc><c>O </c><c>   3</c></rc>
    <rc><c>O </c><c>   3</c></rc>
    <rc><c>O </c><c>   3</c></rc>
    <rc><c>O </c><c>   3</c></rc>
    <rc><c>O </c><c>   3</c></rc>
    <rc><c>O </c><c>   3</c></rc>
    <rc><c>O </c><c>   3</c></rc>
    <rc><c>O </c><c>   3</c></rc>
    <rc><c>O </c><c>   3</c></rc>
    <rc><c>O </c><c>   3</c></rc>
    <rc><c>O </c><c>   3</c></rc>
    <rc><c>O </c><c>   3</c></rc>
    <rc><c>O </c><c>   3</c></rc>
    <rc><c>O </c><c>   3</c></rc>
    <rc><c>O </c><c>   3</c></rc>
    <rc><c>O </c><c>   3</c></rc>
   </set>
  </array>
  <array name="atomtypes" >
   <dimension dim="1">type</dimension>
   <field type="int">atomspertype</field>
   <field type="string">element</field>
   <field>mass</field>
   <field>valence</field>
   <field type="string">pseudopotential</field>
   <set>
    <rc><c>   8</c><c>Sr</c><c>     87.62000000</c><c>     10.00000000</c><c>  PAW_PBE Sr_sv 07Sep2000               </c></rc>
    <rc><c>   8</c><c>Cu</c><c>     63.54600000</c><c>     11.00000000</c><c>  PAW_PBE Cu 22Jun2005                  </c></rc>
    <rc><c>  16</c><c>O </c><c>     16.00000000</c><c>      6.00000000</c><c>  PAW_PBE O_s 07Sep2000                 </c></rc>
   </set>
  </array>
 </atominfo>
 <structure name="initialpos" >
  <crystal>
   <varray name="basis" >
    <v>       8.00000000       0.00000000       0.00000000 </v>
    <v>       0.00000000      16.00000000       0.00000000 </v>
    <v>       0.00000000       0.00000000       4.00000000 </v>
   </varray>
   <i name="volume">    512.00000000 </i>
   <varray name="rec_basis" >
    <v>       0.12500000       0.00000000       0.00000000 </v>
    <v>       0.00000000       0.06250000       0.00000000 </v>
    <v>       0.00000000       0.00000000       0.25000000 </v>
   </varray>
  </crystal>
  <varray name="positions" >
   <v>       0.75000000       0.12500000       0.00000000 </v>
   <v>       0.25000000       0.37500000       0.00000000 </v>
   <v>       0.25000000       0.12500000       0.00000000 </v>
   <v>       0.75000000       0.37500000       0.00000000 </v>
   <v>       0.25000000       0.62500000       0.00000000 </v>
   <v>       0.75000000       0.87500000       0.00000000 </v>
   <v>       0.75000000       0.62500000       0.00000000 </v>
   <v>       0.25000000       0.87500000       0.00000000 </v>
   <v>       0.50000000       0.50000000       0.50000000 </v>
   <v>       0.50000000       0.25000000       0.50000000 </v>
   <v>       0.00000000       0.50000000       0.50000000 </v>
   <v>       0.00000000       0.25000000       0.50000000 </v>
   <v>       0.00000000       0.00000000       0.50000000 </v>
   <v>       0.00000000       0.75000000       0.50000000 </v>
   <v>       0.50000000       0.00000000       0.50000000 </v>
   <v>       0.50000000       0.75000000       0.50000000 </v>
   <v>       0.50000000       0.12500000       0.50000000 </v>
   <v>       0.00000000       0.37500000       0.50000000 </v>
   <v>       0.50000000       0.50000000       0.00000000 </v>
   <v>       0.00000000       0.50000000       0.00000000 </v>
   <v>       0.25000000       0.50000000       0.50000000 </v>
   <v>       0.25000000       0.25000000       0.50000000 </v>
   <v>       0.75000000       0.50000000       0.50000000 </v>
   <v>       0.75000000       0.25000000       0.50000000 </v>
   <v>       0.00000000       0.62500000       0.50000000 </v>
   <v>       0.50000000       0.87500000       0.50000000 </v>
   <v>       0.00000000       0.00000000       0.00000000 </v>
   <v>       0.50000000       0.00000000       0.00000000 </v>
   <v>       0.75000000       0.00000000       0.50000000 </v>
   <v>       0.75000000       0.75000000       0.50000000 </v>
   <v>       0.25000000       0.00000000       0.50000000 </v>
   <v>       0.25000000       0.75000000       0.50000000 </v>
  </varray>
 </structure>
 <calculation>
  <scstep>
   <time name="dav">    4.05    4.06</time>
   <time name="total">    4.25    4.26</time>
   <energy>
    <i name="alphaZ">   1197.30728288 </i>
    <i name="ewald"> -17159.16196505 </i>
    <i name="hartreedc">  -7729.14328726 </i>
    <i name="XCdc">   1086.30225399 </i>
    <i name="pawpsdc">  20377.93945936 </i>
    <i name="pawaedc"> -21035.46554250 </i>
    <i name="eentropy">     -0.01161668 </i>
    <i name="bandstr">   1905.40090822 </i>
    <i name="atom">  24790.01456472 </i>
    <i name="e_fr_energy">   3433.18205767 </i>
    <i name="e_wo_entrp">   3433.19367435 </i>
    <i name="e_0_energy">   3433.18786601 </i>
   </energy>
  </scstep>
  <scstep>
   <time name="dav">    4.12    4.12</time>
   <time name="total">    4.12    4.13</time>
   <energy>
    <i name="e_fr_energy">    394.55101746 </i>
    <i name="e_wo_entrp">    394.55604194 </i>
    <i name="e_0_energy">    394.55352970 </i>
   </energy>
  </scstep>
  <scstep>
   <time name="dav">    4.03    4.03</time>
   <time name="total">    4.03    4.05</time>
   <energy>
    <i name="e_fr_energy">   -142.74758611 </i>
    <i name="e_wo_entrp">   -142.72709542 </i>
    <i name="e_0_energy">   -142.73734076 </i>
   </energy>
  </scstep>
  <scstep>
   <time name="dav">    5.31    5.31</time>
   <time name="total">    5.31    5.32</time>
   <energy>
    <i name="e_fr_energy">   -191.23176714 </i>
    <i name="e_wo_entrp">   -191.21175539 </i>
    <i name="e_0_energy">   -191.22176126 </i>
   </energy>
  </scstep>
  <scstep>
   <time name="dav">    6.35    6.35</time>
   <time name="total">    6.69    6.70</time>
   <energy>
    <i name="e_fr_energy">   -194.25264085 </i>
    <i name="e_wo_entrp">   -194.22661071 </i>
    <i name="e_0_energy">   -194.23962578 </i>
   </energy>
  </scstep>
  <scstep>
   <time name="dav">    5.50    5.54</time>
   <time name="total">    6.03    6.08</time>
   <energy>
    <i name="e_fr_energy">   -168.65853949 </i>
    <i name="e_wo_entrp">   -168.64080253 </i>
    <i name="e_0_energy">   -168.64967101 </i>
   </energy>
  </scstep>
  <scstep>
   <time name="dav">    5.42    5.42</time>
   <time name="total">    5.94    5.96</time>
   <energy>
    <i name="e_fr_energy">   -157.52601742 </i>
    <i name="e_wo_entrp">   -157.51380583 </i>
    <i name="e_0_energy">   -157.51991163 </i>
   </energy>
  </scstep>
  <scstep>
   <time name="dav">    5.80    5.84</time>
   <time name="total">    6.33    6.39</time>
   <energy>
    <i name="e_fr_energy">   -160.43457843 </i>
    <i name="e_wo_entrp">   -160.41275540 </i>
    <i name="e_0_energy">   -160.42366692 </i>
   </energy>
  </scstep>
  <scstep>
   <time name="dav">    5.97    5.97</time>
   <time name="total">    6.49    6.51</time>
   <energy>
    <i name="e_fr_energy">   -163.26096643 </i>
    <i name="e_wo_entrp">   -163.24721766 </i>
    <i name="e_0_energy">   -163.25409204 </i>
   </energy>
  </scstep>
  <scstep>
   <time name="dav">    5.55    5.55</time>
   <time name="total">    6.08    6.09</time>
   <energy>
    <i name="e_fr_energy">   -158.47803305 </i>
    <i name="e_wo_entrp">   -158.47000252 </i>
    <i name="e_0_energy">   -158.47401779 </i>
   </energy>
  </scstep>
  <scstep>
   <time name="dav">    5.50    5.50</time>
   <time name="total">    6.03    6.05</time>
   <energy>
    <i name="e_fr_energy">   -156.29446119 </i>
    <i name="e_wo_entrp">   -156.27136638 </i>
    <i name="e_0_energy">   -156.28291379 </i>
   </energy>
  </scstep>
  <scstep>
   <time name="dav">    5.54    5.54</time>
   <time name="total">    6.06    6.08</time>
   <energy>
    <i name="e_fr_energy">   -156.56379420 </i>
    <i name="e_wo_entrp">   -156.55631787 </i>
    <i name="e_0_energy">   -156.56005603 </i>
   </energy>
  </scstep>
  <scstep>
   <time name="dav">    5.75    5.75</time>
   <time name="total">    6.28    6.29</time>
   <energy>
    <i name="e_fr_energy">   -156.48871326 </i>
    <i name="e_wo_entrp">   -156.48159615 </i>
    <i name="e_0_energy">   -156.48515471 </i>
   </energy>
  </scstep>
  <scstep>
   <time name="dav">    5.57    5.57</time>
   <time name="total">    6.09    6.11</time>
   <energy>
    <i name="e_fr_energy">   -156.72780647 </i>
    <i name="e_wo_entrp">   -156.72012070 </i>
    <i name="e_0_energy">   -156.72396359 </i>
   </energy>
  </scstep>
  <scstep>
   <time name="dav">    5.40    5.40</time>
   <time name="total">    5.92    5.94</time>
   <energy>
    <i name="e_fr_energy">   -157.24719362 </i>
    <i name="e_wo_entrp">   -157.22952505 </i>
    <i name="e_0_energy">   -157.23835934 </i>
   </energy>
  </scstep>
  <scstep>
   <time name="dav">    5.37    5.37</time>
   <time name="total">    5.89    5.91</time>
   <energy>
    <i name="e_fr_energy">   -157.44252844 </i>
    <i name="e_wo_entrp">   -157.43074345 </i>
    <i name="e_0_energy">   -157.43663594 </i>
   </energy>
  </scstep>
  <scstep>
   <time name="dav">    5.48    5.48</time>
   <time name="total">    6.01    6.02</time>
   <energy>
    <i name="e_fr_energy">   -157.50094122 </i>
    <i name="e_wo_entrp">   -157.48902213 </i>
    <i name="e_0_energy">   -157.49498167 </i>
   </energy>
  </scstep>
  <scstep>
   <time name="dav">    5.57    5.57</time>
   <time name="total">    6.12    6.13</time>
   <energy>
    <i name="e_fr_energy">   -157.50547758 </i>
    <i name="e_wo_entrp">   -157.49411704 </i>
    <i name="e_0_energy">   -157.49979731 </i>
   </energy>
  </scstep>
  <scstep>
   <time name="dav">    5.64    5.64</time>
   <time name="total">    6.17    6.18</time>
   <energy>
    <i name="e_fr_energy">   -157.50295417 </i>
    <i name="e_wo_entrp">   -157.48767312 </i>
    <i name="e_0_energy">   -157.49531365 </i>
   </energy>
  </scstep>
  <scstep>
   <time name="dav">    5.47    5.47</time>
   <time name="total">    6.00    6.01</time>
   <energy>
    <i name="e_fr_energy">   -157.50544399 </i>
    <i name="e_wo_entrp">   -157.49274669 </i>
    <i name="e_0_energy">   -157.49909534 </i>
   </energy>
  </scstep>
  <scstep>
   <time name="dav">    5.64    5.64</time>
   <time name="total">    6.16    6.18</time>
   <energy>
    <i name="e_fr_energy">   -157.50624239 </i>
    <i name="e_wo_entrp">   -157.49334334 </i>
    <i name="e_0_energy">   -157.49979287 </i>
   </energy>
  </scstep>
  <scstep>
   <time name="dav">    5.37    5.37</time>
   <time name="total">    5.90    5.91</time>
   <energy>
    <i name="e_fr_energy">   -157.50653099 </i>
    <i name="e_wo_entrp">   -157.49390838 </i>
    <i name="e_0_energy">   -157.50021968 </i>
   </energy>
  </scstep>
  <scstep>
   <time name="dav">    5.84    5.84</time>
   <time name="total">    6.36    6.38</time>
   <energy>
    <i name="e_fr_energy">   -157.50658086 </i>
    <i name="e_wo_entrp">   -157.49448742 </i>
    <i name="e_0_energy">   -157.50053414 </i>
   </energy>
  </scstep>
  <scstep>
   <time name="dav">    5.55    5.55</time>
   <time name="total">    6.07    6.09</time>
   <energy>
    <i name="e_fr_energy">   -157.50659196 </i>
    <i name="e_wo_entrp">   -157.49468166 </i>
    <i name="e_0_energy">   -157.50063681 </i>
   </energy>
  </scstep>
  <scstep>
   <time name="dav">    5.30    5.30</time>
   <time name="total">    5.83    5.86</time>
   <energy>
    <i name="e_fr_energy">   -157.50659624 </i>
    <i name="e_wo_entrp">   -157.49457252 </i>
    <i name="e_0_energy">   -157.50058438 </i>
   </energy>
  </scstep>
  <scstep>
   <time name="dav">    5.25    5.26</time>
   <time name="total">    5.78    5.80</time>
   <energy>
    <i name="e_fr_energy">   -157.50660230 </i>
    <i name="e_wo_entrp">   -157.49448216 </i>
    <i name="e_0_energy">   -157.50054223 </i>
   </energy>
  </scstep>
  <scstep>
   <time name="dav">    4.80    4.80</time>
   <time name="total">    5.33    5.34</time>
   <energy>
    <i name="e_fr_energy">   -157.50660693 </i>
    <i name="e_wo_entrp">   -157.49448158 </i>
    <i name="e_0_energy">   -157.50054426 </i>
   </energy>
  </scstep>
  <scstep>
   <time name="dav">    3.98    4.00</time>
   <time name="total">    4.51    4.54</time>
   <energy>
    <i name="e_fr_energy">   -157.50660987 </i>
    <i name="e_wo_entrp">   -157.49444380 </i>
    <i name="e_0_energy">   -157.50052683 </i>
   </energy>
  </scstep>
  <scstep>
   <time name="dav">    3.79    3.79</time>
   <time name="total">    4.32    4.34</time>
   <energy>
    <i name="e_fr_energy">   -157.50661222 </i>
    <i name="e_wo_entrp">   -157.49441730 </i>
    <i name="e_0_energy">   -157.50051476 </i>
   </energy>
  </scstep>
  <scstep>
   <time name="dav">    3.24    3.24</time>
   <time name="total">    3.44    3.45</time>
   <energy>
    <i name="alphaZ">   1197.30728288 </i>
    <i name="ewald"> -17159.16196505 </i>
    <i name="hartreedc">  -7745.70965972 </i>
    <i name="XCdc">   1086.91234161 </i>
    <i name="pawpsdc">  31089.91268983 </i>
    <i name="pawaedc"> -31819.81600659 </i>
    <i name="eentropy">     -0.01220350 </i>
    <i name="bandstr">  -1596.95365649 </i>
    <i name="atom">  24790.01456472 </i>
    <i name="e_fr_energy">   -157.50661230 </i>
    <i name="e_wo_entrp">   -157.49440880 </i>
    <i name="e_0_energy">   -157.50051055 </i>
   </energy>
  </scstep>
  <structure>
   <crystal>
    <varray name="basis" >
     <v>       8.00000000       0.00000000       0.00000000 </v>
     <v>       0.00000000      16.00000000       0.00000000 </v>
     <v>       0.00000000       0.00000000       4.00000000 </v>
    </varray>
    <i name="volume">    512.00000000 </i>
    <varray name="rec_basis" >
     <v>       0.12500000       0.00000000       0.00000000 </v>
     <v>       0.00000000       0.06250000       0.00000000 </v>
     <v>       0.00000000       0.00000000       0.25000000 </v>
    </varray>
   </crystal>
   <varray name="positions" >
    <v>       0.75000000       0.12500000       0.00000000 </v>
    <v>       0.25000000       0.37500000       0.00000000 </v>
    <v>       0.25000000       0.12500000       0.00000000 </v>
    <v>       0.75000000       0.37500000       0.00000000 </v>
    <v>       0.25000000       0.62500000       0.00000000 </v>
    <v>       0.75000000       0.87500000       0.00000000 </v>
    <v>       0.75000000       0.62500000       0.00000000 </v>
    <v>       0.25000000       0.87500000       0.00000000 </v>
    <v>       0.50000000       0.50000000       0.50000000 </v>
    <v>       0.50000000       0.25000000       0.50000000 </v>
    <v>       0.00000000       0.50000000       0.50000000 </v>
    <v>       0.00000000       0.25000000       0.50000000 </v>
    <v>       0.00000000       0.00000000       0.50000000 </v>
    <v>       0.00000000       0.75000000       0.50000000 </v>
    <v>       0.50000000       0.00000000       0.50000000 </v>
    <v>       0.50000000       0.75000000       0.50000000 </v>
    <v>       0.50000000       0.12500000       0.50000000 </v>
    <v>       0.00000000       0.37500000       0.50000000 </v>
    <v>       0.50000000       0.50000000       0.00000000 </v>
    <v>       0.00000000       0.50000000       0.00000000 </v>
    <v>       0.25000000       0.50000000       0.50000000 </v>
    <v>       0.25000000       0.25000000       0.50000000 </v>
    <v>       0.75000000       0.50000000       0.50000000 </v>
    <v>       0.75000000       0.25000000       0.50000000 </v>
    <v>       0.00000000       0.62500000       0.50000000 </v>
    <v>       0.50000000       0.87500000       0.50000000 </v>
    <v>       0.00000000       0.00000000       0.00000000 </v>
    <v>       0.50000000       0.00000000       0.00000000 </v>
    <v>       0.75000000       0.00000000       0.50000000 </v>
    <v>       0.75000000       0.75000000       0.50000000 </v>
    <v>       0.25000000       0.00000000       0.50000000 </v>
    <v>       0.25000000       0.75000000       0.50000000 </v>
   </varray>
  </structure>
  <varray name="forces" >
   <v>      -1.46069726      -1.45388020       0.00000000 </v>
   <v>      -1.46069726       1.45388020       0.00000000 </v>
   <v>       1.46069726      -1.45388020       0.00000000 </v>
   <v>       1.46069726       1.45388020       0.00000000 </v>
   <v>      -1.46069726      -1.45388020       0.00000000 </v>
   <v>      -1.46069726       1.45388020       0.00000000 </v>
   <v>       1.46069726      -1.45388020       0.00000000 </v>
   <v>       1.46069726       1.45388020       0.00000000 </v>
   <v>       0.00000000       0.00000000       0.00000000 </v>
   <v>       0.00000000      -0.90925925       0.00000000 </v>
   <v>       0.00000000       0.00000000       0.00000000 </v>
   <v>       0.00000000       0.90925925       0.00000000 </v>
   <v>       0.00000000       0.00000000       0.00000000 </v>
   <v>       0.00000000      -0.90925925       0.00000000 </v>
   <v>       0.00000000       0.00000000       0.00000000 </v>
   <v>       0.00000000       0.90925925       0.00000000 </v>
   <v>       0.00000000      -0.05800707       0.00000000 </v>
   <v>       0.00000000       0.05800707       0.00000000 </v>
   <v>       0.00000000       0.00000000       0.00000000 </v>
   <v>       0.00000000       0.00000000       0.00000000 </v>
   <v>       1.27673596       0.00000000       0.00000000 </v>
   <v>       0.00000000       0.00000000       0.00000000 </v>
   <v>      -1.27673596       0.00000000       0.00000000 </v>
   <v>       0.00000000       0.00000000       0.00000000 </v>
   <v>       0.00000000      -0.05800707       0.00000000 </v>
   <v>       0.00000000       0.05800707       0.00000000 </v>
   <v>       0.00000000       0.00000000       0.00000000 </v>
   <v>       0.00000000       0.00000000       0.00000000 </v>
   <v>       1.27673596       0.00000000       0.00000000 </v>
   <v>       0.00000000       0.00000000       0.00000000 </v>
   <v>      -1.27673596       0.00000000       0.00000000 </v>
   <v>       0.00000000       0.00000000       0.00000000 </v>
  </varray>
  <varray name="stress" >
   <v>     -93.67260912       0.00000000       0.00000000 </v>
   <v>       0.00000000     -89.82261398       0.00000000 </v>
   <v>       0.00000000       0.00000000    -107.29613110 </v>
  </varray>
  <energy>
   <i name="e_fr_energy">   -157.50661230 </i>
   <i name="e_wo_entrp">   -157.50051055 </i>
   <i name="e_0_energy">     -0.01220350 </i>
  </energy>
  <time name="totalsc">  176.90  177.52</time>
  <eigenvalues>
   <array>
    <dimension dim="1">band</dimension>
    <dimension dim="2">kpoint</dimension>
    <dimension dim="3">spin</dimension>
    <field>eigene</field>
    <field>occ</field>
    <set>
     <set comment="spin 1">
      <set comment="kpoint 1">
       <r>  -31.3999    1.0000 </r>
       <r>  -31.3932    1.0000 </r>
       <r>  -31.3928    1.0000 </r>
       <r>  -31.3864    1.0000 </r>
       <r>  -31.3861    1.0000 </r>
       <r>  -31.3804    1.0000 </r>
       <r>  -31.3796    1.0000 </r>
       <r>  -31.3735    1.0000 </r>
       <r>  -15.0269    1.0000 </r>
       <r>  -14.9006    1.0000 </r>
       <r>  -14.7746    1.0000 </r>
       <r>  -14.6882    1.0000 </r>
       <r>  -14.6691    1.0000 </r>
       <r>  -14.6300    1.0000 </r>
       <r>  -14.5774    1.0000 </r>
       <r>  -14.5501    1.0000 </r>
       <r>  -14.1310    1.0000 </r>
       <r>  -14.1289    1.0000 </r>
       <r>  -14.0787    1.0000 </r>
       <r>  -13.9581    1.0000 </r>
       <r>  -13.6561    1.0000 </r>
       <r>  -13.5980    1.0000 </r>
       <r>  -13.4093    1.0000 </r>
       <r>  -13.4058    1.0000 </r>
       <r>  -13.3946    1.0000 </r>
       <r>  -13.3896    1.0000 </r>
       <r>  -13.3783    1.0000 </r>
       <r>  -13.3671    1.0000 </r>
       <r>  -13.2935    1.0000 </r>
       <r>  -13.2789    1.0000 </r>
       <r>  -13.2659    1.0000 </r>
       <r>  -13.2624    1.0000 </r>
       <r>  -13.2603    1.0000 </r>
       <r>  -13.2517    1.0000 </r>
       <r>  -13.2437    1.0000 </r>
       <r>  -13.2358    1.0000 </r>
       <r>  -13.2327    1.0000 </r>
       <r>  -13.2166    1.0000 </r>
       <r>  -13.1338    1.0000 </r>
       <r>  -13.0449    1.0000 </r>
       <r>  -12.9893    1.0000 </r>
       <r>  -12.9782    1.0000 </r>
       <r>  -12.9238    1.0000 </r>
       <r>  -12.9213    1.0000 </r>
       <r>  -12.9149    1.0000 </r>
       <r>  -12.8137    1.0000 </r>
       <r>  -12.7896    1.0000 </r>
       <r>  -12.7734    1.0000 </r>
       <r>   -2.9833    1.0000 </r>
       <r>   -2.9290    1.0000 </r>
       <r>   -2.8237    1.0000 </r>
       <r>   -2.8168    1.0000 </r>
       <r>   -2.2263    1.0000 </r>
       <r>   -2.1741    1.0000 </r>
       <r>   -2.0030    1.0000 </r>
       <r>   -1.7971    1.0000 </r>
       <r>   -1.5017    1.0000 </r>
       <r>   -1.4893    1.0000 </r>
       <r>   -1.4708    1.0000 </r>
       <r>   -1.3958    1.0000 </r>
       <r>   -1.3892    1.0000 </r>
       <r>   -1.3362    1.0000 </r>
       <r>   -1.2651    1.0000 </r>
       <r>   -1.2064    1.0000 </r>
       <r>   -1.1862    1.0000 </r>
       <r>   -1.1736    1.0000 </r>
       <r>   -0.9456    1.0000 </r>
       <r>   -0.9434    1.0000 </r>
       <r>   -0.9326    1.0000 </r>
       <r>   -0.9207    1.0000 </r>
       <r>   -0.8958    1.0000 </r>
       <r>   -0.8940    1.0000 </r>
       <r>   -0.8744    1.0000 </r>
       <r>   -0.8331    1.0000 </r>
       <r>   -0.7638    1.0000 </r>
       <r>   -0.7347    1.0000 </r>
       <r>   -0.7074    1.0000 </r>
       <r>   -0.7041    1.0000 </r>
       <r>   -0.6515    1.0000 </r>
       <r>   -0.5838    1.0000 </r>
       <r>   -0.5747    1.0000 </r>
       <r>   -0.5258    1.0000 </r>
       <r>   -0.5133    1.0000 </r>
       <r>   -0.4925    1.0000 </r>
       <r>   -0.4137    1.0000 </r>
       <r>   -0.3785    1.0000 </r>
       <r>   -0.3701    1.0000 </r>
       <r>   -0.3468    1.0000 </r>
       <r>   -0.3296    1.0000 </r>
       <r>   -0.2889    1.0000 </r>
       <r>   -0.2888    1.0000 </r>
       <r>   -0.2797    1.0000 </r>
       <r>   -0.2541    1.0000 </r>
       <r>   -0.2294    1.0000 </r>
       <r>   -0.1786    1.0000 </r>
       <r>   -0.1483    1.0000 </r>
       <r>   -0.0676    1.0000 </r>
       <r>   -0.0516    1.0000 </r>
       <r>    0.0440    1.0000 </r>
       <r>    0.1729    1.0000 </r>
       <r>    0.1777    1.0000 </r>
       <r>    0.2341    1.0000 </r>
       <r>    0.2903    1.0000 </r>
       <r>    0.5328    1.0000 </r>
       <r>    0.6981    1.0000 </r>
       <r>    0.7041    1.0000 </r>
       <r>    0.7517    1.0000 </r>
       <r>    1.0283    1.0000 </r>
       <r>    1.1646    1.0000 </r>
       <r>    1.1878    1.0000 </r>
       <r>    1.2379    1.0000 </r>
       <r>    1.3683    1.0000 </r>
       <r>    1.3793    1.0000 </r>
       <r>    1.3829    1.0000 </r>
       <r>    1.4627    1.0000 </r>
       <r>    1.4998    1.0000 </r>
       <r>    1.5148    1.0000 </r>
       <r>    1.5614    1.0000 </r>
       <r>    1.6240    1.0000 </r>
       <r>    1.6530    1.0000 </r>
       <r>    1.7256    1.0000 </r>
       <r>    1.7608    1.0000 </r>
       <r>    1.7849    1.0000 </r>
       <r>    1.7933    1.0000 </r>
       <r>    1.7948    1.0000 </r>
       <r>    1.8211    1.0000 </r>
       <r>    1.8385    1.0000 </r>
       <r>    1.8684    1.0000 </r>
       <r>    1.9475    1.0000 </r>
       <r>    1.9937    1.0000 </r>
       <r>    2.0964    1.0000 </r>
       <r>    2.2851    1.0000 </r>
       <r>    2.4202    1.0000 </r>
       <r>    2.5016    1.0000 </r>
       <r>    2.6032    0.9930 </r>
       <r>    2.6900    0.5011 </r>
       <r>    3.1871    0.0000 </r>
       <r>    3.3112    0.0000 </r>
       <r>    4.7134    0.0000 </r>
       <r>    5.2774    0.0000 </r>
       <r>    5.9393    0.0000 </r>
       <r>    6.1785    0.0000 </r>
       <r>    6.3342    0.0000 </r>
       <r>    6.8298    0.0000 </r>
       <r>    7.0817    0.0000 </r>
       <r>    7.1990    0.0000 </r>
       <r>    7.2038    0.0000 </r>
       <r>    7.3424    0.0000 </r>
       <r>    7.4459    0.0000 </r>
       <r>    7.6812    0.0000 </r>
       <r>    7.9984    0.0000 </r>
       <r>    8.1385    0.0000 </r>
       <r>    8.2431    0.0000 </r>
       <r>    8.2785    0.0000 </r>
       <r>    8.2810    0.0000 </r>
       <r>    8.3064    0.0000 </r>
       <r>    8.4541    0.0000 </r>
       <r>    8.5308    0.0000 </r>
       <r>    8.5820    0.0000 </r>
       <r>    8.8027    0.0000 </r>
       <r>    8.8503    0.0000 </r>
       <r>    8.9106    0.0000 </r>
       <r>    8.9809    0.0000 </r>
       <r>    9.2885    0.0000 </r>
       <r>    9.5832    0.0000 </r>
       <r>    9.6003    0.0000 </r>
       <r>    9.6027    0.0000 </r>
       <r>    9.6176    0.0000 </r>
       <r>    9.6872    0.0000 </r>
       <r>    9.6906    0.0000 </r>
       <r>    9.7650    0.0000 </r>
       <r>    9.7855    0.0000 </r>
       <r>    9.7907    0.0000 </r>
       <r>    9.8546    0.0000 </r>
       <r>   10.0686    0.0000 </r>
       <r>   10.0929    0.0000 </r>
      </set>
      <set comment="kpoint 2">
       <r>  -31.3966    1.0000 </r>
       <r>  -31.3900    1.0000 </r>
       <r>  -31.3899    1.0000 </r>
       <r>  -31.3894    1.0000 </r>
       <r>  -31.3837    1.0000 </r>
       <r>  -31.3829    1.0000 </r>
       <r>  -31.3829    1.0000 </r>
       <r>  -31.3767    1.0000 </r>
       <r>  -14.9642    1.0000 </r>
       <r>  -14.8713    1.0000 </r>
       <r>  -14.7494    1.0000 </r>
       <r>  -14.7227    1.0000 </r>
       <r>  -14.6993    1.0000 </r>
       <r>  -14.6119    1.0000 </r>
       <r>  -14.5940    1.0000 </r>
       <r>  -14.5892    1.0000 </r>
       <r>  -14.0755    1.0000 </r>
       <r>  -14.0568    1.0000 </r>
       <r>  -14.0489    1.0000 </r>
       <r>  -13.9399    1.0000 </r>
       <r>  -13.8294    1.0000 </r>
       <r>  -13.7743    1.0000 </r>
       <r>  -13.4808    1.0000 </r>
       <r>  -13.4735    1.0000 </r>
       <r>  -13.3906    1.0000 </r>
       <r>  -13.3632    1.0000 </r>
       <r>  -13.3050    1.0000 </r>
       <r>  -13.3030    1.0000 </r>
       <r>  -13.2866    1.0000 </r>
       <r>  -13.2729    1.0000 </r>
       <r>  -13.2723    1.0000 </r>
       <r>  -13.2593    1.0000 </r>
       <r>  -13.2559    1.0000 </r>
       <r>  -13.2527    1.0000 </r>
       <r>  -13.2432    1.0000 </r>
       <r>  -13.2395    1.0000 </r>
       <r>  -13.2362    1.0000 </r>
       <r>  -13.2232    1.0000 </r>
       <r>  -13.1049    1.0000 </r>
       <r>  -13.0669    1.0000 </r>
       <r>  -12.9522    1.0000 </r>
       <r>  -12.9273    1.0000 </r>
       <r>  -12.9115    1.0000 </r>
       <r>  -12.8908    1.0000 </r>
       <r>  -12.8880    1.0000 </r>
       <r>  -12.8438    1.0000 </r>
       <r>  -12.7924    1.0000 </r>
       <r>  -12.7848    1.0000 </r>
       <r>   -2.6331    1.0000 </r>
       <r>   -2.5397    1.0000 </r>
       <r>   -2.5093    1.0000 </r>
       <r>   -2.5056    1.0000 </r>
       <r>   -2.2592    1.0000 </r>
       <r>   -2.1287    1.0000 </r>
       <r>   -1.9248    1.0000 </r>
       <r>   -1.8041    1.0000 </r>
       <r>   -1.6199    1.0000 </r>
       <r>   -1.6087    1.0000 </r>
       <r>   -1.5576    1.0000 </r>
       <r>   -1.5073    1.0000 </r>
       <r>   -1.4388    1.0000 </r>
       <r>   -1.4275    1.0000 </r>
       <r>   -1.3934    1.0000 </r>
       <r>   -1.3901    1.0000 </r>
       <r>   -1.3431    1.0000 </r>
       <r>   -1.3135    1.0000 </r>
       <r>   -1.2885    1.0000 </r>
       <r>   -1.1520    1.0000 </r>
       <r>   -1.1518    1.0000 </r>
       <r>   -1.1222    1.0000 </r>
       <r>   -1.0547    1.0000 </r>
       <r>   -1.0465    1.0000 </r>
       <r>   -1.0404    1.0000 </r>
       <r>   -0.9674    1.0000 </r>
       <r>   -0.9223    1.0000 </r>
       <r>   -0.8003    1.0000 </r>
       <r>   -0.7628    1.0000 </r>
       <r>   -0.7391    1.0000 </r>
       <r>   -0.7145    1.0000 </r>
       <r>   -0.7038    1.0000 </r>
       <r>   -0.6748    1.0000 </r>
       <r>   -0.6644    1.0000 </r>
       <r>   -0.6375    1.0000 </r>
       <r>   -0.6083    1.0000 </r>
       <r>   -0.4699    1.0000 </r>
       <r>   -0.4544    1.0000 </r>
       <r>   -0.3699    1.0000 </r>
       <r>   -0.3638    1.0000 </r>
       <r>   -0.3527    1.0000 </r>
       <r>   -0.3185    1.0000 </r>
       <r>   -0.2972    1.0000 </r>
       <r>   -0.2706    1.0000 </r>
       <r>   -0.2277    1.0000 </r>
       <r>   -0.2004    1.0000 </r>
       <r>   -0.1568    1.0000 </r>
       <r>   -0.1224    1.0000 </r>
       <r>    0.1998    1.0000 </r>
       <r>    0.2203    1.0000 </r>
       <r>    0.3950    1.0000 </r>
       <r>    0.4940    1.0000 </r>
       <r>    0.5442    1.0000 </r>
       <r>    0.6414    1.0000 </r>
       <r>    0.6599    1.0000 </r>
       <r>    0.7385    1.0000 </r>
       <r>    0.7919    1.0000 </r>
       <r>    0.8028    1.0000 </r>
       <r>    0.8222    1.0000 </r>
       <r>    1.0484    1.0000 </r>
       <r>    1.0582    1.0000 </r>
       <r>    1.1449    1.0000 </r>
       <r>    1.1493    1.0000 </r>
       <r>    1.1948    1.0000 </r>
       <r>    1.2316    1.0000 </r>
       <r>    1.2641    1.0000 </r>
       <r>    1.4232    1.0000 </r>
       <r>    1.4774    1.0000 </r>
       <r>    1.4964    1.0000 </r>
       <r>    1.5643    1.0000 </r>
       <r>    1.6195    1.0000 </r>
       <r>    1.6794    1.0000 </r>
       <r>    1.7164    1.0000 </r>
       <r>    1.7244    1.0000 </r>
       <r>    1.7712    1.0000 </r>
       <r>    1.7832    1.0000 </r>
       <r>    1.7863    1.0000 </r>
       <r>    1.8012    1.0000 </r>
       <r>    1.8235    1.0000 </r>
       <r>    1.8261    1.0000 </r>
       <r>    1.9817    1.0000 </r>
       <r>    2.0026    1.0000 </r>
       <r>    2.0913    1.0000 </r>
       <r>    2.1453    1.0000 </r>
       <r>    2.4496    1.0000 </r>
       <r>    2.6050    0.9920 </r>
       <r>    2.8342    0.0000 </r>
       <r>    3.2395    0.0000 </r>
       <r>    3.5305    0.0000 </r>
       <r>    3.6809    0.0000 </r>
       <r>    4.6170    0.0000 </r>
       <r>    4.7797    0.0000 </r>
       <r>    6.0113    0.0000 </r>
       <r>    6.0235    0.0000 </r>
       <r>    6.2818    0.0000 </r>
       <r>    6.4716    0.0000 </r>
       <r>    7.2159    0.0000 </r>
       <r>    7.3111    0.0000 </r>
       <r>    7.4327    0.0000 </r>
       <r>    7.5484    0.0000 </r>
       <r>    7.6337    0.0000 </r>
       <r>    7.7630    0.0000 </r>
       <r>    7.8477    0.0000 </r>
       <r>    8.0876    0.0000 </r>
       <r>    8.0916    0.0000 </r>
       <r>    8.1947    0.0000 </r>
       <r>    8.2168    0.0000 </r>
       <r>    8.2203    0.0000 </r>
       <r>    8.2267    0.0000 </r>
       <r>    8.3546    0.0000 </r>
       <r>    8.4169    0.0000 </r>
       <r>    8.4477    0.0000 </r>
       <r>    8.4889    0.0000 </r>
       <r>    8.5761    0.0000 </r>
       <r>    8.9582    0.0000 </r>
       <r>    9.1238    0.0000 </r>
       <r>    9.1402    0.0000 </r>
       <r>    9.4586    0.0000 </r>
       <r>    9.6069    0.0000 </r>
       <r>    9.6550    0.0000 </r>
       <r>    9.7413    0.0000 </r>
       <r>    9.7648    0.0000 </r>
       <r>    9.7718    0.0000 </r>
       <r>    9.8245    0.0000 </r>
       <r>    9.9229    0.0000 </r>
       <r>    9.9798    0.0000 </r>
       <r>   10.0045    0.0000 </r>
       <r>   10.0984    0.0000 </r>
      </set>
      <set comment="kpoint 3">
       <r>  -31.3952    1.0000 </r>
       <r>  -31.3887    1.0000 </r>
       <r>  -31.3883    1.0000 </r>
       <r>  -31.3820    1.0000 </r>
       <r>  -31.3819    1.0000 </r>
       <r>  -31.3762    1.0000 </r>
       <r>  -31.3754    1.0000 </r>
       <r>  -31.3695    1.0000 </r>
       <r>  -14.8942    1.0000 </r>
       <r>  -14.7999    1.0000 </r>
       <r>  -14.7915    1.0000 </r>
       <r>  -14.7488    1.0000 </r>
       <r>  -14.5902    1.0000 </r>
       <r>  -14.5637    1.0000 </r>
       <r>  -14.5426    1.0000 </r>
       <r>  -14.5185    1.0000 </r>
       <r>  -14.1156    1.0000 </r>
       <r>  -14.1154    1.0000 </r>
       <r>  -14.0870    1.0000 </r>
       <r>  -14.0005    1.0000 </r>
       <r>  -13.7358    1.0000 </r>
       <r>  -13.6714    1.0000 </r>
       <r>  -13.6107    1.0000 </r>
       <r>  -13.4682    1.0000 </r>
       <r>  -13.4286    1.0000 </r>
       <r>  -13.4248    1.0000 </r>
       <r>  -13.3965    1.0000 </r>
       <r>  -13.3855    1.0000 </r>
       <r>  -13.3805    1.0000 </r>
       <r>  -13.3698    1.0000 </r>
       <r>  -13.3368    1.0000 </r>
       <r>  -13.3342    1.0000 </r>
       <r>  -13.2983    1.0000 </r>
       <r>  -13.2816    1.0000 </r>
       <r>  -13.2539    1.0000 </r>
       <r>  -13.1022    1.0000 </r>
       <r>  -13.1018    1.0000 </r>
       <r>  -13.0760    1.0000 </r>
       <r>  -13.0753    1.0000 </r>
       <r>  -13.0146    1.0000 </r>
       <r>  -12.9321    1.0000 </r>
       <r>  -12.9277    1.0000 </r>
       <r>  -12.9107    1.0000 </r>
       <r>  -12.9023    1.0000 </r>
       <r>  -12.9012    1.0000 </r>
       <r>  -12.8954    1.0000 </r>
       <r>  -12.8775    1.0000 </r>
       <r>  -12.8466    1.0000 </r>
       <r>   -2.9483    1.0000 </r>
       <r>   -2.8953    1.0000 </r>
       <r>   -2.8535    1.0000 </r>
       <r>   -2.8486    1.0000 </r>
       <r>   -2.2330    1.0000 </r>
       <r>   -2.1869    1.0000 </r>
       <r>   -1.8970    1.0000 </r>
       <r>   -1.8130    1.0000 </r>
       <r>   -1.8124    1.0000 </r>
       <r>   -1.7802    1.0000 </r>
       <r>   -1.7694    1.0000 </r>
       <r>   -1.7410    1.0000 </r>
       <r>   -1.6881    1.0000 </r>
       <r>   -1.6855    1.0000 </r>
       <r>   -1.6414    1.0000 </r>
       <r>   -1.6332    1.0000 </r>
       <r>   -1.4089    1.0000 </r>
       <r>   -1.2704    1.0000 </r>
       <r>   -1.2559    1.0000 </r>
       <r>   -1.2426    1.0000 </r>
       <r>   -1.2423    1.0000 </r>
       <r>   -1.2421    1.0000 </r>
       <r>   -1.2308    1.0000 </r>
       <r>   -1.2168    1.0000 </r>
       <r>   -1.1282    1.0000 </r>
       <r>   -1.1251    1.0000 </r>
       <r>   -0.9087    1.0000 </r>
       <r>   -0.8954    1.0000 </r>
       <r>   -0.7830    1.0000 </r>
       <r>   -0.7190    1.0000 </r>
       <r>   -0.6604    1.0000 </r>
       <r>   -0.5535    1.0000 </r>
       <r>   -0.5498    1.0000 </r>
       <r>   -0.5281    1.0000 </r>
       <r>   -0.4359    1.0000 </r>
       <r>   -0.4109    1.0000 </r>
       <r>   -0.3998    1.0000 </r>
       <r>   -0.3859    1.0000 </r>
       <r>   -0.3850    1.0000 </r>
       <r>   -0.3532    1.0000 </r>
       <r>   -0.3346    1.0000 </r>
       <r>   -0.3261    1.0000 </r>
       <r>   -0.3077    1.0000 </r>
       <r>   -0.3032    1.0000 </r>
       <r>   -0.1769    1.0000 </r>
       <r>   -0.1124    1.0000 </r>
       <r>   -0.0991    1.0000 </r>
       <r>    0.0123    1.0000 </r>
       <r>    0.0908    1.0000 </r>
       <r>    0.0940    1.0000 </r>
       <r>    0.3355    1.0000 </r>
       <r>    0.4035    1.0000 </r>
       <r>    0.4099    1.0000 </r>
       <r>    0.4975    1.0000 </r>
       <r>    0.6308    1.0000 </r>
       <r>    0.8960    1.0000 </r>
       <r>    0.9037    1.0000 </r>
       <r>    0.9118    1.0000 </r>
       <r>    0.9437    1.0000 </r>
       <r>    1.0723    1.0000 </r>
       <r>    1.2312    1.0000 </r>
       <r>    1.2484    1.0000 </r>
       <r>    1.2800    1.0000 </r>
       <r>    1.2856    1.0000 </r>
       <r>    1.4237    1.0000 </r>
       <r>    1.4352    1.0000 </r>
       <r>    1.4528    1.0000 </r>
       <r>    1.4571    1.0000 </r>
       <r>    1.5024    1.0000 </r>
       <r>    1.5262    1.0000 </r>
       <r>    1.5515    1.0000 </r>
       <r>    1.6208    1.0000 </r>
       <r>    1.6899    1.0000 </r>
       <r>    1.7146    1.0000 </r>
       <r>    1.7853    1.0000 </r>
       <r>    1.7919    1.0000 </r>
       <r>    1.8713    1.0000 </r>
       <r>    1.9949    1.0000 </r>
       <r>    2.0789    1.0000 </r>
       <r>    2.1304    1.0000 </r>
       <r>    2.1490    1.0000 </r>
       <r>    2.2269    1.0000 </r>
       <r>    2.3758    1.0000 </r>
       <r>    2.4473    1.0000 </r>
       <r>    2.6072    0.9904 </r>
       <r>    2.7853    0.0035 </r>
       <r>    3.0994    0.0000 </r>
       <r>    3.3259    0.0000 </r>
       <r>    3.3898    0.0000 </r>
       <r>    3.5805    0.0000 </r>
       <r>    4.8910    0.0000 </r>
       <r>    5.1735    0.0000 </r>
       <r>    5.9745    0.0000 </r>
       <r>    6.0308    0.0000 </r>
       <r>    6.1324    0.0000 </r>
       <r>    6.1878    0.0000 </r>
       <r>    7.0538    0.0000 </r>
       <r>    7.1808    0.0000 </r>
       <r>    7.4856    0.0000 </r>
       <r>    7.5834    0.0000 </r>
       <r>    7.6031    0.0000 </r>
       <r>    7.6255    0.0000 </r>
       <r>    7.8720    0.0000 </r>
       <r>    7.9849    0.0000 </r>
       <r>    8.2732    0.0000 </r>
       <r>    8.3048    0.0000 </r>
       <r>    8.3728    0.0000 </r>
       <r>    8.5231    0.0000 </r>
       <r>    8.5910    0.0000 </r>
       <r>    8.7212    0.0000 </r>
       <r>    8.7855    0.0000 </r>
       <r>    8.8610    0.0000 </r>
       <r>    8.8735    0.0000 </r>
       <r>    8.9312    0.0000 </r>
       <r>    9.0450    0.0000 </r>
       <r>    9.2262    0.0000 </r>
       <r>    9.4948    0.0000 </r>
       <r>    9.6415    0.0000 </r>
       <r>    9.6860    0.0000 </r>
       <r>    9.7914    0.0000 </r>
       <r>    9.9124    0.0000 </r>
       <r>    9.9287    0.0000 </r>
       <r>    9.9594    0.0000 </r>
       <r>    9.9705    0.0000 </r>
       <r>    9.9754    0.0000 </r>
       <r>   10.0643    0.0000 </r>
       <r>   10.1263    0.0000 </r>
       <r>   10.1959    0.0000 </r>
      </set>
      <set comment="kpoint 4">
       <r>  -31.3919    1.0000 </r>
       <r>  -31.3856    1.0000 </r>
       <r>  -31.3855    1.0000 </r>
       <r>  -31.3849    1.0000 </r>
       <r>  -31.3794    1.0000 </r>
       <r>  -31.3787    1.0000 </r>
       <r>  -31.3786    1.0000 </r>
       <r>  -31.3726    1.0000 </r>
       <r>  -14.8380    1.0000 </r>
       <r>  -14.7706    1.0000 </r>
       <r>  -14.7357    1.0000 </r>
       <r>  -14.7007    1.0000 </r>
       <r>  -14.6374    1.0000 </r>
       <r>  -14.6134    1.0000 </r>
       <r>  -14.5995    1.0000 </r>
       <r>  -14.5744    1.0000 </r>
       <r>  -14.0474    1.0000 </r>
       <r>  -14.0351    1.0000 </r>
       <r>  -14.0276    1.0000 </r>
       <r>  -13.9833    1.0000 </r>
       <r>  -13.8271    1.0000 </r>
       <r>  -13.8141    1.0000 </r>
       <r>  -13.6637    1.0000 </r>
       <r>  -13.5727    1.0000 </r>
       <r>  -13.4770    1.0000 </r>
       <r>  -13.4758    1.0000 </r>
       <r>  -13.3856    1.0000 </r>
       <r>  -13.3747    1.0000 </r>
       <r>  -13.3580    1.0000 </r>
       <r>  -13.3387    1.0000 </r>
       <r>  -13.3272    1.0000 </r>
       <r>  -13.3168    1.0000 </r>
       <r>  -13.2746    1.0000 </r>
       <r>  -13.2608    1.0000 </r>
       <r>  -13.1842    1.0000 </r>
       <r>  -13.1197    1.0000 </r>
       <r>  -13.0760    1.0000 </r>
       <r>  -13.0557    1.0000 </r>
       <r>  -13.0357    1.0000 </r>
       <r>  -13.0318    1.0000 </r>
       <r>  -12.9424    1.0000 </r>
       <r>  -12.9371    1.0000 </r>
       <r>  -12.9138    1.0000 </r>
       <r>  -12.8859    1.0000 </r>
       <r>  -12.8839    1.0000 </r>
       <r>  -12.8791    1.0000 </r>
       <r>  -12.8740    1.0000 </r>
       <r>  -12.8729    1.0000 </r>
       <r>   -2.6044    1.0000 </r>
       <r>   -2.5217    1.0000 </r>
       <r>   -2.5186    1.0000 </r>
       <r>   -2.5107    1.0000 </r>
       <r>   -2.2664    1.0000 </r>
       <r>   -2.1418    1.0000 </r>
       <r>   -1.8531    1.0000 </r>
       <r>   -1.8507    1.0000 </r>
       <r>   -1.8385    1.0000 </r>
       <r>   -1.7709    1.0000 </r>
       <r>   -1.7655    1.0000 </r>
       <r>   -1.7624    1.0000 </r>
       <r>   -1.6408    1.0000 </r>
       <r>   -1.6312    1.0000 </r>
       <r>   -1.5982    1.0000 </r>
       <r>   -1.5937    1.0000 </r>
       <r>   -1.5586    1.0000 </r>
       <r>   -1.5458    1.0000 </r>
       <r>   -1.5079    1.0000 </r>
       <r>   -1.4928    1.0000 </r>
       <r>   -1.2710    1.0000 </r>
       <r>   -1.2693    1.0000 </r>
       <r>   -1.2565    1.0000 </r>
       <r>   -1.1782    1.0000 </r>
       <r>   -1.1469    1.0000 </r>
       <r>   -1.1443    1.0000 </r>
       <r>   -1.1406    1.0000 </r>
       <r>   -1.1377    1.0000 </r>
       <r>   -1.1179    1.0000 </r>
       <r>   -1.0984    1.0000 </r>
       <r>   -0.9879    1.0000 </r>
       <r>   -0.9501    1.0000 </r>
       <r>   -0.8569    1.0000 </r>
       <r>   -0.7929    1.0000 </r>
       <r>   -0.7787    1.0000 </r>
       <r>   -0.7517    1.0000 </r>
       <r>   -0.4654    1.0000 </r>
       <r>   -0.4545    1.0000 </r>
       <r>   -0.3934    1.0000 </r>
       <r>   -0.3931    1.0000 </r>
       <r>   -0.3424    1.0000 </r>
       <r>   -0.3411    1.0000 </r>
       <r>   -0.1992    1.0000 </r>
       <r>   -0.1661    1.0000 </r>
       <r>   -0.1423    1.0000 </r>
       <r>   -0.1045    1.0000 </r>
       <r>    0.2414    1.0000 </r>
       <r>    0.2673    1.0000 </r>
       <r>    0.4548    1.0000 </r>
       <r>    0.5004    1.0000 </r>
       <r>    0.5911    1.0000 </r>
       <r>    0.6662    1.0000 </r>
       <r>    0.6928    1.0000 </r>
       <r>    0.8679    1.0000 </r>
       <r>    0.9416    1.0000 </r>
       <r>    0.9442    1.0000 </r>
       <r>    1.0165    1.0000 </r>
       <r>    1.0171    1.0000 </r>
       <r>    1.0265    1.0000 </r>
       <r>    1.0559    1.0000 </r>
       <r>    1.1239    1.0000 </r>
       <r>    1.1368    1.0000 </r>
       <r>    1.1509    1.0000 </r>
       <r>    1.2108    1.0000 </r>
       <r>    1.2938    1.0000 </r>
       <r>    1.3407    1.0000 </r>
       <r>    1.3451    1.0000 </r>
       <r>    1.3646    1.0000 </r>
       <r>    1.4337    1.0000 </r>
       <r>    1.4377    1.0000 </r>
       <r>    1.4574    1.0000 </r>
       <r>    1.4961    1.0000 </r>
       <r>    1.6121    1.0000 </r>
       <r>    1.6779    1.0000 </r>
       <r>    1.8327    1.0000 </r>
       <r>    1.8653    1.0000 </r>
       <r>    1.8900    1.0000 </r>
       <r>    1.8938    1.0000 </r>
       <r>    2.1053    1.0000 </r>
       <r>    2.1167    1.0000 </r>
       <r>    2.4234    1.0000 </r>
       <r>    2.4344    1.0000 </r>
       <r>    2.4559    1.0000 </r>
       <r>    2.6208    0.9750 </r>
       <r>    2.7779    0.0065 </r>
       <r>    2.8103    0.0003 </r>
       <r>    3.0603    0.0000 </r>
       <r>    3.3745    0.0000 </r>
       <r>    3.7915    0.0000 </r>
       <r>    3.8270    0.0000 </r>
       <r>    4.6692    0.0000 </r>
       <r>    4.7484    0.0000 </r>
       <r>    6.0297    0.0000 </r>
       <r>    6.0422    0.0000 </r>
       <r>    6.0996    0.0000 </r>
       <r>    6.1341    0.0000 </r>
       <r>    7.2219    0.0000 </r>
       <r>    7.3001    0.0000 </r>
       <r>    7.4726    0.0000 </r>
       <r>    7.6163    0.0000 </r>
       <r>    7.6584    0.0000 </r>
       <r>    7.8672    0.0000 </r>
       <r>    7.8712    0.0000 </r>
       <r>    7.9808    0.0000 </r>
       <r>    8.0934    0.0000 </r>
       <r>    8.3383    0.0000 </r>
       <r>    8.4092    0.0000 </r>
       <r>    8.4483    0.0000 </r>
       <r>    8.5153    0.0000 </r>
       <r>    8.6071    0.0000 </r>
       <r>    8.7227    0.0000 </r>
       <r>    8.9488    0.0000 </r>
       <r>    8.9604    0.0000 </r>
       <r>    9.1355    0.0000 </r>
       <r>    9.1852    0.0000 </r>
       <r>    9.2306    0.0000 </r>
       <r>    9.2352    0.0000 </r>
       <r>    9.5330    0.0000 </r>
       <r>    9.5779    0.0000 </r>
       <r>    9.5818    0.0000 </r>
       <r>    9.5843    0.0000 </r>
       <r>    9.6826    0.0000 </r>
       <r>    9.7096    0.0000 </r>
       <r>    9.8117    0.0000 </r>
       <r>    9.8558    0.0000 </r>
       <r>    9.9366    0.0000 </r>
       <r>    9.9451    0.0000 </r>
       <r>    9.9924    0.0000 </r>
      </set>
      <set comment="kpoint 5">
       <r>  -31.3876    1.0000 </r>
       <r>  -31.3814    1.0000 </r>
       <r>  -31.3811    1.0000 </r>
       <r>  -31.3750    1.0000 </r>
       <r>  -31.3749    1.0000 </r>
       <r>  -31.3693    1.0000 </r>
       <r>  -31.3685    1.0000 </r>
       <r>  -31.3629    1.0000 </r>
       <r>  -14.9366    1.0000 </r>
       <r>  -14.8443    1.0000 </r>
       <r>  -14.6002    1.0000 </r>
       <r>  -14.5976    1.0000 </r>
       <r>  -14.5497    1.0000 </r>
       <r>  -14.5415    1.0000 </r>
       <r>  -14.4657    1.0000 </r>
       <r>  -14.3070    1.0000 </r>
       <r>  -14.1325    1.0000 </r>
       <r>  -14.0411    1.0000 </r>
       <r>  -14.0177    1.0000 </r>
       <r>  -14.0103    1.0000 </r>
       <r>  -13.9277    1.0000 </r>
       <r>  -13.7728    1.0000 </r>
       <r>  -13.5795    1.0000 </r>
       <r>  -13.5543    1.0000 </r>
       <r>  -13.5163    1.0000 </r>
       <r>  -13.4686    1.0000 </r>
       <r>  -13.4270    1.0000 </r>
       <r>  -13.3813    1.0000 </r>
       <r>  -13.3707    1.0000 </r>
       <r>  -13.3663    1.0000 </r>
       <r>  -13.3653    1.0000 </r>
       <r>  -13.3609    1.0000 </r>
       <r>  -13.3570    1.0000 </r>
       <r>  -13.3540    1.0000 </r>
       <r>  -13.3306    1.0000 </r>
       <r>  -13.2622    1.0000 </r>
       <r>  -13.2344    1.0000 </r>
       <r>  -13.1285    1.0000 </r>
       <r>  -13.1108    1.0000 </r>
       <r>  -13.0820    1.0000 </r>
       <r>  -12.9594    1.0000 </r>
       <r>  -12.9525    1.0000 </r>
       <r>  -12.9082    1.0000 </r>
       <r>  -12.8992    1.0000 </r>
       <r>  -12.8511    1.0000 </r>
       <r>  -12.8367    1.0000 </r>
       <r>  -12.8108    1.0000 </r>
       <r>  -12.7541    1.0000 </r>
       <r>   -3.0832    1.0000 </r>
       <r>   -3.0767    1.0000 </r>
       <r>   -2.9121    1.0000 </r>
       <r>   -2.8403    1.0000 </r>
       <r>   -2.6702    1.0000 </r>
       <r>   -2.6476    1.0000 </r>
       <r>   -2.5416    1.0000 </r>
       <r>   -2.5414    1.0000 </r>
       <r>   -2.1792    1.0000 </r>
       <r>   -2.1547    1.0000 </r>
       <r>   -2.1189    1.0000 </r>
       <r>   -2.0790    1.0000 </r>
       <r>   -1.9020    1.0000 </r>
       <r>   -1.8913    1.0000 </r>
       <r>   -1.7667    1.0000 </r>
       <r>   -1.7289    1.0000 </r>
       <r>   -1.4516    1.0000 </r>
       <r>   -1.4496    1.0000 </r>
       <r>   -1.4472    1.0000 </r>
       <r>   -1.4424    1.0000 </r>
       <r>   -1.3779    1.0000 </r>
       <r>   -1.3547    1.0000 </r>
       <r>   -1.3518    1.0000 </r>
       <r>   -1.2693    1.0000 </r>
       <r>   -1.2270    1.0000 </r>
       <r>   -1.1736    1.0000 </r>
       <r>   -0.9196    1.0000 </r>
       <r>   -0.9110    1.0000 </r>
       <r>   -0.7996    1.0000 </r>
       <r>   -0.6886    1.0000 </r>
       <r>   -0.6418    1.0000 </r>
       <r>   -0.6214    1.0000 </r>
       <r>   -0.6014    1.0000 </r>
       <r>   -0.4769    1.0000 </r>
       <r>   -0.4654    1.0000 </r>
       <r>   -0.4197    1.0000 </r>
       <r>   -0.4045    1.0000 </r>
       <r>   -0.3969    1.0000 </r>
       <r>   -0.3955    1.0000 </r>
       <r>   -0.3790    1.0000 </r>
       <r>   -0.3510    1.0000 </r>
       <r>   -0.3416    1.0000 </r>
       <r>   -0.2870    1.0000 </r>
       <r>   -0.2132    1.0000 </r>
       <r>   -0.0511    1.0000 </r>
       <r>    0.0498    1.0000 </r>
       <r>    0.0516    1.0000 </r>
       <r>    0.1096    1.0000 </r>
       <r>    0.2721    1.0000 </r>
       <r>    0.2817    1.0000 </r>
       <r>    0.5257    1.0000 </r>
       <r>    0.6341    1.0000 </r>
       <r>    0.6521    1.0000 </r>
       <r>    0.8720    1.0000 </r>
       <r>    0.9201    1.0000 </r>
       <r>    0.9321    1.0000 </r>
       <r>    1.0041    1.0000 </r>
       <r>    1.0750    1.0000 </r>
       <r>    1.0851    1.0000 </r>
       <r>    1.1445    1.0000 </r>
       <r>    1.2145    1.0000 </r>
       <r>    1.2487    1.0000 </r>
       <r>    1.2695    1.0000 </r>
       <r>    1.3030    1.0000 </r>
       <r>    1.3265    1.0000 </r>
       <r>    1.3325    1.0000 </r>
       <r>    1.4530    1.0000 </r>
       <r>    1.4826    1.0000 </r>
       <r>    1.4840    1.0000 </r>
       <r>    1.5323    1.0000 </r>
       <r>    1.5652    1.0000 </r>
       <r>    1.6429    1.0000 </r>
       <r>    1.6595    1.0000 </r>
       <r>    1.6810    1.0000 </r>
       <r>    1.7456    1.0000 </r>
       <r>    1.8615    1.0000 </r>
       <r>    1.9709    1.0000 </r>
       <r>    2.1116    1.0000 </r>
       <r>    2.1617    1.0000 </r>
       <r>    2.3134    1.0000 </r>
       <r>    2.3650    1.0000 </r>
       <r>    2.5124    1.0000 </r>
       <r>    2.5219    1.0000 </r>
       <r>    2.5366    1.0000 </r>
       <r>    3.2374    0.0000 </r>
       <r>    3.8214    0.0000 </r>
       <r>    3.8495    0.0000 </r>
       <r>    4.0728    0.0000 </r>
       <r>    4.0891    0.0000 </r>
       <r>    4.1597    0.0000 </r>
       <r>    4.2899    0.0000 </r>
       <r>    4.5104    0.0000 </r>
       <r>    5.3683    0.0000 </r>
       <r>    5.3889    0.0000 </r>
       <r>    5.5116    0.0000 </r>
       <r>    6.0532    0.0000 </r>
       <r>    6.8942    0.0000 </r>
       <r>    7.3971    0.0000 </r>
       <r>    7.5136    0.0000 </r>
       <r>    7.6146    0.0000 </r>
       <r>    8.1618    0.0000 </r>
       <r>    8.1994    0.0000 </r>
       <r>    8.4390    0.0000 </r>
       <r>    8.4843    0.0000 </r>
       <r>    8.4893    0.0000 </r>
       <r>    8.5836    0.0000 </r>
       <r>    8.7320    0.0000 </r>
       <r>    8.7512    0.0000 </r>
       <r>    8.7725    0.0000 </r>
       <r>    9.0127    0.0000 </r>
       <r>    9.0331    0.0000 </r>
       <r>    9.1157    0.0000 </r>
       <r>    9.1512    0.0000 </r>
       <r>    9.1708    0.0000 </r>
       <r>    9.4464    0.0000 </r>
       <r>    9.5900    0.0000 </r>
       <r>    9.6537    0.0000 </r>
       <r>    9.7431    0.0000 </r>
       <r>    9.7845    0.0000 </r>
       <r>    9.9221    0.0000 </r>
       <r>   10.1172    0.0000 </r>
       <r>   10.2626    0.0000 </r>
       <r>   10.3067    0.0000 </r>
       <r>   10.3565    0.0000 </r>
       <r>   10.3653    0.0000 </r>
       <r>   10.3925    0.0000 </r>
       <r>   10.5649    0.0000 </r>
       <r>   10.6001    0.0000 </r>
      </set>
      <set comment="kpoint 6">
       <r>  -31.3844    1.0000 </r>
       <r>  -31.3784    1.0000 </r>
       <r>  -31.3784    1.0000 </r>
       <r>  -31.3776    1.0000 </r>
       <r>  -31.3725    1.0000 </r>
       <r>  -31.3718    1.0000 </r>
       <r>  -31.3717    1.0000 </r>
       <r>  -31.3659    1.0000 </r>
       <r>  -14.8727    1.0000 </r>
       <r>  -14.7819    1.0000 </r>
       <r>  -14.7253    1.0000 </r>
       <r>  -14.6387    1.0000 </r>
       <r>  -14.5264    1.0000 </r>
       <r>  -14.5195    1.0000 </r>
       <r>  -14.4276    1.0000 </r>
       <r>  -14.3415    1.0000 </r>
       <r>  -14.1258    1.0000 </r>
       <r>  -14.0693    1.0000 </r>
       <r>  -13.9617    1.0000 </r>
       <r>  -13.9585    1.0000 </r>
       <r>  -13.9253    1.0000 </r>
       <r>  -13.8228    1.0000 </r>
       <r>  -13.5932    1.0000 </r>
       <r>  -13.5710    1.0000 </r>
       <r>  -13.5295    1.0000 </r>
       <r>  -13.5083    1.0000 </r>
       <r>  -13.4245    1.0000 </r>
       <r>  -13.4240    1.0000 </r>
       <r>  -13.4162    1.0000 </r>
       <r>  -13.4136    1.0000 </r>
       <r>  -13.4007    1.0000 </r>
       <r>  -13.3759    1.0000 </r>
       <r>  -13.3152    1.0000 </r>
       <r>  -13.2842    1.0000 </r>
       <r>  -13.2651    1.0000 </r>
       <r>  -13.2551    1.0000 </r>
       <r>  -13.2413    1.0000 </r>
       <r>  -13.1496    1.0000 </r>
       <r>  -13.0985    1.0000 </r>
       <r>  -13.0749    1.0000 </r>
       <r>  -12.9720    1.0000 </r>
       <r>  -12.9365    1.0000 </r>
       <r>  -12.9138    1.0000 </r>
       <r>  -12.8844    1.0000 </r>
       <r>  -12.8652    1.0000 </r>
       <r>  -12.8388    1.0000 </r>
       <r>  -12.7779    1.0000 </r>
       <r>  -12.7580    1.0000 </r>
       <r>   -2.8704    1.0000 </r>
       <r>   -2.8664    1.0000 </r>
       <r>   -2.7044    1.0000 </r>
       <r>   -2.6740    1.0000 </r>
       <r>   -2.5066    1.0000 </r>
       <r>   -2.4650    1.0000 </r>
       <r>   -2.3943    1.0000 </r>
       <r>   -2.3937    1.0000 </r>
       <r>   -2.2042    1.0000 </r>
       <r>   -2.1180    1.0000 </r>
       <r>   -1.9780    1.0000 </r>
       <r>   -1.9426    1.0000 </r>
       <r>   -1.8836    1.0000 </r>
       <r>   -1.8768    1.0000 </r>
       <r>   -1.7431    1.0000 </r>
       <r>   -1.6920    1.0000 </r>
       <r>   -1.6785    1.0000 </r>
       <r>   -1.6630    1.0000 </r>
       <r>   -1.5138    1.0000 </r>
       <r>   -1.4744    1.0000 </r>
       <r>   -1.4476    1.0000 </r>
       <r>   -1.4453    1.0000 </r>
       <r>   -1.4074    1.0000 </r>
       <r>   -1.3723    1.0000 </r>
       <r>   -1.2823    1.0000 </r>
       <r>   -1.2732    1.0000 </r>
       <r>   -1.2456    1.0000 </r>
       <r>   -1.2432    1.0000 </r>
       <r>   -1.1731    1.0000 </r>
       <r>   -1.0750    1.0000 </r>
       <r>   -0.9655    1.0000 </r>
       <r>   -0.9401    1.0000 </r>
       <r>   -0.9391    1.0000 </r>
       <r>   -0.8934    1.0000 </r>
       <r>   -0.8006    1.0000 </r>
       <r>   -0.7315    1.0000 </r>
       <r>   -0.5606    1.0000 </r>
       <r>   -0.5172    1.0000 </r>
       <r>   -0.4547    1.0000 </r>
       <r>   -0.4369    1.0000 </r>
       <r>   -0.3298    1.0000 </r>
       <r>   -0.3181    1.0000 </r>
       <r>    0.0191    1.0000 </r>
       <r>    0.0514    1.0000 </r>
       <r>    0.1395    1.0000 </r>
       <r>    0.2169    1.0000 </r>
       <r>    0.2611    1.0000 </r>
       <r>    0.3262    1.0000 </r>
       <r>    0.5687    1.0000 </r>
       <r>    0.6097    1.0000 </r>
       <r>    0.7967    1.0000 </r>
       <r>    0.8168    1.0000 </r>
       <r>    0.8468    1.0000 </r>
       <r>    0.9310    1.0000 </r>
       <r>    0.9530    1.0000 </r>
       <r>    1.0268    1.0000 </r>
       <r>    1.0631    1.0000 </r>
       <r>    1.1030    1.0000 </r>
       <r>    1.1273    1.0000 </r>
       <r>    1.1603    1.0000 </r>
       <r>    1.1821    1.0000 </r>
       <r>    1.2337    1.0000 </r>
       <r>    1.2466    1.0000 </r>
       <r>    1.2696    1.0000 </r>
       <r>    1.3000    1.0000 </r>
       <r>    1.3083    1.0000 </r>
       <r>    1.3135    1.0000 </r>
       <r>    1.3567    1.0000 </r>
       <r>    1.4091    1.0000 </r>
       <r>    1.4951    1.0000 </r>
       <r>    1.5187    1.0000 </r>
       <r>    1.7230    1.0000 </r>
       <r>    1.7769    1.0000 </r>
       <r>    1.7984    1.0000 </r>
       <r>    1.8394    1.0000 </r>
       <r>    1.9124    1.0000 </r>
       <r>    2.2445    1.0000 </r>
       <r>    2.2803    1.0000 </r>
       <r>    2.2839    1.0000 </r>
       <r>    2.2886    1.0000 </r>
       <r>    2.3927    1.0000 </r>
       <r>    2.4267    1.0000 </r>
       <r>    2.6100    0.9882 </r>
       <r>    2.6155    0.9825 </r>
       <r>    3.5052    0.0000 </r>
       <r>    3.6161    0.0000 </r>
       <r>    3.7412    0.0000 </r>
       <r>    3.8218    0.0000 </r>
       <r>    4.2500    0.0000 </r>
       <r>    4.4359    0.0000 </r>
       <r>    4.5225    0.0000 </r>
       <r>    4.6080    0.0000 </r>
       <r>    5.2294    0.0000 </r>
       <r>    5.2906    0.0000 </r>
       <r>    5.4313    0.0000 </r>
       <r>    5.7643    0.0000 </r>
       <r>    7.1230    0.0000 </r>
       <r>    7.4418    0.0000 </r>
       <r>    7.6624    0.0000 </r>
       <r>    7.7214    0.0000 </r>
       <r>    8.1566    0.0000 </r>
       <r>    8.2056    0.0000 </r>
       <r>    8.2412    0.0000 </r>
       <r>    8.3044    0.0000 </r>
       <r>    8.4704    0.0000 </r>
       <r>    8.4778    0.0000 </r>
       <r>    8.6254    0.0000 </r>
       <r>    8.6651    0.0000 </r>
       <r>    8.7042    0.0000 </r>
       <r>    8.7234    0.0000 </r>
       <r>    8.8290    0.0000 </r>
       <r>    8.9456    0.0000 </r>
       <r>    9.0269    0.0000 </r>
       <r>    9.3131    0.0000 </r>
       <r>    9.3966    0.0000 </r>
       <r>    9.6013    0.0000 </r>
       <r>    9.6666    0.0000 </r>
       <r>    9.6698    0.0000 </r>
       <r>    9.7162    0.0000 </r>
       <r>    9.7466    0.0000 </r>
       <r>    9.9094    0.0000 </r>
       <r>    9.9110    0.0000 </r>
       <r>   10.1103    0.0000 </r>
       <r>   10.2111    0.0000 </r>
       <r>   10.2642    0.0000 </r>
       <r>   10.3406    0.0000 </r>
       <r>   10.5543    0.0000 </r>
       <r>   10.6199    0.0000 </r>
      </set>
     </set>
     <set comment="spin 2">
      <set comment="kpoint 1">
       <r>  -31.4010    1.0000 </r>
       <r>  -31.3943    1.0000 </r>
       <r>  -31.3938    1.0000 </r>
       <r>  -31.3875    1.0000 </r>
       <r>  -31.3872    1.0000 </r>
       <r>  -31.3815    1.0000 </r>
       <r>  -31.3806    1.0000 </r>
       <r>  -31.3746    1.0000 </r>
       <r>  -14.9816    1.0000 </r>
       <r>  -14.8174    1.0000 </r>
       <r>  -14.7772    1.0000 </r>
       <r>  -14.6259    1.0000 </r>
       <r>  -14.6212    1.0000 </r>
       <r>  -14.6140    1.0000 </r>
       <r>  -14.5532    1.0000 </r>
       <r>  -14.5463    1.0000 </r>
       <r>  -14.1250    1.0000 </r>
       <r>  -14.0735    1.0000 </r>
       <r>  -14.0248    1.0000 </r>
       <r>  -13.8502    1.0000 </r>
       <r>  -13.5840    1.0000 </r>
       <r>  -13.5036    1.0000 </r>
       <r>  -13.4069    1.0000 </r>
       <r>  -13.3957    1.0000 </r>
       <r>  -13.3909    1.0000 </r>
       <r>  -13.3795    1.0000 </r>
       <r>  -13.2951    1.0000 </r>
       <r>  -13.2799    1.0000 </r>
       <r>  -13.2675    1.0000 </r>
       <r>  -13.2635    1.0000 </r>
       <r>  -13.2613    1.0000 </r>
       <r>  -13.2528    1.0000 </r>
       <r>  -13.2515    1.0000 </r>
       <r>  -13.2448    1.0000 </r>
       <r>  -13.2369    1.0000 </r>
       <r>  -13.2337    1.0000 </r>
       <r>  -13.2177    1.0000 </r>
       <r>  -13.2167    1.0000 </r>
       <r>  -13.1343    1.0000 </r>
       <r>  -13.0469    1.0000 </r>
       <r>  -12.9709    1.0000 </r>
       <r>  -12.9488    1.0000 </r>
       <r>  -12.9180    1.0000 </r>
       <r>  -12.8927    1.0000 </r>
       <r>  -12.8547    1.0000 </r>
       <r>  -12.7774    1.0000 </r>
       <r>  -12.7392    1.0000 </r>
       <r>  -12.7378    1.0000 </r>
       <r>   -2.9764    1.0000 </r>
       <r>   -2.9348    1.0000 </r>
       <r>   -2.4248    1.0000 </r>
       <r>   -2.3965    1.0000 </r>
       <r>   -2.0000    1.0000 </r>
       <r>   -1.9889    1.0000 </r>
       <r>   -1.9415    1.0000 </r>
       <r>   -1.6947    1.0000 </r>
       <r>   -1.4991    1.0000 </r>
       <r>   -1.3837    1.0000 </r>
       <r>   -1.3534    1.0000 </r>
       <r>   -1.3302    1.0000 </r>
       <r>   -1.2650    1.0000 </r>
       <r>   -1.2582    1.0000 </r>
       <r>   -1.2559    1.0000 </r>
       <r>   -1.1888    1.0000 </r>
       <r>   -1.1627    1.0000 </r>
       <r>   -1.1583    1.0000 </r>
       <r>   -0.8656    1.0000 </r>
       <r>   -0.8648    1.0000 </r>
       <r>   -0.8506    1.0000 </r>
       <r>   -0.8459    1.0000 </r>
       <r>   -0.8385    1.0000 </r>
       <r>   -0.8345    1.0000 </r>
       <r>   -0.7710    1.0000 </r>
       <r>   -0.7257    1.0000 </r>
       <r>   -0.7229    1.0000 </r>
       <r>   -0.6728    1.0000 </r>
       <r>   -0.6696    1.0000 </r>
       <r>   -0.6672    1.0000 </r>
       <r>   -0.6119    1.0000 </r>
       <r>   -0.5375    1.0000 </r>
       <r>   -0.5360    1.0000 </r>
       <r>   -0.4999    1.0000 </r>
       <r>   -0.4832    1.0000 </r>
       <r>   -0.4694    1.0000 </r>
       <r>   -0.3995    1.0000 </r>
       <r>   -0.3706    1.0000 </r>
       <r>   -0.3590    1.0000 </r>
       <r>   -0.3393    1.0000 </r>
       <r>   -0.3202    1.0000 </r>
       <r>   -0.2920    1.0000 </r>
       <r>   -0.2919    1.0000 </r>
       <r>   -0.2773    1.0000 </r>
       <r>   -0.2588    1.0000 </r>
       <r>   -0.1632    1.0000 </r>
       <r>   -0.1361    1.0000 </r>
       <r>   -0.1035    1.0000 </r>
       <r>    0.0454    1.0000 </r>
       <r>    0.1727    1.0000 </r>
       <r>    0.1759    1.0000 </r>
       <r>    0.2437    1.0000 </r>
       <r>    0.3721    1.0000 </r>
       <r>    0.5846    1.0000 </r>
       <r>    0.6540    1.0000 </r>
       <r>    0.7236    1.0000 </r>
       <r>    0.7571    1.0000 </r>
       <r>    0.7978    1.0000 </r>
       <r>    0.8491    1.0000 </r>
       <r>    1.0799    1.0000 </r>
       <r>    1.2016    1.0000 </r>
       <r>    1.2532    1.0000 </r>
       <r>    1.3042    1.0000 </r>
       <r>    1.3961    1.0000 </r>
       <r>    1.4517    1.0000 </r>
       <r>    1.4748    1.0000 </r>
       <r>    1.5121    1.0000 </r>
       <r>    1.5433    1.0000 </r>
       <r>    1.5515    1.0000 </r>
       <r>    1.6766    1.0000 </r>
       <r>    1.6768    1.0000 </r>
       <r>    1.7820    1.0000 </r>
       <r>    1.7886    1.0000 </r>
       <r>    1.8073    1.0000 </r>
       <r>    1.8357    1.0000 </r>
       <r>    1.8556    1.0000 </r>
       <r>    1.9373    1.0000 </r>
       <r>    1.9507    1.0000 </r>
       <r>    1.9967    1.0000 </r>
       <r>    2.0282    1.0000 </r>
       <r>    2.0877    1.0000 </r>
       <r>    2.1208    1.0000 </r>
       <r>    2.1522    1.0000 </r>
       <r>    2.3355    1.0000 </r>
       <r>    2.4575    1.0000 </r>
       <r>    2.6084    0.9895 </r>
       <r>    2.6656    0.7559 </r>
       <r>    2.8902    0.0000 </r>
       <r>    3.1943    0.0000 </r>
       <r>    3.5399    0.0000 </r>
       <r>    4.7361    0.0000 </r>
       <r>    5.2710    0.0000 </r>
       <r>    5.9790    0.0000 </r>
       <r>    6.1802    0.0000 </r>
       <r>    6.3396    0.0000 </r>
       <r>    6.8317    0.0000 </r>
       <r>    7.0879    0.0000 </r>
       <r>    7.1968    0.0000 </r>
       <r>    7.2012    0.0000 </r>
       <r>    7.3532    0.0000 </r>
       <r>    7.4712    0.0000 </r>
       <r>    7.6843    0.0000 </r>
       <r>    8.0025    0.0000 </r>
       <r>    8.1481    0.0000 </r>
       <r>    8.2389    0.0000 </r>
       <r>    8.2776    0.0000 </r>
       <r>    8.2801    0.0000 </r>
       <r>    8.3150    0.0000 </r>
       <r>    8.4574    0.0000 </r>
       <r>    8.5411    0.0000 </r>
       <r>    8.5987    0.0000 </r>
       <r>    8.8008    0.0000 </r>
       <r>    8.8447    0.0000 </r>
       <r>    8.9074    0.0000 </r>
       <r>    8.9870    0.0000 </r>
       <r>    9.2975    0.0000 </r>
       <r>    9.5820    0.0000 </r>
       <r>    9.5997    0.0000 </r>
       <r>    9.6078    0.0000 </r>
       <r>    9.6160    0.0000 </r>
       <r>    9.6853    0.0000 </r>
       <r>    9.6901    0.0000 </r>
       <r>    9.7838    0.0000 </r>
       <r>    9.7884    0.0000 </r>
       <r>    9.8038    0.0000 </r>
       <r>    9.8534    0.0000 </r>
       <r>   10.0580    0.0000 </r>
       <r>   10.0985    0.0000 </r>
      </set>
      <set comment="kpoint 2">
       <r>  -31.3976    1.0000 </r>
       <r>  -31.3911    1.0000 </r>
       <r>  -31.3910    1.0000 </r>
       <r>  -31.3904    1.0000 </r>
       <r>  -31.3847    1.0000 </r>
       <r>  -31.3840    1.0000 </r>
       <r>  -31.3839    1.0000 </r>
       <r>  -31.3777    1.0000 </r>
       <r>  -14.9204    1.0000 </r>
       <r>  -14.8124    1.0000 </r>
       <r>  -14.7254    1.0000 </r>
       <r>  -14.6806    1.0000 </r>
       <r>  -14.6216    1.0000 </r>
       <r>  -14.6147    1.0000 </r>
       <r>  -14.5659    1.0000 </r>
       <r>  -14.5658    1.0000 </r>
       <r>  -14.0693    1.0000 </r>
       <r>  -14.0429    1.0000 </r>
       <r>  -13.9755    1.0000 </r>
       <r>  -13.8538    1.0000 </r>
       <r>  -13.7551    1.0000 </r>
       <r>  -13.6939    1.0000 </r>
       <r>  -13.4821    1.0000 </r>
       <r>  -13.4747    1.0000 </r>
       <r>  -13.2903    1.0000 </r>
       <r>  -13.2882    1.0000 </r>
       <r>  -13.2789    1.0000 </r>
       <r>  -13.2745    1.0000 </r>
       <r>  -13.2733    1.0000 </r>
       <r>  -13.2603    1.0000 </r>
       <r>  -13.2570    1.0000 </r>
       <r>  -13.2537    1.0000 </r>
       <r>  -13.2443    1.0000 </r>
[...]
       <r>     5.1794     0.6302   139.8971 </r>
       <r>     5.3336     4.1035   140.5295 </r>
       <r>     5.4877     3.6032   141.0848 </r>
       <r>     5.6418     0.7480   141.2001 </r>
       <r>     5.7959     1.4079   141.4170 </r>
       <r>     5.9500     0.8936   141.5547 </r>
       <r>     6.1041     8.9468   142.9335 </r>
       <r>     6.2582     4.5237   143.6307 </r>
       <r>     6.4123     1.1333   143.8053 </r>
       <r>     6.5664     0.8274   143.9328 </r>
       <r>     6.7206     0.0036   143.9334 </r>
       <r>     6.8747     0.6392   144.0319 </r>
       <r>     7.0288     0.9014   144.1708 </r>
       <r>     7.1829     3.8055   144.7573 </r>
       <r>     7.3370     5.6767   145.6321 </r>
       <r>     7.4911     6.2952   146.6023 </r>
       <r>     7.6452     8.6516   147.9356 </r>
       <r>     7.7993     6.4939   148.9364 </r>
       <r>     7.9534     5.7174   149.8175 </r>
       <r>     8.1076     5.1145   150.6057 </r>
       <r>     8.2617    11.9192   152.4426 </r>
       <r>     8.4158    10.6165   154.0787 </r>
       <r>     8.5699    14.4794   156.3101 </r>
       <r>     8.7240    11.1076   158.0220 </r>
       <r>     8.8781     9.1505   159.4321 </r>
       <r>     9.0322    10.6642   161.0756 </r>
       <r>     9.1863     8.7969   162.4313 </r>
       <r>     9.3405     7.2675   163.5513 </r>
       <r>     9.4946     4.2796   164.2109 </r>
       <r>     9.6487    14.7770   166.4882 </r>
       <r>     9.8028    18.5521   169.3473 </r>
       <r>     9.9569    15.0111   171.6607 </r>
       <r>    10.1110    10.0976   173.2168 </r>
       <r>    10.2651     6.4297   174.2077 </r>
       <r>    10.4192     6.1331   175.1529 </r>
       <r>    10.5733     2.3967   175.5222 </r>
       <r>    10.7275     3.0980   175.9997 </r>
       <r>    10.8816     0.0022   176.0000 </r>
       <r>    11.0357     0.0000   176.0000 </r>
       <r>    11.1898     0.0000   176.0000 </r>
       <r>    11.3439     0.0000   176.0000 </r>
       <r>    11.4980     0.0000   176.0000 </r>
       <r>    11.6521     0.0000   176.0000 </r>
       <r>    11.8062     0.0000   176.0000 </r>
       <r>    11.9603     0.0000   176.0000 </r>
       <r>    12.1145     0.0000   176.0000 </r>
       <r>    12.2686     0.0000   176.0000 </r>
       <r>    12.4227     0.0000   176.0000 </r>
       <r>    12.5768     0.0000   176.0000 </r>
       <r>    12.7309     0.0000   176.0000 </r>
      </set>
      <set comment="spin 2">
       <r>   -33.5025     0.0000     0.0000 </r>
       <r>   -33.3484     0.0000     0.0000 </r>
       <r>   -33.1942     0.0000     0.0000 </r>
       <r>   -33.0401     0.0000     0.0000 </r>
       <r>   -32.8860     0.0000     0.0000 </r>
       <r>   -32.7319     0.0000     0.0000 </r>
       <r>   -32.5778     0.0000     0.0000 </r>
       <r>   -32.4237     0.0000     0.0000 </r>
       <r>   -32.2696     0.0000     0.0000 </r>
       <r>   -32.1155     0.0000     0.0000 </r>
       <r>   -31.9614     0.0000     0.0000 </r>
       <r>   -31.8072     0.0000     0.0000 </r>
       <r>   -31.6531     0.0000     0.0000 </r>
       <r>   -31.4990     0.0296     0.0046 </r>
       <r>   -31.3449    43.6894     6.7376 </r>
       <r>   -31.1908     8.1916     8.0000 </r>
       <r>   -31.0367     0.0000     8.0000 </r>
       <r>   -30.8826     0.0000     8.0000 </r>
       <r>   -30.7285     0.0000     8.0000 </r>
       <r>   -30.5744     0.0000     8.0000 </r>
       <r>   -30.4202     0.0000     8.0000 </r>
       <r>   -30.2661     0.0000     8.0000 </r>
       <r>   -30.1120     0.0000     8.0000 </r>
       <r>   -29.9579     0.0000     8.0000 </r>
       <r>   -29.8038     0.0000     8.0000 </r>
       <r>   -29.6497     0.0000     8.0000 </r>
       <r>   -29.4956     0.0000     8.0000 </r>
       <r>   -29.3415     0.0000     8.0000 </r>
       <r>   -29.1874     0.0000     8.0000 </r>
       <r>   -29.0332     0.0000     8.0000 </r>
       <r>   -28.8791     0.0000     8.0000 </r>
       <r>   -28.7250     0.0000     8.0000 </r>
       <r>   -28.5709     0.0000     8.0000 </r>
       <r>   -28.4168     0.0000     8.0000 </r>
       <r>   -28.2627     0.0000     8.0000 </r>
       <r>   -28.1086     0.0000     8.0000 </r>
       <r>   -27.9545     0.0000     8.0000 </r>
       <r>   -27.8004     0.0000     8.0000 </r>
       <r>   -27.6462     0.0000     8.0000 </r>
       <r>   -27.4921     0.0000     8.0000 </r>
       <r>   -27.3380     0.0000     8.0000 </r>
       <r>   -27.1839     0.0000     8.0000 </r>
       <r>   -27.0298     0.0000     8.0000 </r>
       <r>   -26.8757     0.0000     8.0000 </r>
       <r>   -26.7216     0.0000     8.0000 </r>
       <r>   -26.5675     0.0000     8.0000 </r>
       <r>   -26.4134     0.0000     8.0000 </r>
       <r>   -26.2592     0.0000     8.0000 </r>
       <r>   -26.1051     0.0000     8.0000 </r>
       <r>   -25.9510     0.0000     8.0000 </r>
       <r>   -25.7969     0.0000     8.0000 </r>
       <r>   -25.6428     0.0000     8.0000 </r>
       <r>   -25.4887     0.0000     8.0000 </r>
       <r>   -25.3346     0.0000     8.0000 </r>
       <r>   -25.1805     0.0000     8.0000 </r>
       <r>   -25.0264     0.0000     8.0000 </r>
       <r>   -24.8722     0.0000     8.0000 </r>
       <r>   -24.7181     0.0000     8.0000 </r>
       <r>   -24.5640     0.0000     8.0000 </r>
       <r>   -24.4099     0.0000     8.0000 </r>
       <r>   -24.2558     0.0000     8.0000 </r>
       <r>   -24.1017     0.0000     8.0000 </r>
       <r>   -23.9476     0.0000     8.0000 </r>
       <r>   -23.7935     0.0000     8.0000 </r>
       <r>   -23.6394     0.0000     8.0000 </r>
       <r>   -23.4852     0.0000     8.0000 </r>
       <r>   -23.3311     0.0000     8.0000 </r>
       <r>   -23.1770     0.0000     8.0000 </r>
       <r>   -23.0229     0.0000     8.0000 </r>
       <r>   -22.8688     0.0000     8.0000 </r>
       <r>   -22.7147     0.0000     8.0000 </r>
       <r>   -22.5606     0.0000     8.0000 </r>
       <r>   -22.4065     0.0000     8.0000 </r>
       <r>   -22.2524     0.0000     8.0000 </r>
       <r>   -22.0982     0.0000     8.0000 </r>
       <r>   -21.9441     0.0000     8.0000 </r>
       <r>   -21.7900     0.0000     8.0000 </r>
       <r>   -21.6359     0.0000     8.0000 </r>
       <r>   -21.4818     0.0000     8.0000 </r>
       <r>   -21.3277     0.0000     8.0000 </r>
       <r>   -21.1736     0.0000     8.0000 </r>
       <r>   -21.0195     0.0000     8.0000 </r>
       <r>   -20.8654     0.0000     8.0000 </r>
       <r>   -20.7112     0.0000     8.0000 </r>
       <r>   -20.5571     0.0000     8.0000 </r>
       <r>   -20.4030     0.0000     8.0000 </r>
       <r>   -20.2489     0.0000     8.0000 </r>
       <r>   -20.0948     0.0000     8.0000 </r>
       <r>   -19.9407     0.0000     8.0000 </r>
       <r>   -19.7866     0.0000     8.0000 </r>
       <r>   -19.6325     0.0000     8.0000 </r>
       <r>   -19.4783     0.0000     8.0000 </r>
       <r>   -19.3242     0.0000     8.0000 </r>
       <r>   -19.1701     0.0000     8.0000 </r>
       <r>   -19.0160     0.0000     8.0000 </r>
       <r>   -18.8619     0.0000     8.0000 </r>
       <r>   -18.7078     0.0000     8.0000 </r>
       <r>   -18.5537     0.0000     8.0000 </r>
       <r>   -18.3996     0.0000     8.0000 </r>
       <r>   -18.2455     0.0000     8.0000 </r>
       <r>   -18.0913     0.0000     8.0000 </r>
       <r>   -17.9372     0.0000     8.0000 </r>
       <r>   -17.7831     0.0000     8.0000 </r>
       <r>   -17.6290     0.0000     8.0000 </r>
       <r>   -17.4749     0.0000     8.0000 </r>
       <r>   -17.3208     0.0000     8.0000 </r>
       <r>   -17.1667     0.0000     8.0000 </r>
       <r>   -17.0126     0.0000     8.0000 </r>
       <r>   -16.8585     0.0000     8.0000 </r>
       <r>   -16.7043     0.0000     8.0000 </r>
       <r>   -16.5502     0.0000     8.0000 </r>
       <r>   -16.3961     0.0000     8.0000 </r>
       <r>   -16.2420     0.0000     8.0000 </r>
       <r>   -16.0879     0.0000     8.0000 </r>
       <r>   -15.9338     0.0000     8.0000 </r>
       <r>   -15.7797     0.0000     8.0000 </r>
       <r>   -15.6256     0.0000     8.0000 </r>
       <r>   -15.4715     0.0000     8.0000 </r>
       <r>   -15.3173     0.0000     8.0000 </r>
       <r>   -15.1632     0.0000     8.0000 </r>
       <r>   -15.0091     0.1062     8.0164 </r>
       <r>   -14.8550     4.3220     8.6824 </r>
       <r>   -14.7009    12.8209    10.6583 </r>
       <r>   -14.5468    18.7871    13.5536 </r>
       <r>   -14.3927    11.8112    15.3738 </r>
       <r>   -14.2386     3.3609    15.8918 </r>
       <r>   -14.0845     2.4028    16.2621 </r>
       <r>   -13.9303    18.4516    19.1057 </r>
       <r>   -13.7762    10.9201    20.7886 </r>
       <r>   -13.6221     6.9705    21.8628 </r>
       <r>   -13.4680    17.8204    24.6091 </r>
       <r>   -13.3139    39.7674    30.7377 </r>
       <r>   -13.1598    36.5881    36.3764 </r>
       <r>   -13.0057    18.6832    39.2556 </r>
       <r>   -12.8516    31.6255    44.1295 </r>
       <r>   -12.6975    24.1625    47.8532 </r>
       <r>   -12.5433     0.9525    48.0000 </r>
       <r>   -12.3892     0.0000    48.0000 </r>
       <r>   -12.2351     0.0000    48.0000 </r>
       <r>   -12.0810     0.0000    48.0000 </r>
       <r>   -11.9269     0.0000    48.0000 </r>
       <r>   -11.7728     0.0000    48.0000 </r>
       <r>   -11.6187     0.0000    48.0000 </r>
       <r>   -11.4646     0.0000    48.0000 </r>
       <r>   -11.3105     0.0000    48.0000 </r>
       <r>   -11.1563     0.0000    48.0000 </r>
       <r>   -11.0022     0.0000    48.0000 </r>
       <r>   -10.8481     0.0000    48.0000 </r>
       <r>   -10.6940     0.0000    48.0000 </r>
       <r>   -10.5399     0.0000    48.0000 </r>
       <r>   -10.3858     0.0000    48.0000 </r>
       <r>   -10.2317     0.0000    48.0000 </r>
       <r>   -10.0776     0.0000    48.0000 </r>
       <r>    -9.9235     0.0000    48.0000 </r>
       <r>    -9.7693     0.0000    48.0000 </r>
       <r>    -9.6152     0.0000    48.0000 </r>
       <r>    -9.4611     0.0000    48.0000 </r>
       <r>    -9.3070     0.0000    48.0000 </r>
       <r>    -9.1529     0.0000    48.0000 </r>
       <r>    -8.9988     0.0000    48.0000 </r>
       <r>    -8.8447     0.0000    48.0000 </r>
       <r>    -8.6906     0.0000    48.0000 </r>
       <r>    -8.5365     0.0000    48.0000 </r>
       <r>    -8.3823     0.0000    48.0000 </r>
       <r>    -8.2282     0.0000    48.0000 </r>
       <r>    -8.0741     0.0000    48.0000 </r>
       <r>    -7.9200     0.0000    48.0000 </r>
       <r>    -7.7659     0.0000    48.0000 </r>
       <r>    -7.6118     0.0000    48.0000 </r>
       <r>    -7.4577     0.0000    48.0000 </r>
       <r>    -7.3036     0.0000    48.0000 </r>
       <r>    -7.1495     0.0000    48.0000 </r>
       <r>    -6.9953     0.0000    48.0000 </r>
       <r>    -6.8412     0.0000    48.0000 </r>
       <r>    -6.6871     0.0000    48.0000 </r>
       <r>    -6.5330     0.0000    48.0000 </r>
       <r>    -6.3789     0.0000    48.0000 </r>
       <r>    -6.2248     0.0000    48.0000 </r>
       <r>    -6.0707     0.0000    48.0000 </r>
       <r>    -5.9166     0.0000    48.0000 </r>
       <r>    -5.7625     0.0000    48.0000 </r>
       <r>    -5.6083     0.0000    48.0000 </r>
       <r>    -5.4542     0.0000    48.0000 </r>
       <r>    -5.3001     0.0000    48.0000 </r>
       <r>    -5.1460     0.0000    48.0000 </r>
       <r>    -4.9919     0.0000    48.0000 </r>
       <r>    -4.8378     0.0000    48.0000 </r>
       <r>    -4.6837     0.0000    48.0000 </r>
       <r>    -4.5296     0.0000    48.0000 </r>
       <r>    -4.3754     0.0000    48.0000 </r>
       <r>    -4.2213     0.0000    48.0000 </r>
       <r>    -4.0672     0.0000    48.0000 </r>
       <r>    -3.9131     0.0000    48.0000 </r>
       <r>    -3.7590     0.0000    48.0000 </r>
       <r>    -3.6049     0.0000    48.0000 </r>
       <r>    -3.4508     0.0000    48.0000 </r>
       <r>    -3.2967     0.0000    48.0000 </r>
       <r>    -3.1426     0.0000    48.0000 </r>
       <r>    -2.9884     0.3489    48.0538 </r>
       <r>    -2.8343     5.3645    48.8805 </r>
       <r>    -2.6802     3.7993    49.4660 </r>
       <r>    -2.5261     5.5564    50.3223 </r>
       <r>    -2.3720     9.4419    51.7774 </r>
       <r>    -2.2179     3.7360    52.3532 </r>
       <r>    -2.0638     5.2027    53.1550 </r>
       <r>    -1.9097    14.7073    55.4215 </r>
       <r>    -1.7556    13.7463    57.5400 </r>
       <r>    -1.6014    17.0732    60.1712 </r>
       <r>    -1.4473    22.0537    63.5699 </r>
       <r>    -1.2932    23.7601    67.2316 </r>
       <r>    -1.1391    30.5623    71.9416 </r>
       <r>    -0.9850    22.3195    75.3813 </r>
       <r>    -0.8309    18.6384    78.2537 </r>
       <r>    -0.6768    18.0733    81.0390 </r>
       <r>    -0.5227    13.7581    83.1592 </r>
       <r>    -0.3686    24.6661    86.9606 </r>
       <r>    -0.2144    25.0304    90.8180 </r>
       <r>    -0.0603    14.7011    93.0836 </r>
       <r>     0.0938     8.6352    94.4144 </r>
       <r>     0.2479     7.7118    95.6029 </r>
       <r>     0.4020     9.4665    97.0618 </r>
       <r>     0.5561     7.0716    98.1516 </r>
       <r>     0.7102    12.3283   100.0515 </r>
       <r>     0.8643     7.9967   101.2839 </r>
       <r>     1.0184    15.7836   103.7163 </r>
       <r>     1.1726    22.1769   107.1340 </r>
       <r>     1.3267    29.5833   111.6932 </r>
       <r>     1.4808    23.8144   115.3632 </r>
       <r>     1.6349    21.2130   118.6324 </r>
       <r>     1.7890    14.5409   120.8733 </r>
       <r>     1.9431    17.7960   123.6159 </r>
       <r>     2.0972    14.0352   125.7788 </r>
       <r>     2.2513    11.4412   127.5421 </r>
       <r>     2.4054     7.3472   128.6744 </r>
       <r>     2.5596    10.1245   130.2347 </r>
       <r>     2.7137     8.6262   131.5640 </r>
       <r>     2.8678     5.0550   132.3431 </r>
       <r>     3.0219     3.5682   132.8930 </r>
       <r>     3.1760     3.4966   133.4318 </r>
       <r>     3.3301     1.2413   133.6231 </r>
       <r>     3.4842     4.2801   134.2827 </r>
       <r>     3.6383     4.0315   134.9040 </r>
       <r>     3.7924     4.1844   135.5489 </r>
       <r>     3.9466     5.8535   136.4510 </r>
       <r>     4.1007     1.3862   136.6646 </r>
       <r>     4.2548     4.8605   137.4137 </r>
       <r>     4.4089     1.4745   137.6409 </r>
       <r>     4.5630     5.6927   138.5182 </r>
       <r>     4.7171     4.8999   139.2734 </r>
       <r>     4.8712     2.7779   139.7015 </r>
       <r>     5.0253     0.6392   139.8000 </r>
       <r>     5.1794     0.7495   139.9155 </r>
       <r>     5.3336     4.0597   140.5411 </r>
       <r>     5.4877     3.5524   141.0886 </r>
       <r>     5.6418     0.7230   141.2000 </r>
       <r>     5.7959     1.3250   141.4042 </r>
       <r>     5.9500     0.6169   141.4993 </r>
       <r>     6.1041     8.6881   142.8382 </r>
       <r>     6.2582     5.1179   143.6269 </r>
       <r>     6.4123     1.1496   143.8041 </r>
       <r>     6.5664     0.8347   143.9327 </r>
       <r>     6.7206     0.0042   143.9334 </r>
       <r>     6.8747     0.6643   144.0358 </r>
       <r>     7.0288     0.8294   144.1636 </r>
       <r>     7.1829     3.8734   144.7605 </r>
       <r>     7.3370     5.6043   145.6242 </r>
       <r>     7.4911     6.1606   146.5736 </r>
       <r>     7.6452     8.7931   147.9287 </r>
       <r>     7.7993     6.4946   148.9296 </r>
       <r>     7.9534     5.6794   149.8049 </r>
       <r>     8.1076     4.9029   150.5605 </r>
       <r>     8.2617    11.8074   152.3801 </r>
       <r>     8.4158    10.9156   154.0624 </r>
       <r>     8.5699    14.1028   156.2358 </r>
       <r>     8.7240    11.2680   157.9723 </r>
       <r>     8.8781     9.3232   159.4091 </r>
       <r>     9.0322    10.3918   161.0106 </r>
       <r>     9.1863     8.8302   162.3714 </r>
       <r>     9.3405     7.5859   163.5405 </r>
       <r>     9.4946     4.2080   164.1890 </r>
       <r>     9.6487    14.0864   166.3599 </r>
       <r>     9.8028    18.8753   169.2688 </r>
       <r>     9.9569    15.2021   171.6116 </r>
       <r>    10.1110     9.9289   173.1417 </r>
       <r>    10.2651     6.7224   174.1777 </r>
       <r>    10.4192     6.1971   175.1328 </r>
       <r>    10.5733     2.5196   175.5211 </r>
       <r>    10.7275     3.1030   175.9993 </r>
       <r>    10.8816     0.0048   176.0000 </r>
       <r>    11.0357     0.0000   176.0000 </r>
       <r>    11.1898     0.0000   176.0000 </r>
       <r>    11.3439     0.0000   176.0000 </r>
       <r>    11.4980     0.0000   176.0000 </r>
       <r>    11.6521     0.0000   176.0000 </r>
       <r>    11.8062     0.0000   176.0000 </r>
       <r>    11.9603     0.0000   176.0000 </r>
       <r>    12.1145     0.0000   176.0000 </r>
       <r>    12.2686     0.0000   176.0000 </r>
       <r>    12.4227     0.0000   176.0000 </r>
       <r>    12.5768     0.0000   176.0000 </r>
       <r>    12.7309     0.0000   176.0000 </r>
      </set>
     </set>
    </array>
   </total>
  </dos>
 </calculation>
 <structure name="finalpos" >
  <crystal>
   <varray name="basis" >
    <v>       8.00000000       0.00000000       0.00000000 </v>
    <v>       0.00000000      16.00000000       0.00000000 </v>
    <v>       0.00000000       0.00000000       4.00000000 </v>
   </varray>
   <i name="volume">    512.00000000 </i>
   <varray name="rec_basis" >
    <v>       0.12500000       0.00000000       0.00000000 </v>
    <v>       0.00000000       0.06250000       0.00000000 </v>
    <v>       0.00000000       0.00000000       0.25000000 </v>
   </varray>
  </crystal>
  <varray name="positions" >
   <v>       0.75000000       0.12500000       0.00000000 </v>
   <v>       0.25000000       0.37500000       0.00000000 </v>
   <v>       0.25000000       0.12500000       0.00000000 </v>
   <v>       0.75000000       0.37500000       0.00000000 </v>
   <v>       0.25000000       0.62500000       0.00000000 </v>
   <v>       0.75000000       0.87500000       0.00000000 </v>
   <v>       0.75000000       0.62500000       0.00000000 </v>
   <v>       0.25000000       0.87500000       0.00000000 </v>
   <v>       0.50000000       0.50000000       0.50000000 </v>
   <v>       0.50000000       0.25000000       0.50000000 </v>
   <v>       0.00000000       0.50000000       0.50000000 </v>
   <v>       0.00000000       0.25000000       0.50000000 </v>
   <v>       0.00000000       0.00000000       0.50000000 </v>
   <v>       0.00000000       0.75000000       0.50000000 </v>
   <v>       0.50000000       0.00000000       0.50000000 </v>
   <v>       0.50000000       0.75000000       0.50000000 </v>
   <v>       0.50000000       0.12500000       0.50000000 </v>
   <v>       0.00000000       0.37500000       0.50000000 </v>
   <v>       0.50000000       0.50000000       0.00000000 </v>
   <v>       0.00000000       0.50000000       0.00000000 </v>
   <v>       0.25000000       0.50000000       0.50000000 </v>
   <v>       0.25000000       0.25000000       0.50000000 </v>
   <v>       0.75000000       0.50000000       0.50000000 </v>
   <v>       0.75000000       0.25000000       0.50000000 </v>
   <v>       0.00000000       0.62500000       0.50000000 </v>
   <v>       0.50000000       0.87500000       0.50000000 </v>
   <v>       0.00000000       0.00000000       0.00000000 </v>
   <v>       0.50000000       0.00000000       0.00000000 </v>
   <v>       0.75000000       0.00000000       0.50000000 </v>
   <v>       0.75000000       0.75000000       0.50000000 </v>
   <v>       0.25000000       0.00000000       0.50000000 </v>
   <v>       0.25000000       0.75000000       0.50000000 </v>
  </varray>
 </structure>
</modeling>
