<?xml version="1.0" encoding="ISO-8859-1"?>
<modeling>
 <generator>
  <i name="program" type="string">vasp </i>
  <i name="version" type="string">5.3.5  </i>
  <i name="subversion" type="string">31Mar14 (build Jun 20 2014 13:15:13) complex                          parallel </i>
  <i name="platform" type="string">LinuxIFC </i>
  <i name="date" type="string">2025 11 21 </i>
  <i name="time" type="string">10:23:32 </i>
 </generator>
 <incar>
  <i type="string" name="PREC">accurate</i>
  <i type="int" name="IALGO">    68</i>
  <i type="logical" name="ADDGRID"> T  </i>
  <i type="int" name="NELM">   100</i>
  <i type="int" name="NELMIN">     4</i>
  <i type="int" name="IBRION">     2</i>
  <i name="EDIFF">      0.00000100</i>
  <i name="EDIFFG">     -0.02000000</i>
  <i type="int" name="NSW">    30</i>
  <i type="int" name="ISIF">     3</i>
  <i name="ENCUT">    500.00000000</i>
  <i type="logical" name="LREAL"> F  </i>
  <i type="int" name="ISMEAR">     1</i>
  <i name="SIGMA">      0.30000000</i>
  <i type="logical" name="LWAVE"> F  </i>
  <i type="logical" name="LCHARG"> F  </i>
  <i type="int" name="NELM">   100</i>
 </incar>
 <kpoints>
  <generation param="Auto">
   <i name="subdivisionlength">     70.00000000 </i>
   <v type="int" name="divisions">      24       15       15 </v>
   <v name="usershift">      0.00000000       0.00000000       0.00000000 </v>
   <v name="genvec1">      0.04166667       0.00000000       0.00000000 </v>
   <v name="genvec2">      0.00000000       0.06666667       0.00000000 </v>
   <v name="genvec3">      0.00000000       0.00000000       0.06666667 </v>
   <v name="shift">      0.00000000       0.00000000       0.00000000 </v>
  </generation>
  <varray name="kpointlist" >
   <v>       0.00000000       0.00000000       0.00000000 </v>
   <v>       0.04166667       0.00000000       0.00000000 </v>
   <v>       0.08333333       0.00000000       0.00000000 </v>
   <v>       0.12500000       0.00000000       0.00000000 </v>
   <v>       0.16666667       0.00000000       0.00000000 </v>
   <v>       0.20833333       0.00000000       0.00000000 </v>
   <v>       0.25000000       0.00000000       0.00000000 </v>
   <v>       0.29166667       0.00000000       0.00000000 </v>
   <v>       0.33333333       0.00000000       0.00000000 </v>
   <v>       0.37500000       0.00000000       0.00000000 </v>
   <v>       0.41666667       0.00000000       0.00000000 </v>
   <v>       0.45833333       0.00000000       0.00000000 </v>
   <v>       0.50000000       0.00000000       0.00000000 </v>
   <v>       0.00000000       0.06666667       0.00000000 </v>
   <v>       0.04166667       0.06666667       0.00000000 </v>
   <v>       0.08333333       0.06666667       0.00000000 </v>
   <v>       0.12500000       0.06666667       0.00000000 </v>
   <v>       0.16666667       0.06666667       0.00000000 </v>
   <v>       0.20833333       0.06666667       0.00000000 </v>
   <v>       0.25000000       0.06666667       0.00000000 </v>
   <v>       0.29166667       0.06666667       0.00000000 </v>
   <v>       0.33333333       0.06666667       0.00000000 </v>
   <v>       0.37500000       0.06666667       0.00000000 </v>
   <v>       0.41666667       0.06666667       0.00000000 </v>
   <v>       0.45833333       0.06666667       0.00000000 </v>
   <v>       0.50000000       0.06666667       0.00000000 </v>
   <v>       0.00000000       0.13333333       0.00000000 </v>
   <v>       0.04166667       0.13333333       0.00000000 </v>
   <v>       0.08333333       0.13333333       0.00000000 </v>
   <v>       0.12500000       0.13333333       0.00000000 </v>
   <v>       0.16666667       0.13333333       0.00000000 </v>
   <v>       0.20833333       0.13333333       0.00000000 </v>
   <v>       0.25000000       0.13333333       0.00000000 </v>
   <v>       0.29166667       0.13333333       0.00000000 </v>
   <v>       0.33333333       0.13333333       0.00000000 </v>
   <v>       0.37500000       0.13333333       0.00000000 </v>
   <v>       0.41666667       0.13333333       0.00000000 </v>
   <v>       0.45833333       0.13333333       0.00000000 </v>
   <v>       0.50000000       0.13333333       0.00000000 </v>
   <v>       0.00000000       0.20000000       0.00000000 </v>
   <v>       0.04166667       0.20000000       0.00000000 </v>
   <v>       0.08333333       0.20000000       0.00000000 </v>
   <v>       0.12500000       0.20000000       0.00000000 </v>
   <v>       0.16666667       0.20000000       0.00000000 </v>
   <v>       0.20833333       0.20000000       0.00000000 </v>
   <v>       0.25000000       0.20000000       0.00000000 </v>
   <v>       0.29166667       0.20000000       0.00000000 </v>
   <v>       0.33333333       0.20000000       0.00000000 </v>
   <v>       0.37500000       0.20000000       0.00000000 </v>
   <v>       0.41666667       0.20000000       0.00000000 </v>
   <v>       0.45833333       0.20000000       0.00000000 </v>
   <v>       0.50000000       0.20000000       0.00000000 </v>
   <v>       0.00000000       0.26666667       0.00000000 </v>
   <v>       0.04166667       0.26666667       0.00000000 </v>
   <v>       0.08333333       0.26666667       0.00000000 </v>
   <v>       0.12500000       0.26666667       0.00000000 </v>
   <v>       0.16666667       0.26666667       0.00000000 </v>
   <v>       0.20833333       0.26666667       0.00000000 </v>
   <v>       0.25000000       0.26666667       0.00000000 </v>
   <v>       0.29166667       0.26666667       0.00000000 </v>
   <v>       0.33333333       0.26666667       0.00000000 </v>
   <v>       0.37500000       0.26666667       0.00000000 </v>
   <v>       0.41666667       0.26666667       0.00000000 </v>
   <v>       0.45833333       0.26666667       0.00000000 </v>
   <v>       0.50000000       0.26666667       0.00000000 </v>
   <v>       0.00000000       0.33333333       0.00000000 </v>
   <v>       0.04166667       0.33333333       0.00000000 </v>
   <v>       0.08333333       0.33333333       0.00000000 </v>
   <v>       0.12500000       0.33333333       0.00000000 </v>
   <v>       0.16666667       0.33333333       0.00000000 </v>
   <v>       0.20833333       0.33333333       0.00000000 </v>
   <v>       0.25000000       0.33333333       0.00000000 </v>
   <v>       0.29166667       0.33333333       0.00000000 </v>
   <v>       0.33333333       0.33333333       0.00000000 </v>
   <v>       0.37500000       0.33333333       0.00000000 </v>
   <v>       0.41666667       0.33333333       0.00000000 </v>
   <v>       0.45833333       0.33333333       0.00000000 </v>
   <v>       0.50000000       0.33333333       0.00000000 </v>
   <v>       0.00000000       0.40000000       0.00000000 </v>
   <v>       0.04166667       0.40000000       0.00000000 </v>
   <v>       0.08333333       0.40000000       0.00000000 </v>
   <v>       0.12500000       0.40000000       0.00000000 </v>
   <v>       0.16666667       0.40000000       0.00000000 </v>
   <v>       0.20833333       0.40000000       0.00000000 </v>
   <v>       0.25000000       0.40000000       0.00000000 </v>
   <v>       0.29166667       0.40000000       0.00000000 </v>
   <v>       0.33333333       0.40000000       0.00000000 </v>
   <v>       0.37500000       0.40000000       0.00000000 </v>
   <v>       0.41666667       0.40000000       0.00000000 </v>
   <v>       0.45833333       0.40000000       0.00000000 </v>
   <v>       0.50000000       0.40000000       0.00000000 </v>
   <v>       0.00000000       0.46666667       0.00000000 </v>
   <v>       0.04166667       0.46666667       0.00000000 </v>
   <v>       0.08333333       0.46666667       0.00000000 </v>
   <v>       0.12500000       0.46666667       0.00000000 </v>
   <v>       0.16666667       0.46666667       0.00000000 </v>
   <v>       0.20833333       0.46666667       0.00000000 </v>
   <v>       0.25000000       0.46666667       0.00000000 </v>
   <v>       0.29166667       0.46666667       0.00000000 </v>
   <v>       0.33333333       0.46666667       0.00000000 </v>
   <v>       0.37500000       0.46666667       0.00000000 </v>
   <v>       0.41666667       0.46666667       0.00000000 </v>
   <v>       0.45833333       0.46666667       0.00000000 </v>
   <v>       0.50000000       0.46666667       0.00000000 </v>
   <v>       0.00000000       0.06666667       0.06666667 </v>
   <v>       0.04166667       0.06666667       0.06666667 </v>
   <v>       0.08333333       0.06666667       0.06666667 </v>
   <v>       0.12500000       0.06666667       0.06666667 </v>
   <v>       0.16666667       0.06666667       0.06666667 </v>
   <v>       0.20833333       0.06666667       0.06666667 </v>
   <v>       0.25000000       0.06666667       0.06666667 </v>
   <v>       0.29166667       0.06666667       0.06666667 </v>
   <v>       0.33333333       0.06666667       0.06666667 </v>
   <v>       0.37500000       0.06666667       0.06666667 </v>
   <v>       0.41666667       0.06666667       0.06666667 </v>
   <v>       0.45833333       0.06666667       0.06666667 </v>
   <v>       0.50000000       0.06666667       0.06666667 </v>
   <v>       0.00000000       0.13333333       0.06666667 </v>
   <v>       0.04166667       0.13333333       0.06666667 </v>
   <v>       0.08333333       0.13333333       0.06666667 </v>
   <v>       0.12500000       0.13333333       0.06666667 </v>
   <v>       0.16666667       0.13333333       0.06666667 </v>
   <v>       0.20833333       0.13333333       0.06666667 </v>
   <v>       0.25000000       0.13333333       0.06666667 </v>
   <v>       0.29166667       0.13333333       0.06666667 </v>
   <v>       0.33333333       0.13333333       0.06666667 </v>
   <v>       0.37500000       0.13333333       0.06666667 </v>
   <v>       0.41666667       0.13333333       0.06666667 </v>
   <v>       0.45833333       0.13333333       0.06666667 </v>
   <v>       0.50000000       0.13333333       0.06666667 </v>
   <v>       0.00000000       0.20000000       0.06666667 </v>
   <v>       0.04166667       0.20000000       0.06666667 </v>
   <v>       0.08333333       0.20000000       0.06666667 </v>
   <v>       0.12500000       0.20000000       0.06666667 </v>
   <v>       0.16666667       0.20000000       0.06666667 </v>
   <v>       0.20833333       0.20000000       0.06666667 </v>
   <v>       0.25000000       0.20000000       0.06666667 </v>
   <v>       0.29166667       0.20000000       0.06666667 </v>
   <v>       0.33333333       0.20000000       0.06666667 </v>
   <v>       0.37500000       0.20000000       0.06666667 </v>
   <v>       0.41666667       0.20000000       0.06666667 </v>
   <v>       0.45833333       0.20000000       0.06666667 </v>
   <v>       0.50000000       0.20000000       0.06666667 </v>
   <v>       0.00000000       0.26666667       0.06666667 </v>
   <v>       0.04166667       0.26666667       0.06666667 </v>
   <v>       0.08333333       0.26666667       0.06666667 </v>
   <v>       0.12500000       0.26666667       0.06666667 </v>
   <v>       0.16666667       0.26666667       0.06666667 </v>
   <v>       0.20833333       0.26666667       0.06666667 </v>
   <v>       0.25000000       0.26666667       0.06666667 </v>
   <v>       0.29166667       0.26666667       0.06666667 </v>
   <v>       0.33333333       0.26666667       0.06666667 </v>
   <v>       0.37500000       0.26666667       0.06666667 </v>
   <v>       0.41666667       0.26666667       0.06666667 </v>
   <v>       0.45833333       0.26666667       0.06666667 </v>
   <v>       0.50000000       0.26666667       0.06666667 </v>
   <v>       0.00000000       0.33333333       0.06666667 </v>
   <v>       0.04166667       0.33333333       0.06666667 </v>
   <v>       0.08333333       0.33333333       0.06666667 </v>
   <v>       0.12500000       0.33333333       0.06666667 </v>
   <v>       0.16666667       0.33333333       0.06666667 </v>
   <v>       0.20833333       0.33333333       0.06666667 </v>
   <v>       0.25000000       0.33333333       0.06666667 </v>
   <v>       0.29166667       0.33333333       0.06666667 </v>
   <v>       0.33333333       0.33333333       0.06666667 </v>
   <v>       0.37500000       0.33333333       0.06666667 </v>
   <v>       0.41666667       0.33333333       0.06666667 </v>
   <v>       0.45833333       0.33333333       0.06666667 </v>
   <v>       0.50000000       0.33333333       0.06666667 </v>
   <v>       0.00000000       0.40000000       0.06666667 </v>
   <v>       0.04166667       0.40000000       0.06666667 </v>
   <v>       0.08333333       0.40000000       0.06666667 </v>
   <v>       0.12500000       0.40000000       0.06666667 </v>
   <v>       0.16666667       0.40000000       0.06666667 </v>
   <v>       0.20833333       0.40000000       0.06666667 </v>
   <v>       0.25000000       0.40000000       0.06666667 </v>
   <v>       0.29166667       0.40000000       0.06666667 </v>
   <v>       0.33333333       0.40000000       0.06666667 </v>
   <v>       0.37500000       0.40000000       0.06666667 </v>
   <v>       0.41666667       0.40000000       0.06666667 </v>
   <v>       0.45833333       0.40000000       0.06666667 </v>
   <v>       0.50000000       0.40000000       0.06666667 </v>
   <v>       0.00000000       0.46666667       0.06666667 </v>
   <v>       0.04166667       0.46666667       0.06666667 </v>
   <v>       0.08333333       0.46666667       0.06666667 </v>
   <v>       0.12500000       0.46666667       0.06666667 </v>
   <v>       0.16666667       0.46666667       0.06666667 </v>
   <v>       0.20833333       0.46666667       0.06666667 </v>
   <v>       0.25000000       0.46666667       0.06666667 </v>
   <v>       0.29166667       0.46666667       0.06666667 </v>
   <v>       0.33333333       0.46666667       0.06666667 </v>
   <v>       0.37500000       0.46666667       0.06666667 </v>
   <v>       0.41666667       0.46666667       0.06666667 </v>
   <v>       0.45833333       0.46666667       0.06666667 </v>
   <v>       0.50000000       0.46666667       0.06666667 </v>
   <v>       0.00000000      -0.46666667       0.06666667 </v>
   <v>       0.04166667      -0.46666667       0.06666667 </v>
   <v>       0.08333333      -0.46666667       0.06666667 </v>
   <v>       0.12500000      -0.46666667       0.06666667 </v>
   <v>       0.16666667      -0.46666667       0.06666667 </v>
   <v>       0.20833333      -0.46666667       0.06666667 </v>
   <v>       0.25000000      -0.46666667       0.06666667 </v>
   <v>       0.29166667      -0.46666667       0.06666667 </v>
   <v>       0.33333333      -0.46666667       0.06666667 </v>
   <v>       0.37500000      -0.46666667       0.06666667 </v>
   <v>       0.41666667      -0.46666667       0.06666667 </v>
   <v>       0.45833333      -0.46666667       0.06666667 </v>
   <v>       0.50000000      -0.46666667       0.06666667 </v>
   <v>       0.00000000      -0.40000000       0.06666667 </v>
   <v>       0.04166667      -0.40000000       0.06666667 </v>
   <v>       0.08333333      -0.40000000       0.06666667 </v>
   <v>       0.12500000      -0.40000000       0.06666667 </v>
   <v>       0.16666667      -0.40000000       0.06666667 </v>
   <v>       0.20833333      -0.40000000       0.06666667 </v>
   <v>       0.25000000      -0.40000000       0.06666667 </v>
   <v>       0.29166667      -0.40000000       0.06666667 </v>
   <v>       0.33333333      -0.40000000       0.06666667 </v>
   <v>       0.37500000      -0.40000000       0.06666667 </v>
   <v>       0.41666667      -0.40000000       0.06666667 </v>
   <v>       0.45833333      -0.40000000       0.06666667 </v>
   <v>       0.50000000      -0.40000000       0.06666667 </v>
   <v>       0.00000000      -0.33333333       0.06666667 </v>
   <v>       0.04166667      -0.33333333       0.06666667 </v>
   <v>       0.08333333      -0.33333333       0.06666667 </v>
   <v>       0.12500000      -0.33333333       0.06666667 </v>
   <v>       0.16666667      -0.33333333       0.06666667 </v>
   <v>       0.20833333      -0.33333333       0.06666667 </v>
   <v>       0.25000000      -0.33333333       0.06666667 </v>
   <v>       0.29166667      -0.33333333       0.06666667 </v>
   <v>       0.33333333      -0.33333333       0.06666667 </v>
   <v>       0.37500000      -0.33333333       0.06666667 </v>
   <v>       0.41666667      -0.33333333       0.06666667 </v>
   <v>       0.45833333      -0.33333333       0.06666667 </v>
   <v>       0.50000000      -0.33333333       0.06666667 </v>
   <v>       0.00000000      -0.26666667       0.06666667 </v>
   <v>       0.04166667      -0.26666667       0.06666667 </v>
   <v>       0.08333333      -0.26666667       0.06666667 </v>
   <v>       0.12500000      -0.26666667       0.06666667 </v>
   <v>       0.16666667      -0.26666667       0.06666667 </v>
   <v>       0.20833333      -0.26666667       0.06666667 </v>
   <v>       0.25000000      -0.26666667       0.06666667 </v>
   <v>       0.29166667      -0.26666667       0.06666667 </v>
   <v>       0.33333333      -0.26666667       0.06666667 </v>
   <v>       0.37500000      -0.26666667       0.06666667 </v>
   <v>       0.41666667      -0.26666667       0.06666667 </v>
   <v>       0.45833333      -0.26666667       0.06666667 </v>
   <v>       0.50000000      -0.26666667       0.06666667 </v>
   <v>       0.00000000      -0.20000000       0.06666667 </v>
   <v>       0.04166667      -0.20000000       0.06666667 </v>
   <v>       0.08333333      -0.20000000       0.06666667 </v>
   <v>       0.12500000      -0.20000000       0.06666667 </v>
   <v>       0.16666667      -0.20000000       0.06666667 </v>
   <v>       0.20833333      -0.20000000       0.06666667 </v>
   <v>       0.25000000      -0.20000000       0.06666667 </v>
   <v>       0.29166667      -0.20000000       0.06666667 </v>
   <v>       0.33333333      -0.20000000       0.06666667 </v>
   <v>       0.37500000      -0.20000000       0.06666667 </v>
   <v>       0.41666667      -0.20000000       0.06666667 </v>
   <v>       0.45833333      -0.20000000       0.06666667 </v>
   <v>       0.50000000      -0.20000000       0.06666667 </v>
   <v>       0.00000000      -0.13333333       0.06666667 </v>
   <v>       0.04166667      -0.13333333       0.06666667 </v>
   <v>       0.08333333      -0.13333333       0.06666667 </v>
   <v>       0.12500000      -0.13333333       0.06666667 </v>
   <v>       0.16666667      -0.13333333       0.06666667 </v>
   <v>       0.20833333      -0.13333333       0.06666667 </v>
   <v>       0.25000000      -0.13333333       0.06666667 </v>
   <v>       0.29166667      -0.13333333       0.06666667 </v>
   <v>       0.33333333      -0.13333333       0.06666667 </v>
   <v>       0.37500000      -0.13333333       0.06666667 </v>
   <v>       0.41666667      -0.13333333       0.06666667 </v>
   <v>       0.45833333      -0.13333333       0.06666667 </v>
   <v>       0.50000000      -0.13333333       0.06666667 </v>
   <v>       0.00000000      -0.06666667       0.06666667 </v>
   <v>       0.04166667      -0.06666667       0.06666667 </v>
   <v>       0.08333333      -0.06666667       0.06666667 </v>
   <v>       0.12500000      -0.06666667       0.06666667 </v>
   <v>       0.16666667      -0.06666667       0.06666667 </v>
   <v>       0.20833333      -0.06666667       0.06666667 </v>
   <v>       0.25000000      -0.06666667       0.06666667 </v>
   <v>       0.29166667      -0.06666667       0.06666667 </v>
   <v>       0.33333333      -0.06666667       0.06666667 </v>
   <v>       0.37500000      -0.06666667       0.06666667 </v>
   <v>       0.41666667      -0.06666667       0.06666667 </v>
   <v>       0.45833333      -0.06666667       0.06666667 </v>
   <v>       0.50000000      -0.06666667       0.06666667 </v>
   <v>       0.00000000       0.13333333       0.13333333 </v>
   <v>       0.04166667       0.13333333       0.13333333 </v>
   <v>       0.08333333       0.13333333       0.13333333 </v>
   <v>       0.12500000       0.13333333       0.13333333 </v>
   <v>       0.16666667       0.13333333       0.13333333 </v>
   <v>       0.20833333       0.13333333       0.13333333 </v>
   <v>       0.25000000       0.13333333       0.13333333 </v>
   <v>       0.29166667       0.13333333       0.13333333 </v>
   <v>       0.33333333       0.13333333       0.13333333 </v>
   <v>       0.37500000       0.13333333       0.13333333 </v>
   <v>       0.41666667       0.13333333       0.13333333 </v>
   <v>       0.45833333       0.13333333       0.13333333 </v>
   <v>       0.50000000       0.13333333       0.13333333 </v>
   <v>       0.00000000       0.20000000       0.13333333 </v>
   <v>       0.04166667       0.20000000       0.13333333 </v>
   <v>       0.08333333       0.20000000       0.13333333 </v>
   <v>       0.12500000       0.20000000       0.13333333 </v>
   <v>       0.16666667       0.20000000       0.13333333 </v>
   <v>       0.20833333       0.20000000       0.13333333 </v>
   <v>       0.25000000       0.20000000       0.13333333 </v>
   <v>       0.29166667       0.20000000       0.13333333 </v>
   <v>       0.33333333       0.20000000       0.13333333 </v>
   <v>       0.37500000       0.20000000       0.13333333 </v>
   <v>       0.41666667       0.20000000       0.13333333 </v>
   <v>       0.45833333       0.20000000       0.13333333 </v>
   <v>       0.50000000       0.20000000       0.13333333 </v>
   <v>       0.00000000       0.26666667       0.13333333 </v>
   <v>       0.04166667       0.26666667       0.13333333 </v>
   <v>       0.08333333       0.26666667       0.13333333 </v>
   <v>       0.12500000       0.26666667       0.13333333 </v>
   <v>       0.16666667       0.26666667       0.13333333 </v>
   <v>       0.20833333       0.26666667       0.13333333 </v>
   <v>       0.25000000       0.26666667       0.13333333 </v>
   <v>       0.29166667       0.26666667       0.13333333 </v>
   <v>       0.33333333       0.26666667       0.13333333 </v>
   <v>       0.37500000       0.26666667       0.13333333 </v>
   <v>       0.41666667       0.26666667       0.13333333 </v>
   <v>       0.45833333       0.26666667       0.13333333 </v>
   <v>       0.50000000       0.26666667       0.13333333 </v>
   <v>       0.00000000       0.33333333       0.13333333 </v>
   <v>       0.04166667       0.33333333       0.13333333 </v>
   <v>       0.08333333       0.33333333       0.13333333 </v>
   <v>       0.12500000       0.33333333       0.13333333 </v>
   <v>       0.16666667       0.33333333       0.13333333 </v>
   <v>       0.20833333       0.33333333       0.13333333 </v>
   <v>       0.25000000       0.33333333       0.13333333 </v>
   <v>       0.29166667       0.33333333       0.13333333 </v>
   <v>       0.33333333       0.33333333       0.13333333 </v>
   <v>       0.37500000       0.33333333       0.13333333 </v>
   <v>       0.41666667       0.33333333       0.13333333 </v>
   <v>       0.45833333       0.33333333       0.13333333 </v>
   <v>       0.50000000       0.33333333       0.13333333 </v>
   <v>       0.00000000       0.40000000       0.13333333 </v>
   <v>       0.04166667       0.40000000       0.13333333 </v>
   <v>       0.08333333       0.40000000       0.13333333 </v>
   <v>       0.12500000       0.40000000       0.13333333 </v>
   <v>       0.16666667       0.40000000       0.13333333 </v>
   <v>       0.20833333       0.40000000       0.13333333 </v>
   <v>       0.25000000       0.40000000       0.13333333 </v>
   <v>       0.29166667       0.40000000       0.13333333 </v>
   <v>       0.33333333       0.40000000       0.13333333 </v>
   <v>       0.37500000       0.40000000       0.13333333 </v>
   <v>       0.41666667       0.40000000       0.13333333 </v>
   <v>       0.45833333       0.40000000       0.13333333 </v>
   <v>       0.50000000       0.40000000       0.13333333 </v>
   <v>       0.00000000       0.46666667       0.13333333 </v>
   <v>       0.04166667       0.46666667       0.13333333 </v>
   <v>       0.08333333       0.46666667       0.13333333 </v>
   <v>       0.12500000       0.46666667       0.13333333 </v>
   <v>       0.16666667       0.46666667       0.13333333 </v>
   <v>       0.20833333       0.46666667       0.13333333 </v>
   <v>       0.25000000       0.46666667       0.13333333 </v>
   <v>       0.29166667       0.46666667       0.13333333 </v>
   <v>       0.33333333       0.46666667       0.13333333 </v>
   <v>       0.37500000       0.46666667       0.13333333 </v>
   <v>       0.41666667       0.46666667       0.13333333 </v>
   <v>       0.45833333       0.46666667       0.13333333 </v>
   <v>       0.50000000       0.46666667       0.13333333 </v>
   <v>       0.00000000      -0.46666667       0.13333333 </v>
   <v>       0.04166667      -0.46666667       0.13333333 </v>
   <v>       0.08333333      -0.46666667       0.13333333 </v>
   <v>       0.12500000      -0.46666667       0.13333333 </v>
   <v>       0.16666667      -0.46666667       0.13333333 </v>
   <v>       0.20833333      -0.46666667       0.13333333 </v>
   <v>       0.25000000      -0.46666667       0.13333333 </v>
   <v>       0.29166667      -0.46666667       0.13333333 </v>
   <v>       0.33333333      -0.46666667       0.13333333 </v>
   <v>       0.37500000      -0.46666667       0.13333333 </v>
   <v>       0.41666667      -0.46666667       0.13333333 </v>
   <v>       0.45833333      -0.46666667       0.13333333 </v>
   <v>       0.50000000      -0.46666667       0.13333333 </v>
   <v>       0.00000000      -0.40000000       0.13333333 </v>
   <v>       0.04166667      -0.40000000       0.13333333 </v>
   <v>       0.08333333      -0.40000000       0.13333333 </v>
   <v>       0.12500000      -0.40000000       0.13333333 </v>
   <v>       0.16666667      -0.40000000       0.13333333 </v>
   <v>       0.20833333      -0.40000000       0.13333333 </v>
   <v>       0.25000000      -0.40000000       0.13333333 </v>
   <v>       0.29166667      -0.40000000       0.13333333 </v>
   <v>       0.33333333      -0.40000000       0.13333333 </v>
   <v>       0.37500000      -0.40000000       0.13333333 </v>
   <v>       0.41666667      -0.40000000       0.13333333 </v>
   <v>       0.45833333      -0.40000000       0.13333333 </v>
   <v>       0.50000000      -0.40000000       0.13333333 </v>
   <v>       0.00000000      -0.33333333       0.13333333 </v>
   <v>       0.04166667      -0.33333333       0.13333333 </v>
   <v>       0.08333333      -0.33333333       0.13333333 </v>
   <v>       0.12500000      -0.33333333       0.13333333 </v>
   <v>       0.16666667      -0.33333333       0.13333333 </v>
   <v>       0.20833333      -0.33333333       0.13333333 </v>
   <v>       0.25000000      -0.33333333       0.13333333 </v>
   <v>       0.29166667      -0.33333333       0.13333333 </v>
   <v>       0.33333333      -0.33333333       0.13333333 </v>
   <v>       0.37500000      -0.33333333       0.13333333 </v>
   <v>       0.41666667      -0.33333333       0.13333333 </v>
   <v>       0.45833333      -0.33333333       0.13333333 </v>
   <v>       0.50000000      -0.33333333       0.13333333 </v>
   <v>       0.00000000      -0.26666667       0.13333333 </v>
   <v>       0.04166667      -0.26666667       0.13333333 </v>
   <v>       0.08333333      -0.26666667       0.13333333 </v>
   <v>       0.12500000      -0.26666667       0.13333333 </v>
   <v>       0.16666667      -0.26666667       0.13333333 </v>
   <v>       0.20833333      -0.26666667       0.13333333 </v>
   <v>       0.25000000      -0.26666667       0.13333333 </v>
   <v>       0.29166667      -0.26666667       0.13333333 </v>
   <v>       0.33333333      -0.26666667       0.13333333 </v>
   <v>       0.37500000      -0.26666667       0.13333333 </v>
   <v>       0.41666667      -0.26666667       0.13333333 </v>
   <v>       0.45833333      -0.26666667       0.13333333 </v>
   <v>       0.50000000      -0.26666667       0.13333333 </v>
   <v>       0.00000000      -0.20000000       0.13333333 </v>
   <v>       0.04166667      -0.20000000       0.13333333 </v>
   <v>       0.08333333      -0.20000000       0.13333333 </v>
   <v>       0.12500000      -0.20000000       0.13333333 </v>
   <v>       0.16666667      -0.20000000       0.13333333 </v>
   <v>       0.20833333      -0.20000000       0.13333333 </v>
   <v>       0.25000000      -0.20000000       0.13333333 </v>
   <v>       0.29166667      -0.20000000       0.13333333 </v>
   <v>       0.33333333      -0.20000000       0.13333333 </v>
   <v>       0.37500000      -0.20000000       0.13333333 </v>
   <v>       0.41666667      -0.20000000       0.13333333 </v>
   <v>       0.45833333      -0.20000000       0.13333333 </v>
   <v>       0.50000000      -0.20000000       0.13333333 </v>
   <v>       0.00000000      -0.13333333       0.13333333 </v>
   <v>       0.04166667      -0.13333333       0.13333333 </v>
   <v>       0.08333333      -0.13333333       0.13333333 </v>
   <v>       0.12500000      -0.13333333       0.13333333 </v>
   <v>       0.16666667      -0.13333333       0.13333333 </v>
   <v>       0.20833333      -0.13333333       0.13333333 </v>
   <v>       0.25000000      -0.13333333       0.13333333 </v>
   <v>       0.29166667      -0.13333333       0.13333333 </v>
   <v>       0.33333333      -0.13333333       0.13333333 </v>
   <v>       0.37500000      -0.13333333       0.13333333 </v>
   <v>       0.41666667      -0.13333333       0.13333333 </v>
   <v>       0.45833333      -0.13333333       0.13333333 </v>
   <v>       0.50000000      -0.13333333       0.13333333 </v>
   <v>       0.00000000       0.20000000       0.20000000 </v>
   <v>       0.04166667       0.20000000       0.20000000 </v>
   <v>       0.08333333       0.20000000       0.20000000 </v>
   <v>       0.12500000       0.20000000       0.20000000 </v>
   <v>       0.16666667       0.20000000       0.20000000 </v>
   <v>       0.20833333       0.20000000       0.20000000 </v>
   <v>       0.25000000       0.20000000       0.20000000 </v>
   <v>       0.29166667       0.20000000       0.20000000 </v>
   <v>       0.33333333       0.20000000       0.20000000 </v>
   <v>       0.37500000       0.20000000       0.20000000 </v>
   <v>       0.41666667       0.20000000       0.20000000 </v>
   <v>       0.45833333       0.20000000       0.20000000 </v>
   <v>       0.50000000       0.20000000       0.20000000 </v>
   <v>       0.00000000       0.26666667       0.20000000 </v>
   <v>       0.04166667       0.26666667       0.20000000 </v>
   <v>       0.08333333       0.26666667       0.20000000 </v>
   <v>       0.12500000       0.26666667       0.20000000 </v>
   <v>       0.16666667       0.26666667       0.20000000 </v>
   <v>       0.20833333       0.26666667       0.20000000 </v>
   <v>       0.25000000       0.26666667       0.20000000 </v>
   <v>       0.29166667       0.26666667       0.20000000 </v>
   <v>       0.33333333       0.26666667       0.20000000 </v>
   <v>       0.37500000       0.26666667       0.20000000 </v>
   <v>       0.41666667       0.26666667       0.20000000 </v>
   <v>       0.45833333       0.26666667       0.20000000 </v>
   <v>       0.50000000       0.26666667       0.20000000 </v>
   <v>       0.00000000       0.33333333       0.20000000 </v>
   <v>       0.04166667       0.33333333       0.20000000 </v>
   <v>       0.08333333       0.33333333       0.20000000 </v>
   <v>       0.12500000       0.33333333       0.20000000 </v>
   <v>       0.16666667       0.33333333       0.20000000 </v>
   <v>       0.20833333       0.33333333       0.20000000 </v>
   <v>       0.25000000       0.33333333       0.20000000 </v>
   <v>       0.29166667       0.33333333       0.20000000 </v>
   <v>       0.33333333       0.33333333       0.20000000 </v>
   <v>       0.37500000       0.33333333       0.20000000 </v>
   <v>       0.41666667       0.33333333       0.20000000 </v>
   <v>       0.45833333       0.33333333       0.20000000 </v>
   <v>       0.50000000       0.33333333       0.20000000 </v>
   <v>       0.00000000       0.40000000       0.20000000 </v>
   <v>       0.04166667       0.40000000       0.20000000 </v>
   <v>       0.08333333       0.40000000       0.20000000 </v>
   <v>       0.12500000       0.40000000       0.20000000 </v>
   <v>       0.16666667       0.40000000       0.20000000 </v>
   <v>       0.20833333       0.40000000       0.20000000 </v>
   <v>       0.25000000       0.40000000       0.20000000 </v>
   <v>       0.29166667       0.40000000       0.20000000 </v>
   <v>       0.33333333       0.40000000       0.20000000 </v>
   <v>       0.37500000       0.40000000       0.20000000 </v>
   <v>       0.41666667       0.40000000       0.20000000 </v>
   <v>       0.45833333       0.40000000       0.20000000 </v>
   <v>       0.50000000       0.40000000       0.20000000 </v>
   <v>       0.00000000       0.46666667       0.20000000 </v>
   <v>       0.04166667       0.46666667       0.20000000 </v>
   <v>       0.08333333       0.46666667       0.20000000 </v>
   <v>       0.12500000       0.46666667       0.20000000 </v>
   <v>       0.16666667       0.46666667       0.20000000 </v>
   <v>       0.20833333       0.46666667       0.20000000 </v>
   <v>       0.25000000       0.46666667       0.20000000 </v>
   <v>       0.29166667       0.46666667       0.20000000 </v>
   <v>       0.33333333       0.46666667       0.20000000 </v>
   <v>       0.37500000       0.46666667       0.20000000 </v>
   <v>       0.41666667       0.46666667       0.20000000 </v>
   <v>       0.45833333       0.46666667       0.20000000 </v>
   <v>       0.50000000       0.46666667       0.20000000 </v>
   <v>       0.00000000      -0.46666667       0.20000000 </v>
   <v>       0.04166667      -0.46666667       0.20000000 </v>
   <v>       0.08333333      -0.46666667       0.20000000 </v>
   <v>       0.12500000      -0.46666667       0.20000000 </v>
   <v>       0.16666667      -0.46666667       0.20000000 </v>
   <v>       0.20833333      -0.46666667       0.20000000 </v>
   <v>       0.25000000      -0.46666667       0.20000000 </v>
   <v>       0.29166667      -0.46666667       0.20000000 </v>
   <v>       0.33333333      -0.46666667       0.20000000 </v>
   <v>       0.37500000      -0.46666667       0.20000000 </v>
   <v>       0.41666667      -0.46666667       0.20000000 </v>
   <v>       0.45833333      -0.46666667       0.20000000 </v>
   <v>       0.50000000      -0.46666667       0.20000000 </v>
   <v>       0.00000000      -0.40000000       0.20000000 </v>
   <v>       0.04166667      -0.40000000       0.20000000 </v>
   <v>       0.08333333      -0.40000000       0.20000000 </v>
   <v>       0.12500000      -0.40000000       0.20000000 </v>
   <v>       0.16666667      -0.40000000       0.20000000 </v>
   <v>       0.20833333      -0.40000000       0.20000000 </v>
   <v>       0.25000000      -0.40000000       0.20000000 </v>
   <v>       0.29166667      -0.40000000       0.20000000 </v>
   <v>       0.33333333      -0.40000000       0.20000000 </v>
   <v>       0.37500000      -0.40000000       0.20000000 </v>
   <v>       0.41666667      -0.40000000       0.20000000 </v>
   <v>       0.45833333      -0.40000000       0.20000000 </v>
   <v>       0.50000000      -0.40000000       0.20000000 </v>
   <v>       0.00000000      -0.33333333       0.20000000 </v>
   <v>       0.04166667      -0.33333333       0.20000000 </v>
   <v>       0.08333333      -0.33333333       0.20000000 </v>
   <v>       0.12500000      -0.33333333       0.20000000 </v>
   <v>       0.16666667      -0.33333333       0.20000000 </v>
   <v>       0.20833333      -0.33333333       0.20000000 </v>
   <v>       0.25000000      -0.33333333       0.20000000 </v>
   <v>       0.29166667      -0.33333333       0.20000000 </v>
   <v>       0.33333333      -0.33333333       0.20000000 </v>
   <v>       0.37500000      -0.33333333       0.20000000 </v>
   <v>       0.41666667      -0.33333333       0.20000000 </v>
   <v>       0.45833333      -0.33333333       0.20000000 </v>
   <v>       0.50000000      -0.33333333       0.20000000 </v>
   <v>       0.00000000      -0.26666667       0.20000000 </v>
   <v>       0.04166667      -0.26666667       0.20000000 </v>
   <v>       0.08333333      -0.26666667       0.20000000 </v>
   <v>       0.12500000      -0.26666667       0.20000000 </v>
   <v>       0.16666667      -0.26666667       0.20000000 </v>
   <v>       0.20833333      -0.26666667       0.20000000 </v>
   <v>       0.25000000      -0.26666667       0.20000000 </v>
   <v>       0.29166667      -0.26666667       0.20000000 </v>
   <v>       0.33333333      -0.26666667       0.20000000 </v>
   <v>       0.37500000      -0.26666667       0.20000000 </v>
   <v>       0.41666667      -0.26666667       0.20000000 </v>
   <v>       0.45833333      -0.26666667       0.20000000 </v>
   <v>       0.50000000      -0.26666667       0.20000000 </v>
   <v>       0.00000000      -0.20000000       0.20000000 </v>
   <v>       0.04166667      -0.20000000       0.20000000 </v>
   <v>       0.08333333      -0.20000000       0.20000000 </v>
   <v>       0.12500000      -0.20000000       0.20000000 </v>
   <v>       0.16666667      -0.20000000       0.20000000 </v>
   <v>       0.20833333      -0.20000000       0.20000000 </v>
   <v>       0.25000000      -0.20000000       0.20000000 </v>
   <v>       0.29166667      -0.20000000       0.20000000 </v>
   <v>       0.33333333      -0.20000000       0.20000000 </v>
   <v>       0.37500000      -0.20000000       0.20000000 </v>
   <v>       0.41666667      -0.20000000       0.20000000 </v>
   <v>       0.45833333      -0.20000000       0.20000000 </v>
   <v>       0.50000000      -0.20000000       0.20000000 </v>
   <v>       0.00000000       0.26666667       0.26666667 </v>
   <v>       0.04166667       0.26666667       0.26666667 </v>
   <v>       0.08333333       0.26666667       0.26666667 </v>
   <v>       0.12500000       0.26666667       0.26666667 </v>
   <v>       0.16666667       0.26666667       0.26666667 </v>
   <v>       0.20833333       0.26666667       0.26666667 </v>
   <v>       0.25000000       0.26666667       0.26666667 </v>
   <v>       0.29166667       0.26666667       0.26666667 </v>
   <v>       0.33333333       0.26666667       0.26666667 </v>
   <v>       0.37500000       0.26666667       0.26666667 </v>
   <v>       0.41666667       0.26666667       0.26666667 </v>
   <v>       0.45833333       0.26666667       0.26666667 </v>
   <v>       0.50000000       0.26666667       0.26666667 </v>
   <v>       0.00000000       0.33333333       0.26666667 </v>
   <v>       0.04166667       0.33333333       0.26666667 </v>
   <v>       0.08333333       0.33333333       0.26666667 </v>
   <v>       0.12500000       0.33333333       0.26666667 </v>
   <v>       0.16666667       0.33333333       0.26666667 </v>
   <v>       0.20833333       0.33333333       0.26666667 </v>
   <v>       0.25000000       0.33333333       0.26666667 </v>
   <v>       0.29166667       0.33333333       0.26666667 </v>
   <v>       0.33333333       0.33333333       0.26666667 </v>
   <v>       0.37500000       0.33333333       0.26666667 </v>
   <v>       0.41666667       0.33333333       0.26666667 </v>
   <v>       0.45833333       0.33333333       0.26666667 </v>
   <v>       0.50000000       0.33333333       0.26666667 </v>
   <v>       0.00000000       0.40000000       0.26666667 </v>
   <v>       0.04166667       0.40000000       0.26666667 </v>
   <v>       0.08333333       0.40000000       0.26666667 </v>
   <v>       0.12500000       0.40000000       0.26666667 </v>
   <v>       0.16666667       0.40000000       0.26666667 </v>
   <v>       0.20833333       0.40000000       0.26666667 </v>
   <v>       0.25000000       0.40000000       0.26666667 </v>
   <v>       0.29166667       0.40000000       0.26666667 </v>
   <v>       0.33333333       0.40000000       0.26666667 </v>
   <v>       0.37500000       0.40000000       0.26666667 </v>
   <v>       0.41666667       0.40000000       0.26666667 </v>
   <v>       0.45833333       0.40000000       0.26666667 </v>
   <v>       0.50000000       0.40000000       0.26666667 </v>
   <v>       0.00000000       0.46666667       0.26666667 </v>
   <v>       0.04166667       0.46666667       0.26666667 </v>
   <v>       0.08333333       0.46666667       0.26666667 </v>
   <v>       0.12500000       0.46666667       0.26666667 </v>
   <v>       0.16666667       0.46666667       0.26666667 </v>
   <v>       0.20833333       0.46666667       0.26666667 </v>
   <v>       0.25000000       0.46666667       0.26666667 </v>
   <v>       0.29166667       0.46666667       0.26666667 </v>
   <v>       0.33333333       0.46666667       0.26666667 </v>
   <v>       0.37500000       0.46666667       0.26666667 </v>
   <v>       0.41666667       0.46666667       0.26666667 </v>
   <v>       0.45833333       0.46666667       0.26666667 </v>
   <v>       0.50000000       0.46666667       0.26666667 </v>
   <v>       0.00000000      -0.46666667       0.26666667 </v>
   <v>       0.04166667      -0.46666667       0.26666667 </v>
   <v>       0.08333333      -0.46666667       0.26666667 </v>
   <v>       0.12500000      -0.46666667       0.26666667 </v>
   <v>       0.16666667      -0.46666667       0.26666667 </v>
   <v>       0.20833333      -0.46666667       0.26666667 </v>
   <v>       0.25000000      -0.46666667       0.26666667 </v>
   <v>       0.29166667      -0.46666667       0.26666667 </v>
   <v>       0.33333333      -0.46666667       0.26666667 </v>
   <v>       0.37500000      -0.46666667       0.26666667 </v>
   <v>       0.41666667      -0.46666667       0.26666667 </v>
   <v>       0.45833333      -0.46666667       0.26666667 </v>
   <v>       0.50000000      -0.46666667       0.26666667 </v>
   <v>       0.00000000      -0.40000000       0.26666667 </v>
   <v>       0.04166667      -0.40000000       0.26666667 </v>
   <v>       0.08333333      -0.40000000       0.26666667 </v>
   <v>       0.12500000      -0.40000000       0.26666667 </v>
   <v>       0.16666667      -0.40000000       0.26666667 </v>
   <v>       0.20833333      -0.40000000       0.26666667 </v>
   <v>       0.25000000      -0.40000000       0.26666667 </v>
   <v>       0.29166667      -0.40000000       0.26666667 </v>
   <v>       0.33333333      -0.40000000       0.26666667 </v>
   <v>       0.37500000      -0.40000000       0.26666667 </v>
   <v>       0.41666667      -0.40000000       0.26666667 </v>
   <v>       0.45833333      -0.40000000       0.26666667 </v>
   <v>       0.50000000      -0.40000000       0.26666667 </v>
   <v>       0.00000000      -0.33333333       0.26666667 </v>
   <v>       0.04166667      -0.33333333       0.26666667 </v>
   <v>       0.08333333      -0.33333333       0.26666667 </v>
   <v>       0.12500000      -0.33333333       0.26666667 </v>
   <v>       0.16666667      -0.33333333       0.26666667 </v>
   <v>       0.20833333      -0.33333333       0.26666667 </v>
   <v>       0.25000000      -0.33333333       0.26666667 </v>
   <v>       0.29166667      -0.33333333       0.26666667 </v>
   <v>       0.33333333      -0.33333333       0.26666667 </v>
   <v>       0.37500000      -0.33333333       0.26666667 </v>
   <v>       0.41666667      -0.33333333       0.26666667 </v>
   <v>       0.45833333      -0.33333333       0.26666667 </v>
   <v>       0.50000000      -0.33333333       0.26666667 </v>
   <v>       0.00000000      -0.26666667       0.26666667 </v>
   <v>       0.04166667      -0.26666667       0.26666667 </v>
   <v>       0.08333333      -0.26666667       0.26666667 </v>
   <v>       0.12500000      -0.26666667       0.26666667 </v>
   <v>       0.16666667      -0.26666667       0.26666667 </v>
   <v>       0.20833333      -0.26666667       0.26666667 </v>
   <v>       0.25000000      -0.26666667       0.26666667 </v>
   <v>       0.29166667      -0.26666667       0.26666667 </v>
   <v>       0.33333333      -0.26666667       0.26666667 </v>
   <v>       0.37500000      -0.26666667       0.26666667 </v>
   <v>       0.41666667      -0.26666667       0.26666667 </v>
   <v>       0.45833333      -0.26666667       0.26666667 </v>
   <v>       0.50000000      -0.26666667       0.26666667 </v>
   <v>       0.00000000       0.33333333       0.33333333 </v>
   <v>       0.04166667       0.33333333       0.33333333 </v>
   <v>       0.08333333       0.33333333       0.33333333 </v>
   <v>       0.12500000       0.33333333       0.33333333 </v>
   <v>       0.16666667       0.33333333       0.33333333 </v>
   <v>       0.20833333       0.33333333       0.33333333 </v>
   <v>       0.25000000       0.33333333       0.33333333 </v>
   <v>       0.29166667       0.33333333       0.33333333 </v>
   <v>       0.33333333       0.33333333       0.33333333 </v>
   <v>       0.37500000       0.33333333       0.33333333 </v>
   <v>       0.41666667       0.33333333       0.33333333 </v>
   <v>       0.45833333       0.33333333       0.33333333 </v>
   <v>       0.50000000       0.33333333       0.33333333 </v>
   <v>       0.00000000       0.40000000       0.33333333 </v>
   <v>       0.04166667       0.40000000       0.33333333 </v>
   <v>       0.08333333       0.40000000       0.33333333 </v>
   <v>       0.12500000       0.40000000       0.33333333 </v>
   <v>       0.16666667       0.40000000       0.33333333 </v>
   <v>       0.20833333       0.40000000       0.33333333 </v>
   <v>       0.25000000       0.40000000       0.33333333 </v>
   <v>       0.29166667       0.40000000       0.33333333 </v>
   <v>       0.33333333       0.40000000       0.33333333 </v>
   <v>       0.37500000       0.40000000       0.33333333 </v>
   <v>       0.41666667       0.40000000       0.33333333 </v>
   <v>       0.45833333       0.40000000       0.33333333 </v>
   <v>       0.50000000       0.40000000       0.33333333 </v>
   <v>       0.00000000       0.46666667       0.33333333 </v>
   <v>       0.04166667       0.46666667       0.33333333 </v>
   <v>       0.08333333       0.46666667       0.33333333 </v>
   <v>       0.12500000       0.46666667       0.33333333 </v>
   <v>       0.16666667       0.46666667       0.33333333 </v>
   <v>       0.20833333       0.46666667       0.33333333 </v>
   <v>       0.25000000       0.46666667       0.33333333 </v>
   <v>       0.29166667       0.46666667       0.33333333 </v>
   <v>       0.33333333       0.46666667       0.33333333 </v>
   <v>       0.37500000       0.46666667       0.33333333 </v>
   <v>       0.41666667       0.46666667       0.33333333 </v>
   <v>       0.45833333       0.46666667       0.33333333 </v>
   <v>       0.50000000       0.46666667       0.33333333 </v>
   <v>       0.00000000      -0.46666667       0.33333333 </v>
   <v>       0.04166667      -0.46666667       0.33333333 </v>
   <v>       0.08333333      -0.46666667       0.33333333 </v>
   <v>       0.12500000      -0.46666667       0.33333333 </v>
   <v>       0.16666667      -0.46666667       0.33333333 </v>
   <v>       0.20833333      -0.46666667       0.33333333 </v>
   <v>       0.25000000      -0.46666667       0.33333333 </v>
   <v>       0.29166667      -0.46666667       0.33333333 </v>
   <v>       0.33333333      -0.46666667       0.33333333 </v>
   <v>       0.37500000      -0.46666667       0.33333333 </v>
   <v>       0.41666667      -0.46666667       0.33333333 </v>
   <v>       0.45833333      -0.46666667       0.33333333 </v>
   <v>       0.50000000      -0.46666667       0.33333333 </v>
   <v>       0.00000000      -0.40000000       0.33333333 </v>
   <v>       0.04166667      -0.40000000       0.33333333 </v>
   <v>       0.08333333      -0.40000000       0.33333333 </v>
   <v>       0.12500000      -0.40000000       0.33333333 </v>
   <v>       0.16666667      -0.40000000       0.33333333 </v>
   <v>       0.20833333      -0.40000000       0.33333333 </v>
   <v>       0.25000000      -0.40000000       0.33333333 </v>
   <v>       0.29166667      -0.40000000       0.33333333 </v>
   <v>       0.33333333      -0.40000000       0.33333333 </v>
   <v>       0.37500000      -0.40000000       0.33333333 </v>
   <v>       0.41666667      -0.40000000       0.33333333 </v>
   <v>       0.45833333      -0.40000000       0.33333333 </v>
   <v>       0.50000000      -0.40000000       0.33333333 </v>
   <v>       0.00000000      -0.33333333       0.33333333 </v>
   <v>       0.04166667      -0.33333333       0.33333333 </v>
   <v>       0.08333333      -0.33333333       0.33333333 </v>
   <v>       0.12500000      -0.33333333       0.33333333 </v>
   <v>       0.16666667      -0.33333333       0.33333333 </v>
   <v>       0.20833333      -0.33333333       0.33333333 </v>
   <v>       0.25000000      -0.33333333       0.33333333 </v>
   <v>       0.29166667      -0.33333333       0.33333333 </v>
   <v>       0.33333333      -0.33333333       0.33333333 </v>
   <v>       0.37500000      -0.33333333       0.33333333 </v>
   <v>       0.41666667      -0.33333333       0.33333333 </v>
   <v>       0.45833333      -0.33333333       0.33333333 </v>
   <v>       0.50000000      -0.33333333       0.33333333 </v>
   <v>       0.00000000       0.40000000       0.40000000 </v>
   <v>       0.04166667       0.40000000       0.40000000 </v>
   <v>       0.08333333       0.40000000       0.40000000 </v>
   <v>       0.12500000       0.40000000       0.40000000 </v>
   <v>       0.16666667       0.40000000       0.40000000 </v>
   <v>       0.20833333       0.40000000       0.40000000 </v>
   <v>       0.25000000       0.40000000       0.40000000 </v>
   <v>       0.29166667       0.40000000       0.40000000 </v>
   <v>       0.33333333       0.40000000       0.40000000 </v>
   <v>       0.37500000       0.40000000       0.40000000 </v>
   <v>       0.41666667       0.40000000       0.40000000 </v>
   <v>       0.45833333       0.40000000       0.40000000 </v>
   <v>       0.50000000       0.40000000       0.40000000 </v>
   <v>       0.00000000       0.46666667       0.40000000 </v>
   <v>       0.04166667       0.46666667       0.40000000 </v>
   <v>       0.08333333       0.46666667       0.40000000 </v>
   <v>       0.12500000       0.46666667       0.40000000 </v>
   <v>       0.16666667       0.46666667       0.40000000 </v>
   <v>       0.20833333       0.46666667       0.40000000 </v>
   <v>       0.25000000       0.46666667       0.40000000 </v>
   <v>       0.29166667       0.46666667       0.40000000 </v>
   <v>       0.33333333       0.46666667       0.40000000 </v>
   <v>       0.37500000       0.46666667       0.40000000 </v>
   <v>       0.41666667       0.46666667       0.40000000 </v>
   <v>       0.45833333       0.46666667       0.40000000 </v>
   <v>       0.50000000       0.46666667       0.40000000 </v>
   <v>       0.00000000      -0.46666667       0.40000000 </v>
   <v>       0.04166667      -0.46666667       0.40000000 </v>
   <v>       0.08333333      -0.46666667       0.40000000 </v>
   <v>       0.12500000      -0.46666667       0.40000000 </v>
   <v>       0.16666667      -0.46666667       0.40000000 </v>
   <v>       0.20833333      -0.46666667       0.40000000 </v>
   <v>       0.25000000      -0.46666667       0.40000000 </v>
   <v>       0.29166667      -0.46666667       0.40000000 </v>
   <v>       0.33333333      -0.46666667       0.40000000 </v>
   <v>       0.37500000      -0.46666667       0.40000000 </v>
   <v>       0.41666667      -0.46666667       0.40000000 </v>
   <v>       0.45833333      -0.46666667       0.40000000 </v>
   <v>       0.50000000      -0.46666667       0.40000000 </v>
   <v>       0.00000000      -0.40000000       0.40000000 </v>
   <v>       0.04166667      -0.40000000       0.40000000 </v>
   <v>       0.08333333      -0.40000000       0.40000000 </v>
   <v>       0.12500000      -0.40000000       0.40000000 </v>
   <v>       0.16666667      -0.40000000       0.40000000 </v>
   <v>       0.20833333      -0.40000000       0.40000000 </v>
   <v>       0.25000000      -0.40000000       0.40000000 </v>
   <v>       0.29166667      -0.40000000       0.40000000 </v>
   <v>       0.33333333      -0.40000000       0.40000000 </v>
   <v>       0.37500000      -0.40000000       0.40000000 </v>
   <v>       0.41666667      -0.40000000       0.40000000 </v>
   <v>       0.45833333      -0.40000000       0.40000000 </v>
   <v>       0.50000000      -0.40000000       0.40000000 </v>
   <v>       0.00000000       0.46666667       0.46666667 </v>
   <v>       0.04166667       0.46666667       0.46666667 </v>
   <v>       0.08333333       0.46666667       0.46666667 </v>
   <v>       0.12500000       0.46666667       0.46666667 </v>
   <v>       0.16666667       0.46666667       0.46666667 </v>
   <v>       0.20833333       0.46666667       0.46666667 </v>
   <v>       0.25000000       0.46666667       0.46666667 </v>
   <v>       0.29166667       0.46666667       0.46666667 </v>
   <v>       0.33333333       0.46666667       0.46666667 </v>
   <v>       0.37500000       0.46666667       0.46666667 </v>
   <v>       0.41666667       0.46666667       0.46666667 </v>
   <v>       0.45833333       0.46666667       0.46666667 </v>
   <v>       0.50000000       0.46666667       0.46666667 </v>
   <v>       0.00000000      -0.46666667       0.46666667 </v>
   <v>       0.04166667      -0.46666667       0.46666667 </v>
   <v>       0.08333333      -0.46666667       0.46666667 </v>
   <v>       0.12500000      -0.46666667       0.46666667 </v>
   <v>       0.16666667      -0.46666667       0.46666667 </v>
   <v>       0.20833333      -0.46666667       0.46666667 </v>
   <v>       0.25000000      -0.46666667       0.46666667 </v>
   <v>       0.29166667      -0.46666667       0.46666667 </v>
   <v>       0.33333333      -0.46666667       0.46666667 </v>
   <v>       0.37500000      -0.46666667       0.46666667 </v>
   <v>       0.41666667      -0.46666667       0.46666667 </v>
   <v>       0.45833333      -0.46666667       0.46666667 </v>
   <v>       0.50000000      -0.46666667       0.46666667 </v>
  </varray>
  <varray name="weights" >
   <v>       0.00018519 </v>
   <v>       0.00037037 </v>
   <v>       0.00037037 </v>
   <v>       0.00037037 </v>
   <v>       0.00037037 </v>
   <v>       0.00037037 </v>
   <v>       0.00037037 </v>
   <v>       0.00037037 </v>
   <v>       0.00037037 </v>
   <v>       0.00037037 </v>
   <v>       0.00037037 </v>
   <v>       0.00037037 </v>
   <v>       0.00018519 </v>
   <v>       0.00074074 </v>
   <v>       0.00148148 </v>
   <v>       0.00148148 </v>
   <v>       0.00148148 </v>
   <v>       0.00148148 </v>
   <v>       0.00148148 </v>
   <v>       0.00148148 </v>
   <v>       0.00148148 </v>
   <v>       0.00148148 </v>
   <v>       0.00148148 </v>
   <v>       0.00148148 </v>
   <v>       0.00148148 </v>
   <v>       0.00074074 </v>
   <v>       0.00074074 </v>
   <v>       0.00148148 </v>
   <v>       0.00148148 </v>
   <v>       0.00148148 </v>
   <v>       0.00148148 </v>
   <v>       0.00148148 </v>
   <v>       0.00148148 </v>
   <v>       0.00148148 </v>
   <v>       0.00148148 </v>
   <v>       0.00148148 </v>
   <v>       0.00148148 </v>
   <v>       0.00148148 </v>
   <v>       0.00074074 </v>
   <v>       0.00074074 </v>
   <v>       0.00148148 </v>
   <v>       0.00148148 </v>
   <v>       0.00148148 </v>
   <v>       0.00148148 </v>
   <v>       0.00148148 </v>
   <v>       0.00148148 </v>
   <v>       0.00148148 </v>
   <v>       0.00148148 </v>
   <v>       0.00148148 </v>
   <v>       0.00148148 </v>
   <v>       0.00148148 </v>
   <v>       0.00074074 </v>
   <v>       0.00074074 </v>
   <v>       0.00148148 </v>
   <v>       0.00148148 </v>
   <v>       0.00148148 </v>
   <v>       0.00148148 </v>
   <v>       0.00148148 </v>
   <v>       0.00148148 </v>
   <v>       0.00148148 </v>
   <v>       0.00148148 </v>
   <v>       0.00148148 </v>
   <v>       0.00148148 </v>
   <v>       0.00148148 </v>
   <v>       0.00074074 </v>
   <v>       0.00074074 </v>
   <v>       0.00148148 </v>
   <v>       0.00148148 </v>
   <v>       0.00148148 </v>
   <v>       0.00148148 </v>
   <v>       0.00148148 </v>
   <v>       0.00148148 </v>
   <v>       0.00148148 </v>
   <v>       0.00148148 </v>
   <v>       0.00148148 </v>
   <v>       0.00148148 </v>
   <v>       0.00148148 </v>
   <v>       0.00074074 </v>
   <v>       0.00074074 </v>
   <v>       0.00148148 </v>
   <v>       0.00148148 </v>
   <v>       0.00148148 </v>
   <v>       0.00148148 </v>
   <v>       0.00148148 </v>
   <v>       0.00148148 </v>
   <v>       0.00148148 </v>
   <v>       0.00148148 </v>
   <v>       0.00148148 </v>
   <v>       0.00148148 </v>
   <v>       0.00148148 </v>
   <v>       0.00074074 </v>
   <v>       0.00074074 </v>
   <v>       0.00148148 </v>
   <v>       0.00148148 </v>
   <v>       0.00148148 </v>
   <v>       0.00148148 </v>
   <v>       0.00148148 </v>
   <v>       0.00148148 </v>
   <v>       0.00148148 </v>
   <v>       0.00148148 </v>
   <v>       0.00148148 </v>
   <v>       0.00148148 </v>
   <v>       0.00148148 </v>
   <v>       0.00074074 </v>
   <v>       0.00037037 </v>
   <v>       0.00074074 </v>
   <v>       0.00074074 </v>
   <v>       0.00074074 </v>
   <v>       0.00074074 </v>
   <v>       0.00074074 </v>
   <v>       0.00074074 </v>
   <v>       0.00074074 </v>
   <v>       0.00074074 </v>
   <v>       0.00074074 </v>
   <v>       0.00074074 </v>
   <v>       0.00074074 </v>
   <v>       0.00037037 </v>
   <v>       0.00074074 </v>
   <v>       0.00148148 </v>
   <v>       0.00148148 </v>
   <v>       0.00148148 </v>
   <v>       0.00148148 </v>
   <v>       0.00148148 </v>
   <v>       0.00148148 </v>
   <v>       0.00148148 </v>
   <v>       0.00148148 </v>
   <v>       0.00148148 </v>
   <v>       0.00148148 </v>
   <v>       0.00148148 </v>
   <v>       0.00074074 </v>
   <v>       0.00074074 </v>
   <v>       0.00148148 </v>
   <v>       0.00148148 </v>
   <v>       0.00148148 </v>
   <v>       0.00148148 </v>
   <v>       0.00148148 </v>
   <v>       0.00148148 </v>
   <v>       0.00148148 </v>
   <v>       0.00148148 </v>
   <v>       0.00148148 </v>
   <v>       0.00148148 </v>
   <v>       0.00148148 </v>
   <v>       0.00074074 </v>
   <v>       0.00074074 </v>
   <v>       0.00148148 </v>
   <v>       0.00148148 </v>
   <v>       0.00148148 </v>
   <v>       0.00148148 </v>
   <v>       0.00148148 </v>
   <v>       0.00148148 </v>
   <v>       0.00148148 </v>
   <v>       0.00148148 </v>
   <v>       0.00148148 </v>
   <v>       0.00148148 </v>
   <v>       0.00148148 </v>
   <v>       0.00074074 </v>
   <v>       0.00074074 </v>
   <v>       0.00148148 </v>
   <v>       0.00148148 </v>
   <v>       0.00148148 </v>
   <v>       0.00148148 </v>
   <v>       0.00148148 </v>
   <v>       0.00148148 </v>
   <v>       0.00148148 </v>
   <v>       0.00148148 </v>
   <v>       0.00148148 </v>
   <v>       0.00148148 </v>
   <v>       0.00148148 </v>
   <v>       0.00074074 </v>
   <v>       0.00074074 </v>
   <v>       0.00148148 </v>
   <v>       0.00148148 </v>
   <v>       0.00148148 </v>
   <v>       0.00148148 </v>
   <v>       0.00148148 </v>
   <v>       0.00148148 </v>
   <v>       0.00148148 </v>
   <v>       0.00148148 </v>
   <v>       0.00148148 </v>
   <v>       0.00148148 </v>
   <v>       0.00148148 </v>
   <v>       0.00074074 </v>
   <v>       0.00074074 </v>
   <v>       0.00148148 </v>
   <v>       0.00148148 </v>
   <v>       0.00148148 </v>
   <v>       0.00148148 </v>
   <v>       0.00148148 </v>
   <v>       0.00148148 </v>
   <v>       0.00148148 </v>
   <v>       0.00148148 </v>
   <v>       0.00148148 </v>
   <v>       0.00148148 </v>
   <v>       0.00148148 </v>
   <v>       0.00074074 </v>
   <v>       0.00074074 </v>
   <v>       0.00148148 </v>
   <v>       0.00148148 </v>
   <v>       0.00148148 </v>
   <v>       0.00148148 </v>
   <v>       0.00148148 </v>
   <v>       0.00148148 </v>
   <v>       0.00148148 </v>
   <v>       0.00148148 </v>
   <v>       0.00148148 </v>
   <v>       0.00148148 </v>
   <v>       0.00148148 </v>
   <v>       0.00074074 </v>
   <v>       0.00074074 </v>
   <v>       0.00148148 </v>
   <v>       0.00148148 </v>
   <v>       0.00148148 </v>
   <v>       0.00148148 </v>
   <v>       0.00148148 </v>
   <v>       0.00148148 </v>
   <v>       0.00148148 </v>
   <v>       0.00148148 </v>
   <v>       0.00148148 </v>
   <v>       0.00148148 </v>
   <v>       0.00148148 </v>
   <v>       0.00074074 </v>
   <v>       0.00074074 </v>
   <v>       0.00148148 </v>
   <v>       0.00148148 </v>
   <v>       0.00148148 </v>
   <v>       0.00148148 </v>
   <v>       0.00148148 </v>
   <v>       0.00148148 </v>
   <v>       0.00148148 </v>
   <v>       0.00148148 </v>
   <v>       0.00148148 </v>
   <v>       0.00148148 </v>
   <v>       0.00148148 </v>
   <v>       0.00074074 </v>
   <v>       0.00074074 </v>
   <v>       0.00148148 </v>
   <v>       0.00148148 </v>
   <v>       0.00148148 </v>
   <v>       0.00148148 </v>
   <v>       0.00148148 </v>
   <v>       0.00148148 </v>
   <v>       0.00148148 </v>
   <v>       0.00148148 </v>
   <v>       0.00148148 </v>
   <v>       0.00148148 </v>
   <v>       0.00148148 </v>
   <v>       0.00074074 </v>
   <v>       0.00074074 </v>
   <v>       0.00148148 </v>
   <v>       0.00148148 </v>
   <v>       0.00148148 </v>
   <v>       0.00148148 </v>
   <v>       0.00148148 </v>
   <v>       0.00148148 </v>
   <v>       0.00148148 </v>
   <v>       0.00148148 </v>
   <v>       0.00148148 </v>
   <v>       0.00148148 </v>
   <v>       0.00148148 </v>
   <v>       0.00074074 </v>
   <v>       0.00074074 </v>
   <v>       0.00148148 </v>
   <v>       0.00148148 </v>
   <v>       0.00148148 </v>
   <v>       0.00148148 </v>
   <v>       0.00148148 </v>
   <v>       0.00148148 </v>
   <v>       0.00148148 </v>
   <v>       0.00148148 </v>
   <v>       0.00148148 </v>
   <v>       0.00148148 </v>
   <v>       0.00148148 </v>
   <v>       0.00074074 </v>
   <v>       0.00037037 </v>
   <v>       0.00074074 </v>
   <v>       0.00074074 </v>
   <v>       0.00074074 </v>
   <v>       0.00074074 </v>
   <v>       0.00074074 </v>
   <v>       0.00074074 </v>
   <v>       0.00074074 </v>
   <v>       0.00074074 </v>
   <v>       0.00074074 </v>
   <v>       0.00074074 </v>
   <v>       0.00074074 </v>
   <v>       0.00037037 </v>
   <v>       0.00037037 </v>
   <v>       0.00074074 </v>
   <v>       0.00074074 </v>
   <v>       0.00074074 </v>
   <v>       0.00074074 </v>
   <v>       0.00074074 </v>
   <v>       0.00074074 </v>
   <v>       0.00074074 </v>
   <v>       0.00074074 </v>
   <v>       0.00074074 </v>
   <v>       0.00074074 </v>
   <v>       0.00074074 </v>
   <v>       0.00037037 </v>
   <v>       0.00074074 </v>
   <v>       0.00148148 </v>
   <v>       0.00148148 </v>
   <v>       0.00148148 </v>
   <v>       0.00148148 </v>
   <v>       0.00148148 </v>
   <v>       0.00148148 </v>
   <v>       0.00148148 </v>
   <v>       0.00148148 </v>
   <v>       0.00148148 </v>
   <v>       0.00148148 </v>
   <v>       0.00148148 </v>
   <v>       0.00074074 </v>
   <v>       0.00074074 </v>
   <v>       0.00148148 </v>
   <v>       0.00148148 </v>
   <v>       0.00148148 </v>
   <v>       0.00148148 </v>
   <v>       0.00148148 </v>
   <v>       0.00148148 </v>
   <v>       0.00148148 </v>
   <v>       0.00148148 </v>
   <v>       0.00148148 </v>
   <v>       0.00148148 </v>
   <v>       0.00148148 </v>
   <v>       0.00074074 </v>
   <v>       0.00074074 </v>
   <v>       0.00148148 </v>
   <v>       0.00148148 </v>
   <v>       0.00148148 </v>
   <v>       0.00148148 </v>
   <v>       0.00148148 </v>
   <v>       0.00148148 </v>
   <v>       0.00148148 </v>
   <v>       0.00148148 </v>
   <v>       0.00148148 </v>
   <v>       0.00148148 </v>
   <v>       0.00148148 </v>
   <v>       0.00074074 </v>
   <v>       0.00074074 </v>
   <v>       0.00148148 </v>
   <v>       0.00148148 </v>
   <v>       0.00148148 </v>
   <v>       0.00148148 </v>
   <v>       0.00148148 </v>
   <v>       0.00148148 </v>
   <v>       0.00148148 </v>
   <v>       0.00148148 </v>
   <v>       0.00148148 </v>
   <v>       0.00148148 </v>
   <v>       0.00148148 </v>
   <v>       0.00074074 </v>
   <v>       0.00074074 </v>
   <v>       0.00148148 </v>
   <v>       0.00148148 </v>
   <v>       0.00148148 </v>
   <v>       0.00148148 </v>
   <v>       0.00148148 </v>
   <v>       0.00148148 </v>
   <v>       0.00148148 </v>
   <v>       0.00148148 </v>
   <v>       0.00148148 </v>
   <v>       0.00148148 </v>
   <v>       0.00148148 </v>
   <v>       0.00074074 </v>
   <v>       0.00074074 </v>
   <v>       0.00148148 </v>
   <v>       0.00148148 </v>
   <v>       0.00148148 </v>
   <v>       0.00148148 </v>
   <v>       0.00148148 </v>
   <v>       0.00148148 </v>
   <v>       0.00148148 </v>
   <v>       0.00148148 </v>
   <v>       0.00148148 </v>
   <v>       0.00148148 </v>
   <v>       0.00148148 </v>
   <v>       0.00074074 </v>
   <v>       0.00074074 </v>
   <v>       0.00148148 </v>
   <v>       0.00148148 </v>
   <v>       0.00148148 </v>
   <v>       0.00148148 </v>
   <v>       0.00148148 </v>
   <v>       0.00148148 </v>
   <v>       0.00148148 </v>
   <v>       0.00148148 </v>
   <v>       0.00148148 </v>
   <v>       0.00148148 </v>
   <v>       0.00148148 </v>
   <v>       0.00074074 </v>
   <v>       0.00074074 </v>
   <v>       0.00148148 </v>
   <v>       0.00148148 </v>
   <v>       0.00148148 </v>
   <v>       0.00148148 </v>
   <v>       0.00148148 </v>
   <v>       0.00148148 </v>
   <v>       0.00148148 </v>
   <v>       0.00148148 </v>
   <v>       0.00148148 </v>
   <v>       0.00148148 </v>
   <v>       0.00148148 </v>
   <v>       0.00074074 </v>
   <v>       0.00074074 </v>
   <v>       0.00148148 </v>
   <v>       0.00148148 </v>
   <v>       0.00148148 </v>
   <v>       0.00148148 </v>
   <v>       0.00148148 </v>
   <v>       0.00148148 </v>
   <v>       0.00148148 </v>
   <v>       0.00148148 </v>
   <v>       0.00148148 </v>
   <v>       0.00148148 </v>
   <v>       0.00148148 </v>
   <v>       0.00074074 </v>
   <v>       0.00074074 </v>
   <v>       0.00148148 </v>
   <v>       0.00148148 </v>
   <v>       0.00148148 </v>
   <v>       0.00148148 </v>
   <v>       0.00148148 </v>
   <v>       0.00148148 </v>
   <v>       0.00148148 </v>
   <v>       0.00148148 </v>
   <v>       0.00148148 </v>
   <v>       0.00148148 </v>
   <v>       0.00148148 </v>
   <v>       0.00074074 </v>
   <v>       0.00037037 </v>
   <v>       0.00074074 </v>
   <v>       0.00074074 </v>
   <v>       0.00074074 </v>
   <v>       0.00074074 </v>
   <v>       0.00074074 </v>
   <v>       0.00074074 </v>
   <v>       0.00074074 </v>
   <v>       0.00074074 </v>
   <v>       0.00074074 </v>
   <v>       0.00074074 </v>
   <v>       0.00074074 </v>
   <v>       0.00037037 </v>
   <v>       0.00037037 </v>
   <v>       0.00074074 </v>
   <v>       0.00074074 </v>
   <v>       0.00074074 </v>
   <v>       0.00074074 </v>
   <v>       0.00074074 </v>
   <v>       0.00074074 </v>
   <v>       0.00074074 </v>
   <v>       0.00074074 </v>
   <v>       0.00074074 </v>
   <v>       0.00074074 </v>
   <v>       0.00074074 </v>
   <v>       0.00037037 </v>
   <v>       0.00074074 </v>
   <v>       0.00148148 </v>
   <v>       0.00148148 </v>
   <v>       0.00148148 </v>
   <v>       0.00148148 </v>
   <v>       0.00148148 </v>
   <v>       0.00148148 </v>
   <v>       0.00148148 </v>
   <v>       0.00148148 </v>
   <v>       0.00148148 </v>
   <v>       0.00148148 </v>
   <v>       0.00148148 </v>
   <v>       0.00074074 </v>
   <v>       0.00074074 </v>
   <v>       0.00148148 </v>
   <v>       0.00148148 </v>
   <v>       0.00148148 </v>
   <v>       0.00148148 </v>
   <v>       0.00148148 </v>
   <v>       0.00148148 </v>
   <v>       0.00148148 </v>
   <v>       0.00148148 </v>
   <v>       0.00148148 </v>
   <v>       0.00148148 </v>
   <v>       0.00148148 </v>
   <v>       0.00074074 </v>
   <v>       0.00074074 </v>
   <v>       0.00148148 </v>
   <v>       0.00148148 </v>
   <v>       0.00148148 </v>
   <v>       0.00148148 </v>
   <v>       0.00148148 </v>
   <v>       0.00148148 </v>
   <v>       0.00148148 </v>
   <v>       0.00148148 </v>
   <v>       0.00148148 </v>
   <v>       0.00148148 </v>
   <v>       0.00148148 </v>
   <v>       0.00074074 </v>
   <v>       0.00074074 </v>
   <v>       0.00148148 </v>
   <v>       0.00148148 </v>
   <v>       0.00148148 </v>
   <v>       0.00148148 </v>
   <v>       0.00148148 </v>
   <v>       0.00148148 </v>
   <v>       0.00148148 </v>
   <v>       0.00148148 </v>
   <v>       0.00148148 </v>
   <v>       0.00148148 </v>
   <v>       0.00148148 </v>
   <v>       0.00074074 </v>
   <v>       0.00074074 </v>
   <v>       0.00148148 </v>
   <v>       0.00148148 </v>
   <v>       0.00148148 </v>
   <v>       0.00148148 </v>
   <v>       0.00148148 </v>
   <v>       0.00148148 </v>
   <v>       0.00148148 </v>
   <v>       0.00148148 </v>
   <v>       0.00148148 </v>
   <v>       0.00148148 </v>
   <v>       0.00148148 </v>
   <v>       0.00074074 </v>
   <v>       0.00074074 </v>
   <v>       0.00148148 </v>
   <v>       0.00148148 </v>
   <v>       0.00148148 </v>
   <v>       0.00148148 </v>
   <v>       0.00148148 </v>
   <v>       0.00148148 </v>
   <v>       0.00148148 </v>
   <v>       0.00148148 </v>
   <v>       0.00148148 </v>
   <v>       0.00148148 </v>
   <v>       0.00148148 </v>
   <v>       0.00074074 </v>
   <v>       0.00074074 </v>
   <v>       0.00148148 </v>
   <v>       0.00148148 </v>
   <v>       0.00148148 </v>
   <v>       0.00148148 </v>
   <v>       0.00148148 </v>
   <v>       0.00148148 </v>
   <v>       0.00148148 </v>
   <v>       0.00148148 </v>
   <v>       0.00148148 </v>
   <v>       0.00148148 </v>
   <v>       0.00148148 </v>
   <v>       0.00074074 </v>
   <v>       0.00074074 </v>
   <v>       0.00148148 </v>
   <v>       0.00148148 </v>
   <v>       0.00148148 </v>
   <v>       0.00148148 </v>
   <v>       0.00148148 </v>
   <v>       0.00148148 </v>
   <v>       0.00148148 </v>
   <v>       0.00148148 </v>
   <v>       0.00148148 </v>
   <v>       0.00148148 </v>
   <v>       0.00148148 </v>
   <v>       0.00074074 </v>
   <v>       0.00037037 </v>
   <v>       0.00074074 </v>
   <v>       0.00074074 </v>
   <v>       0.00074074 </v>
   <v>       0.00074074 </v>
   <v>       0.00074074 </v>
   <v>       0.00074074 </v>
   <v>       0.00074074 </v>
   <v>       0.00074074 </v>
   <v>       0.00074074 </v>
   <v>       0.00074074 </v>
   <v>       0.00074074 </v>
   <v>       0.00037037 </v>
   <v>       0.00037037 </v>
   <v>       0.00074074 </v>
   <v>       0.00074074 </v>
   <v>       0.00074074 </v>
   <v>       0.00074074 </v>
   <v>       0.00074074 </v>
   <v>       0.00074074 </v>
   <v>       0.00074074 </v>
   <v>       0.00074074 </v>
   <v>       0.00074074 </v>
   <v>       0.00074074 </v>
   <v>       0.00074074 </v>
   <v>       0.00037037 </v>
   <v>       0.00074074 </v>
   <v>       0.00148148 </v>
   <v>       0.00148148 </v>
   <v>       0.00148148 </v>
   <v>       0.00148148 </v>
   <v>       0.00148148 </v>
   <v>       0.00148148 </v>
   <v>       0.00148148 </v>
   <v>       0.00148148 </v>
   <v>       0.00148148 </v>
   <v>       0.00148148 </v>
   <v>       0.00148148 </v>
   <v>       0.00074074 </v>
   <v>       0.00074074 </v>
   <v>       0.00148148 </v>
   <v>       0.00148148 </v>
   <v>       0.00148148 </v>
   <v>       0.00148148 </v>
   <v>       0.00148148 </v>
   <v>       0.00148148 </v>
   <v>       0.00148148 </v>
   <v>       0.00148148 </v>
   <v>       0.00148148 </v>
   <v>       0.00148148 </v>
   <v>       0.00148148 </v>
   <v>       0.00074074 </v>
   <v>       0.00074074 </v>
   <v>       0.00148148 </v>
   <v>       0.00148148 </v>
   <v>       0.00148148 </v>
   <v>       0.00148148 </v>
   <v>       0.00148148 </v>
   <v>       0.00148148 </v>
   <v>       0.00148148 </v>
   <v>       0.00148148 </v>
   <v>       0.00148148 </v>
   <v>       0.00148148 </v>
   <v>       0.00148148 </v>
   <v>       0.00074074 </v>
   <v>       0.00074074 </v>
   <v>       0.00148148 </v>
   <v>       0.00148148 </v>
   <v>       0.00148148 </v>
   <v>       0.00148148 </v>
   <v>       0.00148148 </v>
   <v>       0.00148148 </v>
   <v>       0.00148148 </v>
   <v>       0.00148148 </v>
   <v>       0.00148148 </v>
   <v>       0.00148148 </v>
   <v>       0.00148148 </v>
   <v>       0.00074074 </v>
   <v>       0.00074074 </v>
   <v>       0.00148148 </v>
   <v>       0.00148148 </v>
   <v>       0.00148148 </v>
   <v>       0.00148148 </v>
   <v>       0.00148148 </v>
   <v>       0.00148148 </v>
   <v>       0.00148148 </v>
   <v>       0.00148148 </v>
   <v>       0.00148148 </v>
   <v>       0.00148148 </v>
   <v>       0.00148148 </v>
   <v>       0.00074074 </v>
   <v>       0.00074074 </v>
   <v>       0.00148148 </v>
   <v>       0.00148148 </v>
   <v>       0.00148148 </v>
   <v>       0.00148148 </v>
   <v>       0.00148148 </v>
   <v>       0.00148148 </v>
   <v>       0.00148148 </v>
   <v>       0.00148148 </v>
   <v>       0.00148148 </v>
   <v>       0.00148148 </v>
   <v>       0.00148148 </v>
   <v>       0.00074074 </v>
   <v>       0.00037037 </v>
   <v>       0.00074074 </v>
   <v>       0.00074074 </v>
   <v>       0.00074074 </v>
   <v>       0.00074074 </v>
   <v>       0.00074074 </v>
   <v>       0.00074074 </v>
   <v>       0.00074074 </v>
   <v>       0.00074074 </v>
   <v>       0.00074074 </v>
   <v>       0.00074074 </v>
   <v>       0.00074074 </v>
   <v>       0.00037037 </v>
   <v>       0.00037037 </v>
   <v>       0.00074074 </v>
   <v>       0.00074074 </v>
   <v>       0.00074074 </v>
   <v>       0.00074074 </v>
   <v>       0.00074074 </v>
   <v>       0.00074074 </v>
   <v>       0.00074074 </v>
   <v>       0.00074074 </v>
   <v>       0.00074074 </v>
   <v>       0.00074074 </v>
   <v>       0.00074074 </v>
   <v>       0.00037037 </v>
   <v>       0.00074074 </v>
   <v>       0.00148148 </v>
   <v>       0.00148148 </v>
   <v>       0.00148148 </v>
   <v>       0.00148148 </v>
   <v>       0.00148148 </v>
   <v>       0.00148148 </v>
   <v>       0.00148148 </v>
   <v>       0.00148148 </v>
   <v>       0.00148148 </v>
   <v>       0.00148148 </v>
   <v>       0.00148148 </v>
   <v>       0.00074074 </v>
   <v>       0.00074074 </v>
   <v>       0.00148148 </v>
   <v>       0.00148148 </v>
   <v>       0.00148148 </v>
   <v>       0.00148148 </v>
   <v>       0.00148148 </v>
   <v>       0.00148148 </v>
   <v>       0.00148148 </v>
   <v>       0.00148148 </v>
   <v>       0.00148148 </v>
   <v>       0.00148148 </v>
   <v>       0.00148148 </v>
   <v>       0.00074074 </v>
   <v>       0.00074074 </v>
   <v>       0.00148148 </v>
   <v>       0.00148148 </v>
   <v>       0.00148148 </v>
   <v>       0.00148148 </v>
   <v>       0.00148148 </v>
   <v>       0.00148148 </v>
   <v>       0.00148148 </v>
   <v>       0.00148148 </v>
   <v>       0.00148148 </v>
   <v>       0.00148148 </v>
   <v>       0.00148148 </v>
   <v>       0.00074074 </v>
   <v>       0.00074074 </v>
   <v>       0.00148148 </v>
   <v>       0.00148148 </v>
   <v>       0.00148148 </v>
   <v>       0.00148148 </v>
   <v>       0.00148148 </v>
   <v>       0.00148148 </v>
   <v>       0.00148148 </v>
   <v>       0.00148148 </v>
   <v>       0.00148148 </v>
   <v>       0.00148148 </v>
   <v>       0.00148148 </v>
   <v>       0.00074074 </v>
   <v>       0.00037037 </v>
   <v>       0.00074074 </v>
   <v>       0.00074074 </v>
   <v>       0.00074074 </v>
   <v>       0.00074074 </v>
   <v>       0.00074074 </v>
   <v>       0.00074074 </v>
   <v>       0.00074074 </v>
   <v>       0.00074074 </v>
   <v>       0.00074074 </v>
   <v>       0.00074074 </v>
   <v>       0.00074074 </v>
   <v>       0.00037037 </v>
   <v>       0.00037037 </v>
   <v>       0.00074074 </v>
   <v>       0.00074074 </v>
   <v>       0.00074074 </v>
   <v>       0.00074074 </v>
   <v>       0.00074074 </v>
   <v>       0.00074074 </v>
   <v>       0.00074074 </v>
   <v>       0.00074074 </v>
   <v>       0.00074074 </v>
   <v>       0.00074074 </v>
   <v>       0.00074074 </v>
   <v>       0.00037037 </v>
   <v>       0.00074074 </v>
   <v>       0.00148148 </v>
   <v>       0.00148148 </v>
   <v>       0.00148148 </v>
   <v>       0.00148148 </v>
   <v>       0.00148148 </v>
   <v>       0.00148148 </v>
   <v>       0.00148148 </v>
   <v>       0.00148148 </v>
   <v>       0.00148148 </v>
   <v>       0.00148148 </v>
   <v>       0.00148148 </v>
   <v>       0.00074074 </v>
   <v>       0.00074074 </v>
   <v>       0.00148148 </v>
   <v>       0.00148148 </v>
   <v>       0.00148148 </v>
   <v>       0.00148148 </v>
   <v>       0.00148148 </v>
   <v>       0.00148148 </v>
   <v>       0.00148148 </v>
   <v>       0.00148148 </v>
   <v>       0.00148148 </v>
   <v>       0.00148148 </v>
   <v>       0.00148148 </v>
   <v>       0.00074074 </v>
   <v>       0.00037037 </v>
   <v>       0.00074074 </v>
   <v>       0.00074074 </v>
   <v>       0.00074074 </v>
   <v>       0.00074074 </v>
   <v>       0.00074074 </v>
   <v>       0.00074074 </v>
   <v>       0.00074074 </v>
   <v>       0.00074074 </v>
   <v>       0.00074074 </v>
   <v>       0.00074074 </v>
   <v>       0.00074074 </v>
   <v>       0.00037037 </v>
   <v>       0.00037037 </v>
   <v>       0.00074074 </v>
   <v>       0.00074074 </v>
   <v>       0.00074074 </v>
   <v>       0.00074074 </v>
   <v>       0.00074074 </v>
   <v>       0.00074074 </v>
   <v>       0.00074074 </v>
   <v>       0.00074074 </v>
   <v>       0.00074074 </v>
   <v>       0.00074074 </v>
   <v>       0.00074074 </v>
   <v>       0.00037037 </v>
   <v>       0.00037037 </v>
   <v>       0.00074074 </v>
   <v>       0.00074074 </v>
   <v>       0.00074074 </v>
   <v>       0.00074074 </v>
   <v>       0.00074074 </v>
   <v>       0.00074074 </v>
   <v>       0.00074074 </v>
   <v>       0.00074074 </v>
   <v>       0.00074074 </v>
   <v>       0.00074074 </v>
   <v>       0.00074074 </v>
   <v>       0.00037037 </v>
  </varray>
 </kpoints>
 <parameters>
  <separator name="general" >
   <i type="string" name="SYSTEM">unknown system</i>
   <i type="logical" name="LCOMPAT"> F  </i>
  </separator>
  <separator name="electronic" >
   <i type="string" name="PREC">accura</i>
   <i name="ENMAX">    500.00000000</i>
   <i name="ENAUG">    412.49600000</i>
   <i name="EDIFF">      0.00000100</i>
   <i type="int" name="IALGO">    68</i>
   <i type="int" name="IWAVPR">    11</i>
   <i type="int" name="NBANDS">    28</i>
   <i name="NELECT">     44.00000000</i>
   <i type="int" name="TURBO">     0</i>
   <i type="int" name="IRESTART">     0</i>
   <i type="int" name="NREBOOT">     0</i>
   <i type="int" name="NMIN">     0</i>
   <i name="EREF">      0.00000000</i>
   <separator name="electronic smearing" >
    <i type="int" name="ISMEAR">     1</i>
    <i name="SIGMA">      0.30000000</i>
    <i name="KSPACING">      0.50000000</i>
    <i type="logical" name="KGAMMA"> T  </i>
   </separator>
   <separator name="electronic projectors" >
    <i type="logical" name="LREAL"> F  </i>
    <v name="ROPT">      0.00000000      0.00000000</v>
    <i type="int" name="LMAXPAW">  -100</i>
    <i type="int" name="LMAXMIX">     2</i>
    <i type="logical" name="NLSPLINE"> F  </i>
   </separator>
   <separator name="electronic startup" >
    <i type="int" name="ISTART">     0</i>
    <i type="int" name="ICHARG">     2</i>
    <i type="int" name="INIWAV">     1</i>
   </separator>
   <separator name="electronic spin" >
    <i type="int" name="ISPIN">     1</i>
    <i type="logical" name="LNONCOLLINEAR"> F  </i>
[...]
       <r>    4.7856    1.0000 </r>
       <r>    4.8617    1.0000 </r>
       <r>    5.0321    1.0000 </r>
       <r>    5.1343    1.0000 </r>
       <r>    5.3543    1.0000 </r>
       <r>    5.3759    1.0000 </r>
       <r>    5.3893    1.0000 </r>
       <r>    5.5270    1.0000 </r>
       <r>    5.6602    1.0000 </r>
       <r>    6.3713    1.0000 </r>
       <r>    7.2327    1.0002 </r>
       <r>    8.9707   -0.0001 </r>
       <r>    9.1055    0.0000 </r>
       <r>   12.4566    0.0000 </r>
       <r>   13.4150    0.0000 </r>
       <r>   15.2452    0.0000 </r>
       <r>   16.0397    0.0000 </r>
      </set>
      <set comment="kpoint 830">
       <r>    1.6609    1.0000 </r>
       <r>    1.8723    1.0000 </r>
       <r>    1.8867    1.0000 </r>
       <r>    1.9238    1.0000 </r>
       <r>    2.0203    1.0000 </r>
       <r>    2.0315    1.0000 </r>
       <r>    3.3919    1.0000 </r>
       <r>    3.4508    1.0000 </r>
       <r>    3.4654    1.0000 </r>
       <r>    3.4980    1.0000 </r>
       <r>    4.8840    1.0000 </r>
       <r>    4.9852    1.0000 </r>
       <r>    5.0237    1.0000 </r>
       <r>    5.1137    1.0000 </r>
       <r>    5.1752    1.0000 </r>
       <r>    5.3938    1.0000 </r>
       <r>    5.4688    1.0000 </r>
       <r>    5.5297    1.0000 </r>
       <r>    5.7198    1.0000 </r>
       <r>    5.7944    1.0000 </r>
       <r>    6.8077    1.0000 </r>
       <r>    7.5442    1.0147 </r>
       <r>    9.2500    0.0000 </r>
       <r>    9.3642    0.0000 </r>
       <r>   11.5962    0.0000 </r>
       <r>   12.6296    0.0000 </r>
       <r>   14.5886    0.0000 </r>
       <r>   15.4490    0.0000 </r>
      </set>
      <set comment="kpoint 831">
       <r>    1.6296    1.0000 </r>
       <r>    1.8194    1.0000 </r>
       <r>    1.8438    1.0000 </r>
       <r>    1.8796    1.0000 </r>
       <r>    1.9780    1.0000 </r>
       <r>    1.9897    1.0000 </r>
       <r>    3.4022    1.0000 </r>
       <r>    3.4360    1.0000 </r>
       <r>    3.4485    1.0000 </r>
       <r>    3.4587    1.0000 </r>
       <r>    5.0296    1.0000 </r>
       <r>    5.0692    1.0000 </r>
       <r>    5.0892    1.0000 </r>
       <r>    5.1566    1.0000 </r>
       <r>    5.2649    1.0000 </r>
       <r>    5.4069    1.0000 </r>
       <r>    5.5499    1.0000 </r>
       <r>    5.5753    1.0000 </r>
       <r>    5.7567    1.0000 </r>
       <r>    5.9850    1.0000 </r>
       <r>    7.2975    1.0007 </r>
       <r>    7.7400    1.0342 </r>
       <r>    9.5006    0.0000 </r>
       <r>    9.5548    0.0000 </r>
       <r>   10.9309    0.0000 </r>
       <r>   12.0649    0.0000 </r>
       <r>   14.1229    0.0000 </r>
       <r>   15.0439    0.0000 </r>
      </set>
      <set comment="kpoint 832">
       <r>    1.6189    1.0000 </r>
       <r>    1.8016    1.0000 </r>
       <r>    1.8291    1.0000 </r>
       <r>    1.8648    1.0000 </r>
       <r>    1.9638    1.0000 </r>
       <r>    1.9757    1.0000 </r>
       <r>    3.4066    1.0000 </r>
       <r>    3.4265    1.0000 </r>
       <r>    3.4449    1.0000 </r>
       <r>    3.4473    1.0000 </r>
       <r>    5.0798    1.0000 </r>
       <r>    5.0806    1.0000 </r>
       <r>    5.1192    1.0000 </r>
       <r>    5.1635    1.0000 </r>
       <r>    5.3060    1.0000 </r>
       <r>    5.4130    1.0000 </r>
       <r>    5.5842    1.0000 </r>
       <r>    5.5855    1.0000 </r>
       <r>    5.7692    1.0000 </r>
       <r>    6.0467    1.0000 </r>
       <r>    7.6382    1.0285 </r>
       <r>    7.6923    1.0347 </r>
       <r>    9.6244    0.0000 </r>
       <r>    9.6266    0.0000 </r>
       <r>   10.6491    0.0000 </r>
       <r>   11.8510    0.0000 </r>
       <r>   13.9514    0.0000 </r>
       <r>   14.8985    0.0000 </r>
      </set>
     </set>
    </set>
   </array>
  </eigenvalues>
  <separator name="orbital magnetization" >
   <v name="MAGDIPOLOUT">      0.00000000      0.00000000      0.00000000</v>
  </separator>
  <dos>
   <i name="efermi">      8.08209444 </i>
   <total>
    <array>
     <dimension dim="1">gridpoints</dimension>
     <dimension dim="2">spin</dimension>
     <field>energy</field>
     <field>total</field>
     <field>integrated</field>
     <set>
      <set comment="spin 1">
       <r>    -2.9929     0.0000     0.0000 </r>
       <r>    -2.9057     0.0000     0.0000 </r>
       <r>    -2.8186     0.0000     0.0000 </r>
       <r>    -2.7314     0.0000     0.0000 </r>
       <r>    -2.6443     0.0000     0.0000 </r>
       <r>    -2.5572     0.0000     0.0000 </r>
       <r>    -2.4700     0.0000     0.0000 </r>
       <r>    -2.3829     0.0000     0.0000 </r>
       <r>    -2.2957     0.0000     0.0000 </r>
       <r>    -2.2086     0.0000     0.0000 </r>
       <r>    -2.1215     0.0000     0.0000 </r>
       <r>    -2.0343     0.0000     0.0000 </r>
       <r>    -1.9472     0.0000     0.0000 </r>
       <r>    -1.8600     0.0000     0.0000 </r>
       <r>    -1.7729     0.0000     0.0000 </r>
       <r>    -1.6857     0.0000     0.0000 </r>
       <r>    -1.5986     0.0000     0.0000 </r>
       <r>    -1.5115     0.0000     0.0000 </r>
       <r>    -1.4243     0.0000     0.0000 </r>
       <r>    -1.3372     0.0000     0.0000 </r>
       <r>    -1.2500     0.0000     0.0000 </r>
       <r>    -1.1629     0.0000     0.0000 </r>
       <r>    -1.0757     0.0000     0.0000 </r>
       <r>    -0.9886     0.0000     0.0000 </r>
       <r>    -0.9015     0.0000     0.0000 </r>
       <r>    -0.8143     0.0000     0.0000 </r>
       <r>    -0.7272    -0.0001     0.0000 </r>
       <r>    -0.6400    -0.0003     0.0000 </r>
       <r>    -0.5529    -0.0008    -0.0001 </r>
       <r>    -0.4657    -0.0020    -0.0003 </r>
       <r>    -0.3786    -0.0039    -0.0006 </r>
       <r>    -0.2915    -0.0059    -0.0011 </r>
       <r>    -0.2043    -0.0050    -0.0016 </r>
       <r>    -0.1172     0.0033    -0.0013 </r>
       <r>    -0.0300     0.0238     0.0008 </r>
       <r>     0.0571     0.0584     0.0059 </r>
       <r>     0.1442     0.1039     0.0149 </r>
       <r>     0.2314     0.1536     0.0283 </r>
       <r>     0.3185     0.2012     0.0459 </r>
       <r>     0.4057     0.2437     0.0671 </r>
       <r>     0.4928     0.2813     0.0916 </r>
       <r>     0.5800     0.3163     0.1192 </r>
       <r>     0.6671     0.3509     0.1498 </r>
       <r>     0.7542     0.3880     0.1836 </r>
       <r>     0.8414     0.4304     0.2211 </r>
       <r>     0.9285     0.4805     0.2630 </r>
       <r>     1.0157     0.5378     0.3098 </r>
       <r>     1.1028     0.5968     0.3618 </r>
       <r>     1.1900     0.6470     0.4182 </r>
       <r>     1.2771     0.6779     0.4773 </r>
       <r>     1.3642     0.6902     0.5374 </r>
       <r>     1.4514     0.7078     0.5991 </r>
       <r>     1.5385     0.7854     0.6676 </r>
       <r>     1.6257     1.0057     0.7552 </r>
       <r>     1.7128     1.4646     0.8828 </r>
       <r>     1.8000     2.2438     1.0784 </r>
       <r>     1.8871     3.3794     1.3728 </r>
       <r>     1.9742     4.8407     1.7947 </r>
       <r>     2.0614     6.5302     2.3637 </r>
       <r>     2.1485     8.2904     3.0862 </r>
       <r>     2.2357     9.9079     3.9496 </r>
       <r>     2.3228    11.1346     4.9199 </r>
       <r>     2.4099    11.7578     5.9445 </r>
       <r>     2.4971    11.6970     6.9638 </r>
       <r>     2.5842    11.0655     7.9281 </r>
       <r>     2.6714    10.1515     8.8127 </r>
       <r>     2.7585     9.3231     9.6251 </r>
       <r>     2.8457     8.8862    10.3995 </r>
       <r>     2.9328     8.9475    11.1792 </r>
       <r>     3.0199     9.3689    11.9956 </r>
       <r>     3.1071     9.8788    12.8565 </r>
       <r>     3.1942    10.2868    13.7529 </r>
       <r>     3.2814    10.6423    14.6803 </r>
       <r>     3.3685    11.1980    15.6561 </r>
       <r>     3.4557    12.1784    16.7174 </r>
       <r>     3.5428    13.5081    17.8945 </r>
       <r>     3.6299    14.7265    19.1778 </r>
       <r>     3.7171    15.2264    20.5046 </r>
       <r>     3.8042    14.6889    21.7847 </r>
       <r>     3.8914    13.3585    22.9488 </r>
       <r>     3.9785    11.8919    23.9851 </r>
       <r>     4.0657    10.9064    24.9355 </r>
       <r>     4.1528    10.6155    25.8605 </r>
       <r>     4.2399    10.8083    26.8024 </r>
       <r>     4.3271    11.0984    27.7695 </r>
       <r>     4.4142    11.1996    28.7455 </r>
       <r>     4.5014    11.0411    29.7076 </r>
       <r>     4.5885    10.7159    30.6414 </r>
       <r>     4.6756    10.3857    31.5465 </r>
       <r>     4.7628    10.2255    32.4376 </r>
       <r>     4.8499    10.3686    33.3411 </r>
       <r>     4.9371    10.8041    34.2826 </r>
       <r>     5.0242    11.3198    35.2690 </r>
       <r>     5.1114    11.6086    36.2806 </r>
       <r>     5.1985    11.4753    37.2806 </r>
       <r>     5.2856    10.9241    38.2326 </r>
       <r>     5.3728    10.0418    39.1076 </r>
       <r>     5.4599     8.8584    39.8796 </r>
       <r>     5.5471     7.3780    40.5225 </r>
       <r>     5.6342     5.7133    41.0204 </r>
       <r>     5.7214     4.1084    41.3784 </r>
       <r>     5.8085     2.8014    41.6225 </r>
       <r>     5.8956     1.8900    41.7872 </r>
       <r>     5.9828     1.3315    41.9032 </r>
       <r>     6.0699     1.0304    41.9930 </r>
       <r>     6.1571     0.9025    42.0717 </r>
       <r>     6.2442     0.8817    42.1485 </r>
       <r>     6.3314     0.9099    42.2278 </r>
       <r>     6.4185     0.9417    42.3099 </r>
       <r>     6.5056     0.9543    42.3930 </r>
       <r>     6.5928     0.9469    42.4755 </r>
       <r>     6.6799     0.9320    42.5568 </r>
       <r>     6.7671     0.9277    42.6376 </r>
       <r>     6.8542     0.9480    42.7202 </r>
       <r>     6.9413     0.9893    42.8064 </r>
       <r>     7.0285     1.0282    42.8960 </r>
       <r>     7.1156     1.0403    42.9867 </r>
       <r>     7.2028     1.0208    43.0756 </r>
       <r>     7.2899     0.9872    43.1617 </r>
       <r>     7.3771     0.9644    43.2457 </r>
       <r>     7.4642     0.9708    43.3303 </r>
       <r>     7.5513     1.0101    43.4183 </r>
       <r>     7.6385     1.0670    43.5113 </r>
       <r>     7.7256     1.1152    43.6085 </r>
       <r>     7.8128     1.1339    43.7073 </r>
       <r>     7.8999     1.1206    43.8049 </r>
       <r>     7.9871     1.0881    43.8998 </r>
       <r>     8.0742     1.0556    43.9918 </r>
       <r>     8.1613     1.0432    44.0827 </r>
       <r>     8.2485     1.0631    44.1753 </r>
       <r>     8.3356     1.1078    44.2718 </r>
       <r>     8.4228     1.1488    44.3719 </r>
       <r>     8.5099     1.1583    44.4729 </r>
       <r>     8.5970     1.1330    44.5716 </r>
       <r>     8.6842     1.0935    44.6669 </r>
       <r>     8.7713     1.0631    44.7595 </r>
       <r>     8.8585     1.0490    44.8510 </r>
       <r>     8.9456     1.0461    44.9421 </r>
       <r>     9.0328     1.0502    45.0336 </r>
       <r>     9.1199     1.0627    45.1262 </r>
       <r>     9.2070     1.0837    45.2207 </r>
       <r>     9.2942     1.1049    45.3170 </r>
       <r>     9.3813     1.1145    45.4141 </r>
       <r>     9.4685     1.1079    45.5106 </r>
       <r>     9.5556     1.0922    45.6058 </r>
       <r>     9.6428     1.0772    45.6997 </r>
       <r>     9.7299     1.0643    45.7924 </r>
       <r>     9.8170     1.0485    45.8838 </r>
       <r>     9.9042     1.0289    45.9735 </r>
       <r>     9.9913     1.0145    46.0619 </r>
       <r>    10.0785     1.0139    46.1502 </r>
       <r>    10.1656     1.0229    46.2394 </r>
       <r>    10.2528     1.0249    46.3287 </r>
       <r>    10.3399     1.0052    46.4163 </r>
       <r>    10.4270     0.9646    46.5003 </r>
       <r>    10.5142     0.9188    46.5804 </r>
       <r>    10.6013     0.8857    46.6576 </r>
       <r>    10.6885     0.8742    46.7337 </r>
       <r>    10.7756     0.8828    46.8107 </r>
       <r>    10.8627     0.9052    46.8895 </r>
       <r>    10.9499     0.9364    46.9711 </r>
       <r>    11.0370     0.9741    47.0560 </r>
       <r>    11.1242     1.0194    47.1449 </r>
       <r>    11.2113     1.0759    47.2386 </r>
       <r>    11.2985     1.1443    47.3383 </r>
       <r>    11.3856     1.2166    47.4444 </r>
       <r>    11.4727     1.2749    47.5554 </r>
       <r>    11.5599     1.2996    47.6687 </r>
       <r>    11.6470     1.2840    47.7806 </r>
       <r>    11.7342     1.2433    47.8889 </r>
       <r>    11.8213     1.2096    47.9943 </r>
       <r>    11.9085     1.2145    48.1002 </r>
       <r>    11.9956     1.2636    48.2103 </r>
       <r>    12.0827     1.3272    48.3259 </r>
       <r>    12.1699     1.3611    48.4445 </r>
       <r>    12.2570     1.3428    48.5616 </r>
       <r>    12.3442     1.2887    48.6739 </r>
       <r>    12.4313     1.2349    48.7815 </r>
       <r>    12.5185     1.2049    48.8865 </r>
       <r>    12.6056     1.1953    48.9906 </r>
       <r>    12.6927     1.1875    49.0941 </r>
       <r>    12.7799     1.1697    49.1960 </r>
       <r>    12.8670     1.1499    49.2962 </r>
       <r>    12.9542     1.1473    49.3962 </r>
       <r>    13.0413     1.1711    49.4983 </r>
       <r>    13.1284     1.2095    49.6037 </r>
       <r>    13.2156     1.2394    49.7117 </r>
       <r>    13.3027     1.2446    49.8201 </r>
       <r>    13.3899     1.2257    49.9269 </r>
       <r>    13.4770     1.1954    50.0311 </r>
       <r>    13.5642     1.1682    50.1329 </r>
       <r>    13.6513     1.1520    50.2333 </r>
       <r>    13.7384     1.1442    50.3330 </r>
       <r>    13.8256     1.1377    50.4321 </r>
       <r>    13.9127     1.1314    50.5307 </r>
       <r>    13.9999     1.1384    50.6299 </r>
       <r>    14.0870     1.1771    50.7325 </r>
       <r>    14.1742     1.2522    50.8416 </r>
       <r>    14.2613     1.3444    50.9588 </r>
       <r>    14.3484     1.4215    51.0827 </r>
       <r>    14.4356     1.4601    51.2099 </r>
       <r>    14.5227     1.4589    51.3370 </r>
       <r>    14.6099     1.4352    51.4621 </r>
       <r>    14.6970     1.4130    51.5852 </r>
       <r>    14.7842     1.4100    51.7081 </r>
       <r>    14.8713     1.4329    51.8330 </r>
       <r>    14.9584     1.4795    51.9619 </r>
       <r>    15.0456     1.5421    52.0963 </r>
       <r>    15.1327     1.6060    52.2362 </r>
       <r>    15.2199     1.6517    52.3802 </r>
       <r>    15.3070     1.6642    52.5252 </r>
       <r>    15.3941     1.6436    52.6684 </r>
       <r>    15.4813     1.6056    52.8083 </r>
       <r>    15.5684     1.5675    52.9449 </r>
       <r>    15.6556     1.5339    53.0786 </r>
       <r>    15.7427     1.4959    53.2089 </r>
       <r>    15.8299     1.4465    53.3350 </r>
       <r>    15.9170     1.3925    53.4563 </r>
       <r>    16.0041     1.3485    53.5739 </r>
       <r>    16.0913     1.3201    53.6889 </r>
       <r>    16.1784     1.2986    53.8021 </r>
       <r>    16.2656     1.2703    53.9128 </r>
       <r>    16.3527     1.2306    54.0200 </r>
       <r>    16.4399     1.1868    54.1234 </r>
       <r>    16.5270     1.1511    54.2237 </r>
       <r>    16.6141     1.1301    54.3222 </r>
       <r>    16.7013     1.1208    54.4199 </r>
       <r>    16.7884     1.1149    54.5170 </r>
       <r>    16.8756     1.1033    54.6132 </r>
       <r>    16.9627     1.0747    54.7068 </r>
       <r>    17.0499     1.0154    54.7953 </r>
       <r>    17.1370     0.9197    54.8755 </r>
       <r>    17.2241     0.8018    54.9453 </r>
       <r>    17.3113     0.6935    55.0058 </r>
       <r>    17.3984     0.6250    55.0602 </r>
       <r>    17.4856     0.6082    55.1132 </r>
       <r>    17.5727     0.6324    55.1683 </r>
       <r>    17.6598     0.6724    55.2269 </r>
       <r>    17.7470     0.7006    55.2880 </r>
       <r>    17.8341     0.6994    55.3489 </r>
       <r>    17.9213     0.6682    55.4072 </r>
       <r>    18.0084     0.6183    55.4610 </r>
       <r>    18.0956     0.5625    55.5100 </r>
       <r>    18.1827     0.5082    55.5543 </r>
       <r>    18.2698     0.4588    55.5943 </r>
       <r>    18.3570     0.4168    55.6306 </r>
       <r>    18.4441     0.3848    55.6642 </r>
       <r>    18.5313     0.3639    55.6959 </r>
       <r>    18.6184     0.3528    55.7266 </r>
       <r>    18.7056     0.3497    55.7571 </r>
       <r>    18.7927     0.3521    55.7878 </r>
       <r>    18.8798     0.3552    55.8187 </r>
       <r>    18.9670     0.3510    55.8493 </r>
       <r>    19.0541     0.3311    55.8782 </r>
       <r>    19.1413     0.2920    55.9036 </r>
       <r>    19.2284     0.2393    55.9245 </r>
       <r>    19.3156     0.1850    55.9406 </r>
       <r>    19.4027     0.1400    55.9528 </r>
       <r>    19.4898     0.1080    55.9622 </r>
       <r>    19.5770     0.0854    55.9697 </r>
       <r>    19.6641     0.0669    55.9755 </r>
       <r>    19.7513     0.0508    55.9799 </r>
       <r>    19.8384     0.0397    55.9834 </r>
       <r>    19.9255     0.0364    55.9865 </r>
       <r>    20.0127     0.0389    55.9899 </r>
       <r>    20.0998     0.0411    55.9935 </r>
       <r>    20.1870     0.0370    55.9967 </r>
       <r>    20.2741     0.0263    55.9990 </r>
       <r>    20.3613     0.0134    56.0002 </r>
       <r>    20.4484     0.0036    56.0005 </r>
       <r>    20.5355    -0.0011    56.0004 </r>
       <r>    20.6227    -0.0021    56.0002 </r>
       <r>    20.7098    -0.0015    56.0001 </r>
       <r>    20.7970    -0.0008    56.0000 </r>
       <r>    20.8841    -0.0003    56.0000 </r>
       <r>    20.9713    -0.0001    56.0000 </r>
       <r>    21.0584     0.0000    56.0000 </r>
       <r>    21.1455     0.0000    56.0000 </r>
       <r>    21.2327     0.0000    56.0000 </r>
       <r>    21.3198     0.0000    56.0000 </r>
       <r>    21.4070     0.0000    56.0000 </r>
       <r>    21.4941     0.0000    56.0000 </r>
       <r>    21.5813     0.0000    56.0000 </r>
       <r>    21.6684     0.0000    56.0000 </r>
       <r>    21.7555     0.0000    56.0000 </r>
       <r>    21.8427     0.0000    56.0000 </r>
       <r>    21.9298     0.0000    56.0000 </r>
       <r>    22.0170     0.0000    56.0000 </r>
       <r>    22.1041     0.0000    56.0000 </r>
       <r>    22.1912     0.0000    56.0000 </r>
       <r>    22.2784     0.0000    56.0000 </r>
       <r>    22.3655     0.0000    56.0000 </r>
       <r>    22.4527     0.0000    56.0000 </r>
       <r>    22.5398     0.0000    56.0000 </r>
       <r>    22.6270     0.0000    56.0000 </r>
       <r>    22.7141     0.0000    56.0000 </r>
       <r>    22.8012     0.0000    56.0000 </r>
       <r>    22.8884     0.0000    56.0000 </r>
       <r>    22.9755     0.0000    56.0000 </r>
       <r>    23.0627     0.0000    56.0000 </r>
       <r>    23.1498     0.0000    56.0000 </r>
      </set>
     </set>
    </array>
   </total>
  </dos>
 </calculation>
 <structure name="finalpos" >
  <crystal>
   <varray name="basis" >
    <v>       0.00000000      -2.07215166      -2.07215166 </v>
    <v>       4.14776539      -2.07271382       2.07271382 </v>
    <v>      -4.14776539      -2.07271382       2.07271382 </v>
   </varray>
   <i name="volume">     71.25823423 </i>
   <varray name="rec_basis" >
    <v>       0.00000000      -0.24129508      -0.24129508 </v>
    <v>       0.12054684      -0.12061482       0.12061482 </v>
    <v>      -0.12054684      -0.12061482       0.12061482 </v>
   </varray>
  </crystal>
  <varray name="positions" >
   <v>       0.50000000       0.50000000       0.00000000 </v>
   <v>       0.50000000       0.00000000       0.50000000 </v>
   <v>       0.00000000       0.50000000       0.50000000 </v>
   <v>       0.00000000       0.00000000       0.00000000 </v>
  </varray>
 </structure>
</modeling>
