<?xml version="1.0" encoding="ISO-8859-1"?>
<modeling>
 <generator>
  <i name="program" type="string">vasp </i>
  <i name="version" type="string">5.3.5  </i>
  <i name="subversion" type="string">31Mar14 (build Jun 20 2014 13:15:13) complex                          parallel </i>
  <i name="platform" type="string">LinuxIFC </i>
  <i name="date" type="string">2025 12 12 </i>
  <i name="time" type="string">11:47:15 </i>
 </generator>
 <incar>
  <i type="string" name="PREC">accurate</i>
  <i type="int" name="IALGO">    38</i>
  <i type="logical" name="ADDGRID"> T  </i>
  <i type="int" name="ISPIN">     2</i>
  <i type="int" name="NELM">   100</i>
  <i type="int" name="NELMIN">     4</i>
  <i name="EDIFF">      0.00000100</i>
  <i name="ENCUT">    500.00000000</i>
  <i type="logical" name="LREAL"> F  </i>
  <i type="int" name="ISMEAR">     0</i>
  <i name="SIGMA">      0.05000000</i>
  <i type="logical" name="LWAVE"> F  </i>
  <i type="logical" name="LCHARG"> F  </i>
  <i type="int" name="NELM">   100</i>
  <i type="logical" name="LDAU"> T  </i>
  <v name="LDAUU">      0.00000000      4.00000000      0.00000000</v>
  <v name="LDAUJ">      0.00000000      0.00000000      0.00000000</v>
 </incar>
 <kpoints>
  <generation param="Auto">
   <i name="subdivisionlength">     20.00000000 </i>
   <v type="int" name="divisions">       4        5        2 </v>
   <v name="usershift">      0.00000000       0.00000000       0.00000000 </v>
   <v name="genvec1">      0.25000000       0.00000000       0.00000000 </v>
   <v name="genvec2">      0.00000000       0.20000000       0.00000000 </v>
   <v name="genvec3">      0.00000000       0.00000000       0.50000000 </v>
   <v name="shift">      0.00000000       0.00000000       0.00000000 </v>
  </generation>
  <varray name="kpointlist" >
   <v>       0.00000000       0.00000000       0.00000000 </v>
   <v>       0.25000000       0.00000000       0.00000000 </v>
   <v>       0.50000000       0.00000000       0.00000000 </v>
   <v>       0.00000000       0.20000000       0.00000000 </v>
   <v>       0.25000000       0.20000000       0.00000000 </v>
   <v>       0.50000000       0.20000000       0.00000000 </v>
   <v>       0.00000000       0.40000000       0.00000000 </v>
   <v>       0.25000000       0.40000000       0.00000000 </v>
   <v>       0.50000000       0.40000000       0.00000000 </v>
   <v>       0.00000000       0.00000000       0.50000000 </v>
   <v>       0.25000000       0.00000000       0.50000000 </v>
   <v>       0.50000000       0.00000000       0.50000000 </v>
   <v>       0.00000000       0.20000000       0.50000000 </v>
   <v>       0.25000000       0.20000000       0.50000000 </v>
   <v>       0.50000000       0.20000000       0.50000000 </v>
   <v>       0.00000000       0.40000000       0.50000000 </v>
   <v>       0.25000000       0.40000000       0.50000000 </v>
   <v>       0.50000000       0.40000000       0.50000000 </v>
  </varray>
  <varray name="weights" >
   <v>       0.02500000 </v>
   <v>       0.05000000 </v>
   <v>       0.02500000 </v>
   <v>       0.05000000 </v>
   <v>       0.10000000 </v>
   <v>       0.05000000 </v>
   <v>       0.05000000 </v>
   <v>       0.10000000 </v>
   <v>       0.05000000 </v>
   <v>       0.02500000 </v>
   <v>       0.05000000 </v>
   <v>       0.02500000 </v>
   <v>       0.05000000 </v>
   <v>       0.10000000 </v>
   <v>       0.05000000 </v>
   <v>       0.05000000 </v>
   <v>       0.10000000 </v>
   <v>       0.05000000 </v>
  </varray>
 </kpoints>
 <parameters>
  <separator name="general" >
   <i type="string" name="SYSTEM">unknown system</i>
   <i type="logical" name="LCOMPAT"> F  </i>
  </separator>
  <separator name="electronic" >
   <i type="string" name="PREC">accura</i>
   <i name="ENMAX">    500.00000000</i>
   <i name="ENAUG">    586.98000000</i>
   <i name="EDIFF">      0.00000100</i>
   <i type="int" name="IALGO">    38</i>
   <i type="int" name="IWAVPR">    10</i>
   <i type="int" name="NBANDS">    92</i>
   <i name="NELECT">    138.00000000</i>
   <i type="int" name="TURBO">     0</i>
   <i type="int" name="IRESTART">     0</i>
   <i type="int" name="NREBOOT">     0</i>
   <i type="int" name="NMIN">     0</i>
   <i name="EREF">      0.00000000</i>
   <separator name="electronic smearing" >
    <i type="int" name="ISMEAR">     0</i>
    <i name="SIGMA">      0.05000000</i>
    <i name="KSPACING">      0.50000000</i>
    <i type="logical" name="KGAMMA"> T  </i>
   </separator>
   <separator name="electronic projectors" >
    <i type="logical" name="LREAL"> F  </i>
    <v name="ROPT">      0.00000000      0.00000000      0.00000000</v>
    <i type="int" name="LMAXPAW">  -100</i>
    <i type="int" name="LMAXMIX">     2</i>
    <i type="logical" name="NLSPLINE"> F  </i>
   </separator>
   <separator name="electronic startup" >
    <i type="int" name="ISTART">     0</i>
    <i type="int" name="ICHARG">     2</i>
    <i type="int" name="INIWAV">     1</i>
   </separator>
   <separator name="electronic spin" >
    <i type="int" name="ISPIN">     2</i>
    <i type="logical" name="LNONCOLLINEAR"> F  </i>
    <v name="MAGMOM">      1.00000000      1.00000000      1.00000000      1.00000000      1.00000000      1.00000000      1.00000000      1.00000000      1.00000000      1.00000000      1.00000000      1.00000000      1.00000000      1.00000000      1.00000000      1.00000000      1.00000000</v>
    <i name="NUPDOWN">     -1.00000000</i>
    <i type="logical" name="LSORBIT"> F  </i>
    <v name="SAXIS">      0.00000000      0.00000000      1.00000000</v>
    <i type="logical" name="LSPIRAL"> F  </i>
    <v name="QSPIRAL">      0.00000000      0.00000000      0.00000000</v>
    <i type="logical" name="LZEROZ"> F  </i>
   </separator>
   <separator name="electronic exchange-correlation" >
    <i type="logical" name="LASPH"> F  </i>
    <i type="logical" name="LMETAGGA"> F  </i>
   </separator>
   <separator name="electronic convergence" >
    <i type="int" name="NELM">   100</i>
    <i type="int" name="NELMDL">    -5</i>
    <i type="int" name="NELMIN">     4</i>
    <i name="ENINI">    500.00000000</i>
    <separator name="electronic convergence detail" >
     <i type="logical" name="LDIAG"> T  </i>
     <i type="logical" name="LSUBROT"> F  </i>
     <i name="WEIMIN">      0.00000000</i>
     <i name="EBREAK">      0.00000000</i>
     <i name="DEPER">      0.30000000</i>
     <i type="int" name="NRMM">     4</i>
     <i name="TIME">      0.40000000</i>
    </separator>
   </separator>
   <separator name="electronic mixer" >
    <i name="AMIX">      0.40000000</i>
    <i name="BMIX">      1.00000000</i>
    <i name="AMIN">      0.10000000</i>
    <i name="AMIX_MAG">      1.60000000</i>
    <i name="BMIX_MAG">      1.00000000</i>
    <separator name="electronic mixer details" >
     <i type="int" name="IMIX">     4</i>
     <i type="int" name="MAXMIX">   -45</i>
     <i name="WC">    100.00000000</i>
     <i type="int" name="INIMIX">     1</i>
     <i type="int" name="MIXPRE">     1</i>
     <i type="int" name="MREMOVE">     5</i>
    </separator>
   </separator>
   <separator name="electronic dipolcorrection" >
    <i type="logical" name="LDIPOL"> F  </i>
    <i type="logical" name="LMONO"> F  </i>
    <i type="int" name="IDIPOL">     0</i>
    <i name="EPSILON">      1.00000000</i>
    <v name="DIPOL">   -100.00000000   -100.00000000   -100.00000000</v>
    <i name="EFIELD">      0.00000000</i>
   </separator>
  </separator>
  <separator name="grids" >
   <i type="int" name="NGX">    42</i>
   <i type="int" name="NGY">    30</i>
   <i type="int" name="NGZ">    84</i>
   <i type="int" name="NGXF">    84</i>
   <i type="int" name="NGYF">    60</i>
   <i type="int" name="NGZF">   168</i>
   <i type="logical" name="ADDGRID"> T  </i>
  </separator>
  <separator name="ionic" >
   <i type="int" name="NSW">     0</i>
   <i type="int" name="IBRION">    -1</i>
   <i type="int" name="ISIF">     2</i>
   <i name="PSTRESS">      0.00000000</i>
   <i name="EDIFFG">      0.00001000</i>
   <i type="int" name="NFREE">     0</i>
   <i name="POTIM">      0.50000000</i>
   <i name="SMASS">     -3.00000000</i>
   <i name="SCALEE">      1.00000000</i>
  </separator>
  <separator name="ionic md" >
   <i name="TEBEG">      0.00010000</i>
   <i name="TEEND">      0.00010000</i>
   <i type="int" name="NBLOCK">     1</i>
   <i type="int" name="KBLOCK">     1</i>
   <i type="int" name="NPACO">   256</i>
   <i name="APACO">     16.00000000</i>
  </separator>
  <separator name="symmetry" >
   <i type="int" name="ISYM">     2</i>
   <i name="SYMPREC">      0.00001000</i>
  </separator>
  <separator name="dos" >
   <i type="logical" name="LORBIT"> F  </i>
   <v name="RWIGS">     -1.00000000     -1.00000000     -1.00000000</v>
   <i type="int" name="NEDOS">   301</i>
   <i name="EMIN">     10.00000000</i>
   <i name="EMAX">    -10.00000000</i>
   <i name="EFERMI">      0.00000000</i>
  </separator>
  <separator name="writing" >
   <i type="int" name="NWRITE">     2</i>
   <i type="logical" name="LWAVE"> F  </i>
   <i type="logical" name="LCHARG"> F  </i>
   <i type="logical" name="LPARD"> F  </i>
   <i type="logical" name="LVTOT"> F  </i>
   <i type="logical" name="LVHAR"> F  </i>
   <i type="logical" name="LELF"> F  </i>
   <i type="logical" name="LOPTICS"> F  </i>
   <v name="STM">      0.00000000      0.00000000      0.00000000      0.00000000      0.00000000      0.00000000      0.00000000</v>
  </separator>
  <separator name="performance" >
   <i type="int" name="NPAR">     4</i>
   <i type="int" name="NSIM">     4</i>
   <i type="int" name="NBLK">    -1</i>
   <i type="logical" name="LPLANE"> T  </i>
   <i type="logical" name="LSCALAPACK"> T  </i>
   <i type="logical" name="LSCAAWARE"> F  </i>
   <i type="logical" name="LSCALU"> F  </i>
   <i type="logical" name="LASYNC"> F  </i>
   <i type="logical" name="LORBITALREAL"> F  </i>
  </separator>
  <separator name="miscellaneous" >
   <i type="int" name="IDIOT">     3</i>
   <i type="logical" name="LMUSIC"> F  </i>
   <v name="POMASS">     87.62000000     63.54600000     16.00000000</v>
   <v name="DARWINR">      0.00000000      0.00000000      0.00000000</v>
   <v name="DARWINV">      1.00000000      1.00000000      1.00000000</v>
   <i type="logical" name="LCORR"> T  </i>
  </separator>
  <i type="logical" name="GGA_COMPAT"> T  </i>
  <i type="logical" name="LBERRY"> F  </i>
  <i type="int" name="ICORELEVEL">     0</i>
  <i type="logical" name="LDAU"> T  </i>
  <v type="int" name="LDAUTYPE">     2</v>
  <v type="int" name="LDAUL">     2</v>
  <v name="LDAUU">      0.00000000</v>
  <v name="LDAUJ">      0.00000000</v>
  <i type="int" name="LDAUPRINT">     0</i>
  <i type="int" name="I_CONSTRAINED_M">     0</i>
  <separator name="electronic exchange-correlation" >
   <i type="string" name="GGA">--</i>
   <i type="int" name="VOSKOWN">     0</i>
   <i type="logical" name="LHFCALC"> F  </i>
   <i type="string" name="PRECFOCK"></i>
   <i type="logical" name="LSYMGRAD"> F  </i>
   <i type="logical" name="LHFONE"> F  </i>
   <i type="logical" name="LRHFCALC"> F  </i>
   <i type="logical" name="LTHOMAS"> F  </i>
   <i type="logical" name="LMODELHF"> F  </i>
   <i name="ENCUT4O">     -1.00000000</i>
   <i type="int" name="EXXOEP">     0</i>
   <i type="int" name="FOURORBIT">     0</i>
   <i name="AEXX">      0.00000000</i>
   <i name="HFALPHA">      0.00000000</i>
   <i name="MCALPHA">      0.00000000</i>
   <i name="ALDAX">      1.00000000</i>
   <i name="AGGAX">      1.00000000</i>
   <i name="ALDAC">      1.00000000</i>
   <i name="AGGAC">      1.00000000</i>
   <i type="int" name="NKREDX">     1</i>
   <i type="int" name="NKREDY">     1</i>
   <i type="int" name="NKREDZ">     1</i>
   <i type="logical" name="SHIFTRED"> F  </i>
   <i type="logical" name="ODDONLY"> F  </i>
   <i type="logical" name="EVENONLY"> F  </i>
   <i type="int" name="LMAXFOCK">     0</i>
   <i type="int" name="NMAXFOCKAE">     0</i>
   <i type="logical" name="LFOCKAEDFT"> F  </i>
   <i name="HFSCREEN">      0.00000000</i>
   <i name="HFSCREENC">      0.00000000</i>
   <i type="int" name="NBANDSGWLOW">     0</i>
  </separator>
  <separator name="vdW DFT" >
   <i type="logical" name="LUSE_VDW"> F  </i>
   <i name="Zab_VDW">     -0.84910000</i>
   <i name="PARAM1">      0.12340000</i>
   <i name="PARAM2">      1.00000000</i>
   <i name="PARAM3">      0.00000000</i>
  </separator>
  <separator name="model GW" >
   <i type="int" name="MODEL_GW">     0</i>
   <i name="MODEL_EPS0">      9.03529412</i>
   <i name="MODEL_ALPHA">      1.00000000</i>
  </separator>
  <separator name="linear response parameters" >
   <i type="logical" name="LEPSILON"> F  </i>
   <i type="logical" name="LRPA"> F  </i>
   <i type="logical" name="LNABLA"> F  </i>
   <i type="logical" name="LVEL"> F  </i>
   <i type="int" name="KINTER">     0</i>
   <i name="CSHIFT">      0.10000000</i>
   <i name="OMEGAMAX">     -1.00000000</i>
   <i name="DEG_THRESHOLD">      0.00200000</i>
  </separator>
  <separator name="orbital magnetization" >
   <i type="logical" name="NUCIND"> F  </i>
   <v name="MAGPOS">      0.00000000      0.00000000      0.00000000</v>
   <i type="logical" name="LNICSALL"> T  </i>
   <i type="logical" name="ORBITALMAG"> F  </i>
   <i type="logical" name="LMAGBLOCH"> F  </i>
   <i type="logical" name="LCHIMAG"> F  </i>
   <i type="logical" name="LGAUGE"> T  </i>
   <i type="int" name="MAGATOM">     0</i>
   <v name="MAGDIPOL">      0.00000000      0.00000000      0.00000000</v>
   <v name="AVECCONST">      0.00000000      0.00000000      0.00000000</v>
  </separator>
  <separator name="response functions" >
   <i type="logical" name="LADDER"> F  </i>
   <i type="logical" name="LFXC"> F  </i>
   <i type="logical" name="LHARTREE"> T  </i>
   <i type="int" name="IBSE">     0</i>
   <i type="logical" name="LTCTE"> F  </i>
   <i type="logical" name="LTETE"> F  </i>
   <i type="logical" name="LTRIPLET"> F  </i>
   <i type="logical" name="LFXCEPS"> F  </i>
   <i type="logical" name="LFXHEG"> F  </i>
   <i type="logical" name="L2ORDER"> F  </i>
   <i type="logical" name="LUSEW"> F  </i>
   <i name="ENCUTGW">     -2.00000000</i>
   <i name="ENCUTGWSOFT">     -2.00000000</i>
   <i name="ENCUTLF">     -1.00000000</i>
   <i type="int" name="LMAXMP2">    -1</i>
   <i name="SCISSOR">      0.00000000</i>
   <i type="int" name="NOMEGA">     0</i>
   <i type="int" name="NOMEGAR">     0</i>
   <i type="int" name="NBANDSGW">    -1</i>
   <i type="int" name="NBANDSO">    -1</i>
   <i type="int" name="NBANDSV">    -1</i>
   <i type="int" name="NELM">   100</i>
   <i type="int" name="DIM">     3</i>
   <i type="int" name="ANTIRES">     0</i>
   <i name="OMEGAMAX">    -30.00000000</i>
   <i name="OMEGAMIN">    -30.00000000</i>
   <i name="OMEGATL">   -200.00000000</i>
   <i type="int" name="OMEGAGRID">     0</i>
   <i name="CSHIFT">     -0.10000000</i>
   <i type="logical" name="SELFENERGY"> F  </i>
   <i type="logical" name="LSPECTRAL"> F  </i>
   <i type="logical" name="ODDONLYGW"> F  </i>
   <i type="logical" name="EVENONLYGW"> F  </i>
   <i type="int" name="NKREDLFX">     1</i>
   <i type="int" name="NKREDLFY">     1</i>
   <i type="int" name="NKREDLFZ">     1</i>
   <i type="int" name="MAXMEM">  1800</i>
   <i type="int" name="TELESCOPE">     0</i>
   <i type="int" name="TAUPAR">     1</i>
  </separator>
  <separator name="External order field" >
   <i name="OFIELD_KAPPA">      0.00000000</i>
   <v name="OFIELD_K">      0.00000000      0.00000000      0.00000000</v>
   <i name="OFIELD_Q6_NEAR">      0.00000000</i>
   <i name="OFIELD_Q6_FAR">      0.00000000</i>
   <i name="OFIELD_A">      0.00000000</i>
  </separator>
 </parameters>
 <atominfo>
  <atoms>      17 </atoms>
  <types>       3 </types>
  <array name="atoms" >
   <dimension dim="1">ion</dimension>
   <field type="string">element</field>
   <field type="int">atomtype</field>
   <set>
    <rc><c>Sr</c><c>   1</c></rc>
    <rc><c>Sr</c><c>   1</c></rc>
    <rc><c>Sr</c><c>   1</c></rc>
    <rc><c>Sr</c><c>   1</c></rc>
    <rc><c>Cu</c><c>   2</c></rc>
    <rc><c>Cu</c><c>   2</c></rc>
    <rc><c>Cu</c><c>   2</c></rc>
    <rc><c>Cu</c><c>   2</c></rc>
    <rc><c>O </c><c>   3</c></rc>
    <rc><c>O </c><c>   3</c></rc>
    <rc><c>O </c><c>   3</c></rc>
    <rc><c>O </c><c>   3</c></rc>
    <rc><c>O </c><c>   3</c></rc>
    <rc><c>O </c><c>   3</c></rc>
    <rc><c>O </c><c>   3</c></rc>
    <rc><c>O </c><c>   3</c></rc>
    <rc><c>O </c><c>   3</c></rc>
   </set>
  </array>
  <array name="atomtypes" >
   <dimension dim="1">type</dimension>
   <field type="int">atomspertype</field>
   <field type="string">element</field>
   <field>mass</field>
   <field>valence</field>
   <field type="string">pseudopotential</field>
   <set>
    <rc><c>   4</c><c>Sr</c><c>     87.62000000</c><c>     10.00000000</c><c>  PAW_PBE Sr_sv 07Sep2000               </c></rc>
    <rc><c>   4</c><c>Cu</c><c>     63.54600000</c><c>     11.00000000</c><c>  PAW_PBE Cu 22Jun2005                  </c></rc>
    <rc><c>   9</c><c>O </c><c>     16.00000000</c><c>      6.00000000</c><c>  PAW_PBE O_s 07Sep2000                 </c></rc>
   </set>
  </array>
 </atominfo>
 <structure name="initialpos" >
  <crystal>
   <varray name="basis" >
    <v>       5.65685425       0.00000000       0.00000000 </v>
    <v>       0.00000000       4.00000000       0.00000000 </v>
    <v>       0.00000000       0.00000000      11.31370850 </v>
   </varray>
   <i name="volume">    256.00000000 </i>
   <varray name="rec_basis" >
    <v>       0.17677670       0.00000000       0.00000000 </v>
    <v>       0.00000000       0.25000000       0.00000000 </v>
    <v>       0.00000000       0.00000000       0.08838835 </v>
   </varray>
  </crystal>
  <varray name="positions" >
   <v>       0.75000000       0.00000000       0.87500000 </v>
   <v>       0.25000000       0.00000000       0.12500000 </v>
   <v>       0.75000000       0.00000000       0.37500000 </v>
   <v>       0.25000000       0.00000000       0.62500000 </v>
   <v>       0.25000000       0.50000000       0.87500000 </v>
   <v>       0.75000000       0.50000000       0.12500000 </v>
   <v>       0.25000000       0.50000000       0.37500000 </v>
   <v>       0.75000000       0.50000000       0.62500000 </v>
   <v>       0.00000000       0.50000000       0.50000000 </v>
   <v>       0.25000000       0.00000000       0.87500000 </v>
   <v>       0.75000000       0.00000000       0.12500000 </v>
   <v>       0.25000000       0.00000000       0.37500000 </v>
   <v>       0.75000000       0.00000000       0.62500000 </v>
   <v>       0.50000000       0.50000000       0.00000000 </v>
   <v>       0.00000000       0.50000000       0.25000000 </v>
   <v>       0.50000000       0.50000000       0.50000000 </v>
   <v>       0.00000000       0.50000000       0.75000000 </v>
  </varray>
 </structure>
 <calculation>
  <scstep>
   <time name="dav">    3.72    3.72</time>
   <time name="total">    3.93    3.94</time>
   <energy>
    <i name="alphaZ">    635.64916683 </i>
    <i name="ewald">  -9118.77763243 </i>
    <i name="hartreedc">  -3817.51578466 </i>
    <i name="XCdc">    571.18850066 </i>
    <i name="pawpsdc">  10532.98817047 </i>
    <i name="pawaedc"> -10865.93268589 </i>
    <i name="eentropy">     -0.00578190 </i>
    <i name="bandstr">    981.59461190 </i>
    <i name="atom">  12827.37956309 </i>
    <i name="e_fr_energy">   1746.56812805 </i>
    <i name="e_wo_entrp">   1746.57390996 </i>
    <i name="e_0_energy">   1746.57101901 </i>
   </energy>
  </scstep>
  <scstep>
   <time name="dav">    3.80    3.80</time>
   <time name="total">    3.80    3.81</time>
   <energy>
    <i name="e_fr_energy">    158.54745788 </i>
    <i name="e_wo_entrp">    158.55372679 </i>
    <i name="e_0_energy">    158.55059234 </i>
   </energy>
  </scstep>
  <scstep>
   <time name="dav">    3.87    3.88</time>
   <time name="total">    3.88    3.89</time>
   <energy>
    <i name="e_fr_energy">    -86.73475798 </i>
    <i name="e_wo_entrp">    -86.72370215 </i>
    <i name="e_0_energy">    -86.72923006 </i>
   </energy>
  </scstep>
  <scstep>
   <time name="dav">    5.04    5.04</time>
   <time name="total">    5.04    5.05</time>
   <energy>
    <i name="e_fr_energy">   -106.26525683 </i>
    <i name="e_wo_entrp">   -106.25384499 </i>
    <i name="e_0_energy">   -106.25955091 </i>
   </energy>
  </scstep>
  <scstep>
   <time name="dav">    6.00    6.00</time>
   <time name="total">    6.39    6.41</time>
   <energy>
    <i name="e_fr_energy">   -107.32915250 </i>
    <i name="e_wo_entrp">   -107.31745552 </i>
    <i name="e_0_energy">   -107.32330401 </i>
   </energy>
  </scstep>
  <scstep>
   <time name="dav">    5.09    5.09</time>
   <time name="total">    5.69    5.71</time>
   <energy>
    <i name="e_fr_energy">    -97.32830155 </i>
    <i name="e_wo_entrp">    -97.31627337 </i>
    <i name="e_0_energy">    -97.32228746 </i>
   </energy>
  </scstep>
  <scstep>
   <time name="dav">    5.02    5.02</time>
   <time name="total">    5.62    5.63</time>
   <energy>
    <i name="e_fr_energy">    -87.08292202 </i>
    <i name="e_wo_entrp">    -87.07019659 </i>
    <i name="e_0_energy">    -87.07655930 </i>
   </energy>
  </scstep>
  <scstep>
   <time name="dav">    5.73    5.73</time>
   <time name="total">    6.33    6.34</time>
   <energy>
    <i name="e_fr_energy">    -89.36744271 </i>
    <i name="e_wo_entrp">    -89.36208268 </i>
    <i name="e_0_energy">    -89.36476269 </i>
   </energy>
  </scstep>
  <scstep>
   <time name="dav">    5.21    5.21</time>
   <time name="total">    5.81    5.82</time>
   <energy>
    <i name="e_fr_energy">    -92.26639749 </i>
    <i name="e_wo_entrp">    -92.25890815 </i>
    <i name="e_0_energy">    -92.26265282 </i>
   </energy>
  </scstep>
  <scstep>
   <time name="dav">    5.05    5.05</time>
   <time name="total">    5.65    5.66</time>
   <energy>
    <i name="e_fr_energy">    -87.88527319 </i>
    <i name="e_wo_entrp">    -87.88071476 </i>
    <i name="e_0_energy">    -87.88299397 </i>
   </energy>
  </scstep>
  <scstep>
   <time name="dav">    5.39    5.39</time>
   <time name="total">    5.99    6.00</time>
   <energy>
    <i name="e_fr_energy">    -85.97885513 </i>
    <i name="e_wo_entrp">    -85.97093508 </i>
    <i name="e_0_energy">    -85.97489511 </i>
   </energy>
  </scstep>
  <scstep>
   <time name="dav">    5.32    5.33</time>
   <time name="total">    5.92    5.94</time>
   <energy>
    <i name="e_fr_energy">    -85.61066456 </i>
    <i name="e_wo_entrp">    -85.60169323 </i>
    <i name="e_0_energy">    -85.60617889 </i>
   </energy>
  </scstep>
  <scstep>
   <time name="dav">    5.14    5.15</time>
   <time name="total">    5.74    5.75</time>
   <energy>
    <i name="e_fr_energy">    -85.69984613 </i>
    <i name="e_wo_entrp">    -85.69115090 </i>
    <i name="e_0_energy">    -85.69549852 </i>
   </energy>
  </scstep>
  <scstep>
   <time name="dav">    5.00    5.00</time>
   <time name="total">    5.59    5.61</time>
   <energy>
    <i name="e_fr_energy">    -85.69981490 </i>
    <i name="e_wo_entrp">    -85.69092062 </i>
    <i name="e_0_energy">    -85.69536776 </i>
   </energy>
  </scstep>
  <scstep>
   <time name="dav">    5.37    5.37</time>
   <time name="total">    5.97    5.98</time>
   <energy>
    <i name="e_fr_energy">    -85.60561902 </i>
    <i name="e_wo_entrp">    -85.59604207 </i>
    <i name="e_0_energy">    -85.60083055 </i>
   </energy>
  </scstep>
  <scstep>
   <time name="dav">    5.14    5.14</time>
   <time name="total">    5.74    5.75</time>
   <energy>
    <i name="e_fr_energy">    -85.61827394 </i>
    <i name="e_wo_entrp">    -85.60818869 </i>
    <i name="e_0_energy">    -85.61323132 </i>
   </energy>
  </scstep>
  <scstep>
   <time name="dav">    5.13    5.13</time>
   <time name="total">    5.72    5.74</time>
   <energy>
    <i name="e_fr_energy">    -85.62149853 </i>
    <i name="e_wo_entrp">    -85.61142829 </i>
    <i name="e_0_energy">    -85.61646341 </i>
   </energy>
  </scstep>
  <scstep>
   <time name="dav">    5.47    5.47</time>
   <time name="total">    6.06    6.08</time>
   <energy>
    <i name="e_fr_energy">    -85.62223539 </i>
    <i name="e_wo_entrp">    -85.61246457 </i>
    <i name="e_0_energy">    -85.61734998 </i>
   </energy>
  </scstep>
  <scstep>
   <time name="dav">    5.45    5.45</time>
   <time name="total">    6.05    6.06</time>
   <energy>
    <i name="e_fr_energy">    -85.62213271 </i>
    <i name="e_wo_entrp">    -85.61227436 </i>
    <i name="e_0_energy">    -85.61720353 </i>
   </energy>
  </scstep>
  <scstep>
   <time name="dav">    4.91    4.91</time>
   <time name="total">    5.51    5.52</time>
   <energy>
    <i name="e_fr_energy">    -85.62293450 </i>
    <i name="e_wo_entrp">    -85.61303231 </i>
    <i name="e_0_energy">    -85.61798341 </i>
   </energy>
  </scstep>
  <scstep>
   <time name="dav">    5.41    5.41</time>
   <time name="total">    6.00    6.02</time>
   <energy>
    <i name="e_fr_energy">    -85.62297704 </i>
    <i name="e_wo_entrp">    -85.61291057 </i>
    <i name="e_0_energy">    -85.61794380 </i>
   </energy>
  </scstep>
  <scstep>
   <time name="dav">    5.28    5.29</time>
   <time name="total">    5.88    5.90</time>
   <energy>
    <i name="e_fr_energy">    -85.62302909 </i>
    <i name="e_wo_entrp">    -85.61287481 </i>
    <i name="e_0_energy">    -85.61795195 </i>
   </energy>
  </scstep>
  <scstep>
   <time name="dav">    5.45    5.45</time>
   <time name="total">    6.05    6.07</time>
   <energy>
    <i name="e_fr_energy">    -85.62304728 </i>
    <i name="e_wo_entrp">    -85.61281958 </i>
    <i name="e_0_energy">    -85.61793343 </i>
   </energy>
  </scstep>
  <scstep>
   <time name="dav">    5.07    5.08</time>
   <time name="total">    5.67    5.69</time>
   <energy>
    <i name="e_fr_energy">    -85.62306047 </i>
    <i name="e_wo_entrp">    -85.61282790 </i>
    <i name="e_0_energy">    -85.61794418 </i>
   </energy>
  </scstep>
  <scstep>
   <time name="dav">    4.80    4.80</time>
   <time name="total">    5.40    5.41</time>
   <energy>
    <i name="e_fr_energy">    -85.62306360 </i>
    <i name="e_wo_entrp">    -85.61281177 </i>
    <i name="e_0_energy">    -85.61793769 </i>
   </energy>
  </scstep>
  <scstep>
   <time name="dav">    3.18    3.18</time>
   <time name="total">    3.77    3.79</time>
   <energy>
    <i name="e_fr_energy">    -85.62306513 </i>
    <i name="e_wo_entrp">    -85.61280040 </i>
    <i name="e_0_energy">    -85.61793276 </i>
   </energy>
  </scstep>
  <scstep>
   <time name="dav">    2.86    2.86</time>
   <time name="total">    3.06    3.08</time>
   <energy>
    <i name="alphaZ">    635.64916683 </i>
    <i name="ewald">  -9118.77763243 </i>
    <i name="hartreedc">  -3807.07644376 </i>
    <i name="XCdc">    571.45072341 </i>
    <i name="pawpsdc">  16347.91529869 </i>
    <i name="pawaedc"> -16719.19641340 </i>
    <i name="eentropy">     -0.01027390 </i>
    <i name="bandstr">   -822.95705454 </i>
    <i name="atom">  12827.37956309 </i>
    <i name="e_fr_energy">    -85.62306601 </i>
    <i name="e_wo_entrp">    -85.61279211 </i>
    <i name="e_0_energy">    -85.61792906 </i>
   </energy>
  </scstep>
  <structure>
   <crystal>
    <varray name="basis" >
     <v>       5.65685425       0.00000000       0.00000000 </v>
     <v>       0.00000000       4.00000000       0.00000000 </v>
     <v>       0.00000000       0.00000000      11.31370850 </v>
    </varray>
    <i name="volume">    256.00000000 </i>
    <varray name="rec_basis" >
     <v>       0.17677670       0.00000000       0.00000000 </v>
     <v>       0.00000000       0.25000000       0.00000000 </v>
     <v>       0.00000000       0.00000000       0.08838835 </v>
    </varray>
   </crystal>
   <varray name="positions" >
    <v>       0.75000000       0.00000000       0.87500000 </v>
    <v>       0.25000000       0.00000000       0.12500000 </v>
    <v>       0.75000000       0.00000000       0.37500000 </v>
    <v>       0.25000000       0.00000000       0.62500000 </v>
    <v>       0.25000000       0.50000000       0.87500000 </v>
    <v>       0.75000000       0.50000000       0.12500000 </v>
    <v>       0.25000000       0.50000000       0.37500000 </v>
    <v>       0.75000000       0.50000000       0.62500000 </v>
    <v>       0.00000000       0.50000000       0.50000000 </v>
    <v>       0.25000000       0.00000000       0.87500000 </v>
    <v>       0.75000000       0.00000000       0.12500000 </v>
    <v>       0.25000000       0.00000000       0.37500000 </v>
    <v>       0.75000000       0.00000000       0.62500000 </v>
    <v>       0.50000000       0.50000000       0.00000000 </v>
    <v>       0.00000000       0.50000000       0.25000000 </v>
    <v>       0.50000000       0.50000000       0.50000000 </v>
    <v>       0.00000000       0.50000000       0.75000000 </v>
   </varray>
  </structure>
  <varray name="forces" >
   <v>       0.03764415       0.00000000      -0.09250393 </v>
   <v>      -0.03764415       0.00000000       0.09250393 </v>
   <v>       0.92697356       0.00000000       0.98212330 </v>
   <v>      -0.92697356       0.00000000      -0.98212330 </v>
   <v>      -0.19393917       0.00000000      -0.07047892 </v>
   <v>       0.19393917       0.00000000       0.07047892 </v>
   <v>      -0.78685270       0.00000000       1.01497907 </v>
   <v>       0.78685270       0.00000000      -1.01497907 </v>
   <v>       0.00000000       0.00000000       0.00000000 </v>
   <v>      -0.02947913       0.00000000       0.12104000 </v>
   <v>       0.02947913       0.00000000      -0.12104000 </v>
   <v>       0.72432486       0.00000000      -0.77544638 </v>
   <v>      -0.72432486       0.00000000       0.77544638 </v>
   <v>       0.00000000       0.00000000       0.00000000 </v>
   <v>       0.02240358       0.00000000      -0.94136103 </v>
   <v>       0.00000000       0.00000000       0.00000000 </v>
   <v>      -0.02240358       0.00000000       0.94136103 </v>
  </varray>
  <varray name="stress" >
   <v>    -109.13959757       0.00000000      30.11456016 </v>
   <v>       0.00000000     -78.52819725       0.00000000 </v>
   <v>      30.11455994       0.00000000    -107.19200272 </v>
  </varray>
  <energy>
   <i name="e_fr_energy">    -85.62306601 </i>
   <i name="e_wo_entrp">    -85.61792906 </i>
   <i name="e_0_energy">     -0.01027390 </i>
  </energy>
  <time name="totalsc">  153.33  153.80</time>
  <eigenvalues>
   <array>
    <dimension dim="1">band</dimension>
    <dimension dim="2">kpoint</dimension>
    <dimension dim="3">spin</dimension>
    <field>eigene</field>
    <field>occ</field>
    <set>
     <set comment="spin 1">
      <set comment="kpoint 1">
       <r>  -31.4441    1.0000 </r>
       <r>  -31.4310    1.0000 </r>
       <r>  -30.6460    1.0000 </r>
       <r>  -30.6323    1.0000 </r>
       <r>  -14.7608    1.0000 </r>
       <r>  -14.6525    1.0000 </r>
       <r>  -14.6424    1.0000 </r>
       <r>  -14.3154    1.0000 </r>
       <r>  -14.0761    1.0000 </r>
       <r>  -13.8899    1.0000 </r>
       <r>  -13.8361    1.0000 </r>
       <r>  -13.8063    1.0000 </r>
       <r>  -13.5817    1.0000 </r>
       <r>  -13.4509    1.0000 </r>
       <r>  -13.4237    1.0000 </r>
       <r>  -13.3811    1.0000 </r>
       <r>  -13.3463    1.0000 </r>
       <r>  -13.0644    1.0000 </r>
       <r>  -12.7900    1.0000 </r>
       <r>  -12.6200    1.0000 </r>
       <r>  -12.6105    1.0000 </r>
       <r>  -12.5844    1.0000 </r>
       <r>  -12.4393    1.0000 </r>
       <r>  -12.3739    1.0000 </r>
       <r>  -12.2267    1.0000 </r>
       <r>   -2.6628    1.0000 </r>
       <r>   -2.2018    1.0000 </r>
       <r>   -1.9629    1.0000 </r>
       <r>   -1.9287    1.0000 </r>
       <r>   -1.8562    1.0000 </r>
       <r>   -1.4535    1.0000 </r>
       <r>   -1.3293    1.0000 </r>
       <r>   -1.2566    1.0000 </r>
       <r>   -1.2379    1.0000 </r>
       <r>   -1.2233    1.0000 </r>
       <r>   -1.1831    1.0000 </r>
       <r>   -0.8964    1.0000 </r>
       <r>   -0.8737    1.0000 </r>
       <r>   -0.7918    1.0000 </r>
       <r>   -0.7834    1.0000 </r>
       <r>   -0.7563    1.0000 </r>
       <r>   -0.7095    1.0000 </r>
       <r>   -0.6773    1.0000 </r>
       <r>   -0.6401    1.0000 </r>
       <r>   -0.5286    1.0000 </r>
       <r>   -0.4863    1.0000 </r>
       <r>   -0.3595    1.0000 </r>
       <r>   -0.3167    1.0000 </r>
       <r>   -0.2301    1.0000 </r>
       <r>   -0.0024    1.0000 </r>
       <r>    0.1362    1.0000 </r>
       <r>    0.3204    1.0000 </r>
       <r>    0.3884    1.0000 </r>
       <r>    0.7581    1.0000 </r>
       <r>    0.8335    1.0000 </r>
       <r>    0.9751    1.0000 </r>
       <r>    1.0559    1.0000 </r>
       <r>    1.1360    1.0000 </r>
       <r>    1.1569    1.0000 </r>
       <r>    1.2263    1.0000 </r>
       <r>    1.2496    1.0000 </r>
       <r>    1.4542    1.0000 </r>
       <r>    1.5962    1.0000 </r>
       <r>    1.7065    1.0000 </r>
       <r>    1.7857    1.0000 </r>
       <r>    1.8056    1.0000 </r>
       <r>    1.8824    1.0000 </r>
       <r>    1.8882    1.0000 </r>
       <r>    1.9573    1.0000 </r>
       <r>    2.0490    1.0000 </r>
       <r>    2.2035    1.0000 </r>
       <r>    3.1500    0.0000 </r>
       <r>    3.9052    0.0000 </r>
       <r>    5.5482    0.0000 </r>
       <r>    5.9105    0.0000 </r>
       <r>    7.2582    0.0000 </r>
       <r>    7.7858    0.0000 </r>
       <r>    8.0573    0.0000 </r>
       <r>    8.2495    0.0000 </r>
       <r>    8.3739    0.0000 </r>
       <r>    8.7550    0.0000 </r>
       <r>    8.7919    0.0000 </r>
       <r>    8.9523    0.0000 </r>
       <r>    9.1537    0.0000 </r>
       <r>    9.4598    0.0000 </r>
       <r>    9.5074    0.0000 </r>
       <r>    9.7719    0.0000 </r>
       <r>    9.8590    0.0000 </r>
       <r>    9.9621    0.0000 </r>
       <r>   10.3382    0.0000 </r>
       <r>   10.4770    0.0000 </r>
       <r>   10.4863    0.0000 </r>
      </set>
      <set comment="kpoint 2">
       <r>  -31.4420    1.0000 </r>
       <r>  -31.4327    1.0000 </r>
       <r>  -30.6438    1.0000 </r>
       <r>  -30.6341    1.0000 </r>
       <r>  -14.9511    1.0000 </r>
       <r>  -14.7070    1.0000 </r>
       <r>  -14.6184    1.0000 </r>
       <r>  -14.4963    1.0000 </r>
       <r>  -14.0319    1.0000 </r>
       <r>  -13.9344    1.0000 </r>
       <r>  -13.7367    1.0000 </r>
       <r>  -13.6283    1.0000 </r>
       <r>  -13.6167    1.0000 </r>
       <r>  -13.4470    1.0000 </r>
       <r>  -13.4271    1.0000 </r>
       <r>  -13.3770    1.0000 </r>
       <r>  -13.2084    1.0000 </r>
       <r>  -13.0326    1.0000 </r>
       <r>  -12.8096    1.0000 </r>
       <r>  -12.6147    1.0000 </r>
       <r>  -12.5933    1.0000 </r>
       <r>  -12.5896    1.0000 </r>
       <r>  -12.3772    1.0000 </r>
       <r>  -12.3554    1.0000 </r>
       <r>  -12.1807    1.0000 </r>
       <r>   -2.5159    1.0000 </r>
       <r>   -2.4033    1.0000 </r>
       <r>   -2.1784    1.0000 </r>
       <r>   -1.7354    1.0000 </r>
       <r>   -1.3983    1.0000 </r>
       <r>   -1.3345    1.0000 </r>
       <r>   -1.3091    1.0000 </r>
       <r>   -1.2949    1.0000 </r>
       <r>   -1.2658    1.0000 </r>
       <r>   -1.1847    1.0000 </r>
       <r>   -1.1302    1.0000 </r>
       <r>   -1.1266    1.0000 </r>
       <r>   -1.0083    1.0000 </r>
       <r>   -0.8936    1.0000 </r>
       <r>   -0.8625    1.0000 </r>
       <r>   -0.7068    1.0000 </r>
       <r>   -0.6956    1.0000 </r>
       <r>   -0.6751    1.0000 </r>
       <r>   -0.6386    1.0000 </r>
       <r>   -0.6356    1.0000 </r>
       <r>   -0.4987    1.0000 </r>
       <r>   -0.4638    1.0000 </r>
       <r>   -0.3161    1.0000 </r>
       <r>   -0.2789    1.0000 </r>
       <r>   -0.2312    1.0000 </r>
       <r>    0.1600    1.0000 </r>
       <r>    0.2542    1.0000 </r>
       <r>    0.4536    1.0000 </r>
       <r>    0.6022    1.0000 </r>
       <r>    0.7235    1.0000 </r>
       <r>    0.8082    1.0000 </r>
       <r>    0.8413    1.0000 </r>
       <r>    1.0226    1.0000 </r>
       <r>    1.1239    1.0000 </r>
       <r>    1.3346    1.0000 </r>
       <r>    1.3723    1.0000 </r>
       <r>    1.5462    1.0000 </r>
       <r>    1.6301    1.0000 </r>
       <r>    1.7170    1.0000 </r>
       <r>    1.7817    1.0000 </r>
       <r>    1.7817    1.0000 </r>
       <r>    1.8418    1.0000 </r>
       <r>    1.8679    1.0000 </r>
       <r>    1.9011    1.0000 </r>
       <r>    2.0309    1.0000 </r>
       <r>    2.0825    1.0000 </r>
       <r>    2.8442    0.0000 </r>
       <r>    4.4688    0.0000 </r>
       <r>    5.7648    0.0000 </r>
       <r>    6.2455    0.0000 </r>
       <r>    7.2549    0.0000 </r>
       <r>    7.7058    0.0000 </r>
       <r>    8.1583    0.0000 </r>
       <r>    8.3896    0.0000 </r>
       <r>    8.4246    0.0000 </r>
       <r>    8.7272    0.0000 </r>
       <r>    9.0196    0.0000 </r>
       <r>    9.0586    0.0000 </r>
       <r>    9.1489    0.0000 </r>
       <r>    9.4027    0.0000 </r>
       <r>    9.6484    0.0000 </r>
       <r>    9.8348    0.0000 </r>
       <r>    9.9382    0.0000 </r>
       <r>   10.1836    0.0000 </r>
       <r>   10.3108    0.0000 </r>
       <r>   10.4935    0.0000 </r>
       <r>   10.5398    0.0000 </r>
      </set>
      <set comment="kpoint 3">
       <r>  -31.4373    1.0000 </r>
       <r>  -31.4371    1.0000 </r>
       <r>  -30.6389    1.0000 </r>
       <r>  -30.6387    1.0000 </r>
       <r>  -15.0643    1.0000 </r>
       <r>  -14.7384    1.0000 </r>
       <r>  -14.6928    1.0000 </r>
       <r>  -14.6174    1.0000 </r>
       <r>  -13.9265    1.0000 </r>
       <r>  -13.9035    1.0000 </r>
       <r>  -13.8251    1.0000 </r>
       <r>  -13.5698    1.0000 </r>
       <r>  -13.5448    1.0000 </r>
       <r>  -13.4401    1.0000 </r>
       <r>  -13.4335    1.0000 </r>
       <r>  -13.3279    1.0000 </r>
       <r>  -13.1190    1.0000 </r>
       <r>  -13.0305    1.0000 </r>
       <r>  -12.7917    1.0000 </r>
       <r>  -12.6026    1.0000 </r>
       <r>  -12.6016    1.0000 </r>
       <r>  -12.5765    1.0000 </r>
       <r>  -12.3672    1.0000 </r>
       <r>  -12.2893    1.0000 </r>
       <r>  -12.1294    1.0000 </r>
       <r>   -2.6319    1.0000 </r>
       <r>   -2.2048    1.0000 </r>
       <r>   -1.9416    1.0000 </r>
       <r>   -1.9367    1.0000 </r>
       <r>   -1.4552    1.0000 </r>
       <r>   -1.3390    1.0000 </r>
       <r>   -1.3122    1.0000 </r>
       <r>   -1.2489    1.0000 </r>
       <r>   -1.2358    1.0000 </r>
       <r>   -1.2243    1.0000 </r>
       <r>   -1.1591    1.0000 </r>
       <r>   -0.9511    1.0000 </r>
       <r>   -0.9478    1.0000 </r>
       <r>   -0.9131    1.0000 </r>
       <r>   -0.8845    1.0000 </r>
       <r>   -0.8624    1.0000 </r>
       <r>   -0.8222    1.0000 </r>
       <r>   -0.6932    1.0000 </r>
       <r>   -0.6693    1.0000 </r>
       <r>   -0.5298    1.0000 </r>
       <r>   -0.5122    1.0000 </r>
       <r>   -0.4765    1.0000 </r>
       <r>   -0.4587    1.0000 </r>
       <r>   -0.4056    1.0000 </r>
       <r>   -0.2037    1.0000 </r>
       <r>   -0.0041    1.0000 </r>
       <r>    0.2780    1.0000 </r>
       <r>    0.3942    1.0000 </r>
       <r>    0.3988    1.0000 </r>
       <r>    0.5261    1.0000 </r>
       <r>    0.6479    1.0000 </r>
       <r>    0.9313    1.0000 </r>
       <r>    0.9634    1.0000 </r>
       <r>    1.1348    1.0000 </r>
       <r>    1.2486    1.0000 </r>
       <r>    1.4791    1.0000 </r>
       <r>    1.6575    1.0000 </r>
       <r>    1.6875    1.0000 </r>
       <r>    1.6934    1.0000 </r>
       <r>    1.7292    1.0000 </r>
       <r>    1.7870    1.0000 </r>
       <r>    1.8164    1.0000 </r>
       <r>    1.9049    1.0000 </r>
       <r>    1.9137    1.0000 </r>
       <r>    1.9389    1.0000 </r>
       <r>    1.9961    1.0000 </r>
       <r>    2.5268    0.6272 </r>
       <r>    5.4646    0.0000 </r>
       <r>    5.6297    0.0000 </r>
       <r>    6.6032    0.0000 </r>
       <r>    6.8831    0.0000 </r>
       <r>    7.7878    0.0000 </r>
       <r>    8.0845    0.0000 </r>
       <r>    8.5065    0.0000 </r>
       <r>    8.7266    0.0000 </r>
       <r>    8.7534    0.0000 </r>
       <r>    8.9696    0.0000 </r>
       <r>    9.0831    0.0000 </r>
       <r>    9.1492    0.0000 </r>
       <r>    9.5344    0.0000 </r>
       <r>    9.6070    0.0000 </r>
       <r>    9.9283    0.0000 </r>
       <r>   10.0329    0.0000 </r>
       <r>   10.1461    0.0000 </r>
       <r>   10.3380    0.0000 </r>
       <r>   10.4897    0.0000 </r>
       <r>   10.7262    0.0000 </r>
      </set>
      <set comment="kpoint 4">
       <r>  -31.4396    1.0000 </r>
       <r>  -31.4267    1.0000 </r>
       <r>  -30.6411    1.0000 </r>
       <r>  -30.6279    1.0000 </r>
       <r>  -14.6744    1.0000 </r>
       <r>  -14.6266    1.0000 </r>
       <r>  -14.5588    1.0000 </r>
       <r>  -14.1957    1.0000 </r>
       <r>  -14.0156    1.0000 </r>
       <r>  -13.9670    1.0000 </r>
       <r>  -13.8999    1.0000 </r>
       <r>  -13.7982    1.0000 </r>
       <r>  -13.7380    1.0000 </r>
       <r>  -13.4694    1.0000 </r>
       <r>  -13.4622    1.0000 </r>
       <r>  -13.3177    1.0000 </r>
       <r>  -13.2303    1.0000 </r>
       <r>  -13.0779    1.0000 </r>
       <r>  -12.8928    1.0000 </r>
       <r>  -12.6416    1.0000 </r>
       <r>  -12.5883    1.0000 </r>
       <r>  -12.5832    1.0000 </r>
       <r>  -12.4255    1.0000 </r>
       <r>  -12.3785    1.0000 </r>
       <r>  -12.3109    1.0000 </r>
       <r>   -2.7081    1.0000 </r>
       <r>   -2.2116    1.0000 </r>
       <r>   -2.0103    1.0000 </r>
       <r>   -2.0000    1.0000 </r>
       <r>   -1.7874    1.0000 </r>
       <r>   -1.7618    1.0000 </r>
       <r>   -1.6810    1.0000 </r>
       <r>   -1.6340    1.0000 </r>
       <r>   -1.5927    1.0000 </r>
       <r>   -1.4682    1.0000 </r>
       <r>   -1.3715    1.0000 </r>
       <r>   -1.3421    1.0000 </r>
       <r>   -1.3382    1.0000 </r>
       <r>   -1.2622    1.0000 </r>
       <r>   -1.1897    1.0000 </r>
       <r>   -1.1183    1.0000 </r>
       <r>   -1.1120    1.0000 </r>
       <r>   -1.0269    1.0000 </r>
       <r>   -0.9620    1.0000 </r>
       <r>   -0.7455    1.0000 </r>
       <r>   -0.5814    1.0000 </r>
       <r>   -0.5408    1.0000 </r>
       <r>   -0.1808    1.0000 </r>
       <r>   -0.0192    1.0000 </r>
       <r>    0.4229    1.0000 </r>
       <r>    0.4771    1.0000 </r>
       <r>    0.5637    1.0000 </r>
       <r>    0.7572    1.0000 </r>
       <r>    1.0777    1.0000 </r>
       <r>    1.1673    1.0000 </r>
       <r>    1.1859    1.0000 </r>
       <r>    1.2152    1.0000 </r>
       <r>    1.2355    1.0000 </r>
       <r>    1.2573    1.0000 </r>
       <r>    1.3145    1.0000 </r>
       <r>    1.4327    1.0000 </r>
       <r>    1.4588    1.0000 </r>
       <r>    1.5447    1.0000 </r>
       <r>    1.7606    1.0000 </r>
       <r>    1.7887    1.0000 </r>
       <r>    1.9032    1.0000 </r>
       <r>    1.9122    1.0000 </r>
       <r>    2.0945    1.0000 </r>
       <r>    2.5073    0.8093 </r>
       <r>    2.8611    0.0000 </r>
       <r>    2.9284    0.0000 </r>
       <r>    3.3410    0.0000 </r>
       <r>    4.6551    0.0000 </r>
       <r>    5.4065    0.0000 </r>
       <r>    5.6787    0.0000 </r>
       <r>    7.4754    0.0000 </r>
       <r>    7.9726    0.0000 </r>
       <r>    8.2513    0.0000 </r>
       <r>    8.3193    0.0000 </r>
       <r>    8.4748    0.0000 </r>
       <r>    8.8068    0.0000 </r>
       <r>    8.9093    0.0000 </r>
       <r>    9.1445    0.0000 </r>
       <r>    9.1696    0.0000 </r>
       <r>    9.3854    0.0000 </r>
       <r>    9.6233    0.0000 </r>
       <r>    9.8859    0.0000 </r>
       <r>   10.0495    0.0000 </r>
       <r>   10.1494    0.0000 </r>
       <r>   10.3073    0.0000 </r>
       <r>   10.3967    0.0000 </r>
       <r>   10.7216    0.0000 </r>
      </set>
      <set comment="kpoint 5">
       <r>  -31.4375    1.0000 </r>
       <r>  -31.4284    1.0000 </r>
       <r>  -30.6391    1.0000 </r>
       <r>  -30.6297    1.0000 </r>
       <r>  -14.8137    1.0000 </r>
       <r>  -14.6507    1.0000 </r>
       <r>  -14.5499    1.0000 </r>
       <r>  -14.3966    1.0000 </r>
       <r>  -14.1080    1.0000 </r>
       <r>  -13.9754    1.0000 </r>
       <r>  -13.8520    1.0000 </r>
       <r>  -13.7295    1.0000 </r>
       <r>  -13.6701    1.0000 </r>
       <r>  -13.4325    1.0000 </r>
       <r>  -13.3831    1.0000 </r>
       <r>  -13.3145    1.0000 </r>
       <r>  -13.1674    1.0000 </r>
       <r>  -13.0569    1.0000 </r>
       <r>  -12.8802    1.0000 </r>
       <r>  -12.6400    1.0000 </r>
       <r>  -12.5795    1.0000 </r>
       <r>  -12.5066    1.0000 </r>
       <r>  -12.3856    1.0000 </r>
       <r>  -12.3658    1.0000 </r>
       <r>  -12.2492    1.0000 </r>
       <r>   -2.5516    1.0000 </r>
       <r>   -2.4919    1.0000 </r>
       <r>   -2.1732    1.0000 </r>
       <r>   -1.7952    1.0000 </r>
       <r>   -1.7326    1.0000 </r>
       <r>   -1.7187    1.0000 </r>
       <r>   -1.6831    1.0000 </r>
       <r>   -1.6018    1.0000 </r>
       <r>   -1.5448    1.0000 </r>
       <r>   -1.4733    1.0000 </r>
       <r>   -1.4225    1.0000 </r>
       <r>   -1.3563    1.0000 </r>
       <r>   -1.2965    1.0000 </r>
       <r>   -1.2870    1.0000 </r>
       <r>   -1.1856    1.0000 </r>
       <r>   -1.1030    1.0000 </r>
       <r>   -1.0341    1.0000 </r>
       <r>   -0.9983    1.0000 </r>
       <r>   -0.9774    1.0000 </r>
       <r>   -0.9376    1.0000 </r>
       <r>   -0.8425    1.0000 </r>
       <r>   -0.4418    1.0000 </r>
       <r>   -0.3142    1.0000 </r>
       <r>   -0.0399    1.0000 </r>
       <r>    0.1899    1.0000 </r>
       <r>    0.4186    1.0000 </r>
       <r>    0.7150    1.0000 </r>
       <r>    0.9004    1.0000 </r>
       <r>    0.9407    1.0000 </r>
       <r>    0.9820    1.0000 </r>
       <r>    1.0053    1.0000 </r>
       <r>    1.1096    1.0000 </r>
       <r>    1.2127    1.0000 </r>
       <r>    1.2723    1.0000 </r>
       <r>    1.3369    1.0000 </r>
       <r>    1.3575    1.0000 </r>
       <r>    1.4596    1.0000 </r>
       <r>    1.5204    1.0000 </r>
       <r>    1.7201    1.0000 </r>
       <r>    1.7672    1.0000 </r>
       <r>    1.8741    1.0000 </r>
       <r>    2.0318    1.0000 </r>
       <r>    2.2595    1.0000 </r>
       <r>    2.4615    0.9851 </r>
       <r>    2.5153    0.7420 </r>
       <r>    3.0929    0.0000 </r>
       <r>    3.1967    0.0000 </r>
       <r>    5.0232    0.0000 </r>
       <r>    5.6731    0.0000 </r>
       <r>    6.0534    0.0000 </r>
       <r>    7.6644    0.0000 </r>
       <r>    7.9277    0.0000 </r>
       <r>    8.3501    0.0000 </r>
       <r>    8.4200    0.0000 </r>
       <r>    8.5945    0.0000 </r>
       <r>    8.7031    0.0000 </r>
       <r>    8.9983    0.0000 </r>
       <r>    9.0671    0.0000 </r>
       <r>    9.3654    0.0000 </r>
       <r>    9.4982    0.0000 </r>
       <r>    9.8053    0.0000 </r>
       <r>    9.8984    0.0000 </r>
       <r>   10.1234    0.0000 </r>
       <r>   10.2335    0.0000 </r>
       <r>   10.3540    0.0000 </r>
       <r>   10.4785    0.0000 </r>
       <r>   10.7046    0.0000 </r>
      </set>
      <set comment="kpoint 6">
       <r>  -31.4328    1.0000 </r>
       <r>  -31.4328    1.0000 </r>
       <r>  -30.6343    1.0000 </r>
       <r>  -30.6341    1.0000 </r>
       <r>  -14.9129    1.0000 </r>
       <r>  -14.6467    1.0000 </r>
       <r>  -14.6161    1.0000 </r>
       <r>  -14.5261    1.0000 </r>
       <r>  -14.1310    1.0000 </r>
       <r>  -13.9315    1.0000 </r>
       <r>  -13.8909    1.0000 </r>
       <r>  -13.7253    1.0000 </r>
       <r>  -13.6185    1.0000 </r>
       <r>  -13.4364    1.0000 </r>
       <r>  -13.3749    1.0000 </r>
       <r>  -13.2374    1.0000 </r>
       <r>  -13.1120    1.0000 </r>
       <r>  -13.0334    1.0000 </r>
       <r>  -12.8550    1.0000 </r>
       <r>  -12.5676    1.0000 </r>
       <r>  -12.5635    1.0000 </r>
       <r>  -12.5128    1.0000 </r>
       <r>  -12.4022    1.0000 </r>
       <r>  -12.2837    1.0000 </r>
       <r>  -12.1809    1.0000 </r>
       <r>   -2.7188    1.0000 </r>
       <r>   -2.2080    1.0000 </r>
       <r>   -2.0111    1.0000 </r>
       <r>   -2.0001    1.0000 </r>
       <r>   -1.7661    1.0000 </r>
       <r>   -1.7506    1.0000 </r>
       <r>   -1.7369    1.0000 </r>
       <r>   -1.6118    1.0000 </r>
       <r>   -1.5313    1.0000 </r>
       <r>   -1.4815    1.0000 </r>
       <r>   -1.4204    1.0000 </r>
       <r>   -1.3526    1.0000 </r>
       <r>   -1.3336    1.0000 </r>
       <r>   -1.3191    1.0000 </r>
       <r>   -1.2330    1.0000 </r>
       <r>   -1.2086    1.0000 </r>
       <r>   -1.1326    1.0000 </r>
       <r>   -1.1043    1.0000 </r>
       <r>   -1.0241    1.0000 </r>
       <r>   -0.8243    1.0000 </r>
       <r>   -0.5174    1.0000 </r>
       <r>   -0.4503    1.0000 </r>
       <r>   -0.3491    1.0000 </r>
       <r>   -0.2849    1.0000 </r>
       <r>    0.2153    1.0000 </r>
       <r>    0.3740    1.0000 </r>
       <r>    0.7280    1.0000 </r>
       <r>    0.7711    1.0000 </r>
       <r>    0.7896    1.0000 </r>
       <r>    0.8267    1.0000 </r>
       <r>    0.9183    1.0000 </r>
       <r>    1.1683    1.0000 </r>
       <r>    1.2277    1.0000 </r>
       <r>    1.2474    1.0000 </r>
       <r>    1.2642    1.0000 </r>
       <r>    1.3899    1.0000 </r>
       <r>    1.4673    1.0000 </r>
       <r>    1.6767    1.0000 </r>
       <r>    1.6950    1.0000 </r>
       <r>    1.7031    1.0000 </r>
       <r>    1.7646    1.0000 </r>
       <r>    1.8373    1.0000 </r>
       <r>    2.0853    1.0000 </r>
       <r>    2.5299    0.5939 </r>
       <r>    2.8450    0.0000 </r>
       <r>    2.8984    0.0000 </r>
       <r>    3.1383    0.0000 </r>
       <r>    5.6578    0.0000 </r>
       <r>    5.8232    0.0000 </r>
       <r>    6.5837    0.0000 </r>
       <r>    7.3489    0.0000 </r>
       <r>    8.0282    0.0000 </r>
       <r>    8.1418    0.0000 </r>
       <r>    8.4911    0.0000 </r>
       <r>    8.5392    0.0000 </r>
       <r>    8.8448    0.0000 </r>
       <r>    9.0656    0.0000 </r>
       <r>    9.1105    0.0000 </r>
       <r>    9.2507    0.0000 </r>
       <r>    9.8001    0.0000 </r>
       <r>    9.8557    0.0000 </r>
       <r>   10.0103    0.0000 </r>
       <r>   10.1403    0.0000 </r>
       <r>   10.3183    0.0000 </r>
       <r>   10.3208    0.0000 </r>
       <r>   10.6524    0.0000 </r>
       <r>   10.7817    0.0000 </r>
      </set>
      <set comment="kpoint 7">
       <r>  -31.4322    1.0000 </r>
       <r>  -31.4198    1.0000 </r>
       <r>  -30.6333    1.0000 </r>
       <r>  -30.6208    1.0000 </r>
       <r>  -14.6750    1.0000 </r>
       <r>  -14.4763    1.0000 </r>
       <r>  -14.3551    1.0000 </r>
       <r>  -14.1502    1.0000 </r>
       <r>  -14.1210    1.0000 </r>
       <r>  -13.9157    1.0000 </r>
       <r>  -13.8648    1.0000 </r>
       <r>  -13.8584    1.0000 </r>
       <r>  -13.6129    1.0000 </r>
       <r>  -13.5048    1.0000 </r>
       <r>  -13.4485    1.0000 </r>
       <r>  -13.3654    1.0000 </r>
       <r>  -13.1581    1.0000 </r>
       <r>  -13.0929    1.0000 </r>
       <r>  -13.0900    1.0000 </r>
       <r>  -12.6754    1.0000 </r>
       <r>  -12.6535    1.0000 </r>
       <r>  -12.5927    1.0000 </r>
       <r>  -12.4710    1.0000 </r>
       <r>  -12.4132    1.0000 </r>
       <r>  -12.3067    1.0000 </r>
       <r>   -3.0280    1.0000 </r>
       <r>   -2.7132    1.0000 </r>
       <r>   -2.6552    1.0000 </r>
       <r>   -2.5533    1.0000 </r>
       <r>   -2.3047    1.0000 </r>
       <r>   -2.1516    1.0000 </r>
       <r>   -1.8645    1.0000 </r>
       <r>   -1.8427    1.0000 </r>
       <r>   -1.8289    1.0000 </r>
       <r>   -1.7407    1.0000 </r>
       <r>   -1.7208    1.0000 </r>
       <r>   -1.6240    1.0000 </r>
       <r>   -1.6150    1.0000 </r>
       <r>   -1.3891    1.0000 </r>
       <r>   -1.3330    1.0000 </r>
       <r>   -1.3047    1.0000 </r>
       <r>   -1.2424    1.0000 </r>
       <r>   -1.1964    1.0000 </r>
       <r>   -1.1680    1.0000 </r>
       <r>   -0.7360    1.0000 </r>
       <r>   -0.4815    1.0000 </r>
       <r>   -0.4745    1.0000 </r>
       <r>   -0.1354    1.0000 </r>
       <r>    0.0599    1.0000 </r>
       <r>    0.3982    1.0000 </r>
       <r>    0.5903    1.0000 </r>
       <r>    0.8450    1.0000 </r>
       <r>    0.9417    1.0000 </r>
       <r>    1.1297    1.0000 </r>
       <r>    1.1675    1.0000 </r>
       <r>    1.3025    1.0000 </r>
       <r>    1.3753    1.0000 </r>
       <r>    1.4198    1.0000 </r>
       <r>    1.4370    1.0000 </r>
       <r>    1.4450    1.0000 </r>
       <r>    1.7594    1.0000 </r>
       <r>    1.7825    1.0000 </r>
       <r>    1.8760    1.0000 </r>
       <r>    1.8770    1.0000 </r>
       <r>    1.9844    1.0000 </r>
       <r>    2.0994    1.0000 </r>
       <r>    2.1236    1.0000 </r>
       <r>    2.4938    0.8960 </r>
       <r>    2.7525    0.0000 </r>
       <r>    3.4306    0.0000 </r>
       <r>    3.4349    0.0000 </r>
       <r>    4.3332    0.0000 </r>
       <r>    4.5187    0.0000 </r>
       <r>    5.9557    0.0000 </r>
       <r>    6.0205    0.0000 </r>
       <r>    7.0937    0.0000 </r>
       <r>    8.0647    0.0000 </r>
       <r>    8.5756    0.0000 </r>
       <r>    8.7267    0.0000 </r>
       <r>    8.9137    0.0000 </r>
       <r>    9.0922    0.0000 </r>
       <r>    9.1764    0.0000 </r>
       <r>    9.2788    0.0000 </r>
       <r>    9.4483    0.0000 </r>
       <r>    9.7674    0.0000 </r>
       <r>    9.8534    0.0000 </r>
       <r>    9.9048    0.0000 </r>
       <r>   10.1939    0.0000 </r>
       <r>   10.2758    0.0000 </r>
       <r>   10.6741    0.0000 </r>
       <r>   10.8642    0.0000 </r>
       <r>   11.1688    0.0000 </r>
      </set>
      <set comment="kpoint 8">
       <r>  -31.4302    1.0000 </r>
       <r>  -31.4214    1.0000 </r>
       <r>  -30.6314    1.0000 </r>
       <r>  -30.6225    1.0000 </r>
       <r>  -14.6091    1.0000 </r>
       <r>  -14.4799    1.0000 </r>
       <r>  -14.4142    1.0000 </r>
       <r>  -14.3394    1.0000 </r>
       <r>  -14.1246    1.0000 </r>
       <r>  -14.0461    1.0000 </r>
       <r>  -13.9697    1.0000 </r>
       <r>  -13.9244    1.0000 </r>
       <r>  -13.7013    1.0000 </r>
       <r>  -13.4220    1.0000 </r>
       <r>  -13.3702    1.0000 </r>
       <r>  -13.2314    1.0000 </r>
       <r>  -13.1450    1.0000 </r>
       <r>  -13.0887    1.0000 </r>
       <r>  -13.0090    1.0000 </r>
       <r>  -12.6186    1.0000 </r>
       <r>  -12.5612    1.0000 </r>
       <r>  -12.4642    1.0000 </r>
       <r>  -12.4458    1.0000 </r>
       <r>  -12.3539    1.0000 </r>
       <r>  -12.3259    1.0000 </r>
       <r>   -2.9580    1.0000 </r>
       <r>   -2.8814    1.0000 </r>
       <r>   -2.6308    1.0000 </r>
       <r>   -2.5521    1.0000 </r>
       <r>   -2.2950    1.0000 </r>
       <r>   -2.1534    1.0000 </r>
       <r>   -2.0698    1.0000 </r>
       <r>   -2.0609    1.0000 </r>
       <r>   -1.8558    1.0000 </r>
       <r>   -1.7694    1.0000 </r>
       <r>   -1.5527    1.0000 </r>
       <r>   -1.5174    1.0000 </r>
       <r>   -1.4884    1.0000 </r>
       <r>   -1.4278    1.0000 </r>
       <r>   -1.3590    1.0000 </r>
       <r>   -1.3196    1.0000 </r>
       <r>   -1.2968    1.0000 </r>
       <r>   -1.0992    1.0000 </r>
       <r>   -1.0498    1.0000 </r>
       <r>   -0.9141    1.0000 </r>
       <r>   -0.8411    1.0000 </r>
       <r>   -0.4006    1.0000 </r>
       <r>   -0.2386    1.0000 </r>
       <r>    0.1202    1.0000 </r>
       <r>    0.5246    1.0000 </r>
       <r>    0.6416    1.0000 </r>
       <r>    0.8151    1.0000 </r>
       <r>    0.9717    1.0000 </r>
       <r>    1.0894    1.0000 </r>
       <r>    1.1951    1.0000 </r>
       <r>    1.2260    1.0000 </r>
       <r>    1.3362    1.0000 </r>
       <r>    1.3457    1.0000 </r>
       <r>    1.3952    1.0000 </r>
       <r>    1.4492    1.0000 </r>
       <r>    1.5993    1.0000 </r>
       <r>    1.6373    1.0000 </r>
       <r>    1.8200    1.0000 </r>
       <r>    1.8937    1.0000 </r>
       <r>    2.0308    1.0000 </r>
       <r>    2.1660    1.0000 </r>
       <r>    2.2984    1.0000 </r>
       <r>    2.3850    1.0000 </r>
       <r>    2.5690    0.1923 </r>
       <r>    2.8597    0.0000 </r>
       <r>    3.9932    0.0000 </r>
       <r>    4.1905    0.0000 </r>
       <r>    5.0147    0.0000 </r>
       <r>    6.1445    0.0000 </r>
       <r>    6.2677    0.0000 </r>
       <r>    7.4226    0.0000 </r>
       <r>    8.3277    0.0000 </r>
       <r>    8.6357    0.0000 </r>
       <r>    8.7164    0.0000 </r>
       <r>    8.8155    0.0000 </r>
       <r>    9.1219    0.0000 </r>
       <r>    9.1918    0.0000 </r>
       <r>    9.5239    0.0000 </r>
       <r>    9.6801    0.0000 </r>
       <r>    9.8626    0.0000 </r>
       <r>    9.9705    0.0000 </r>
       <r>   10.1115    0.0000 </r>
       <r>   10.3602    0.0000 </r>
       <r>   10.6714    0.0000 </r>
       <r>   10.7224    0.0000 </r>
       <r>   10.8417    0.0000 </r>
       <r>   10.9949    0.0000 </r>
      </set>
      <set comment="kpoint 9">
       <r>  -31.4258    1.0000 </r>
       <r>  -31.4256    1.0000 </r>
       <r>  -30.6269    1.0000 </r>
       <r>  -30.6267    1.0000 </r>
       <r>  -14.5493    1.0000 </r>
       <r>  -14.4903    1.0000 </r>
       <r>  -14.4516    1.0000 </r>
       <r>  -14.4448    1.0000 </r>
       <r>  -14.2261    1.0000 </r>
       <r>  -14.0701    1.0000 </r>
       <r>  -14.0459    1.0000 </r>
       <r>  -13.9009    1.0000 </r>
       <r>  -13.8872    1.0000 </r>
       <r>  -13.3809    1.0000 </r>
       <r>  -13.3722    1.0000 </r>
       <r>  -13.1820    1.0000 </r>
       <r>  -13.0888    1.0000 </r>
       <r>  -13.0215    1.0000 </r>
       <r>  -12.9139    1.0000 </r>
       <r>  -12.5540    1.0000 </r>
       <r>  -12.4738    1.0000 </r>
       <r>  -12.4618    1.0000 </r>
       <r>  -12.4010    1.0000 </r>
       <r>  -12.3170    1.0000 </r>
       <r>  -12.2510    1.0000 </r>
       <r>   -3.1165    1.0000 </r>
       <r>   -2.7200    1.0000 </r>
       <r>   -2.6555    1.0000 </r>
       <r>   -2.5479    1.0000 </r>
       <r>   -2.2904    1.0000 </r>
       <r>   -2.2163    1.0000 </r>
       <r>   -2.1542    1.0000 </r>
       <r>   -1.8670    1.0000 </r>
       <r>   -1.8424    1.0000 </r>
       <r>   -1.8024    1.0000 </r>
       <r>   -1.7272    1.0000 </r>
       <r>   -1.7146    1.0000 </r>
       <r>   -1.4443    1.0000 </r>
       <r>   -1.4157    1.0000 </r>
       <r>   -1.4132    1.0000 </r>
       <r>   -1.4060    1.0000 </r>
       <r>   -1.3752    1.0000 </r>
       <r>   -1.3411    1.0000 </r>
       <r>   -1.1532    1.0000 </r>
       <r>   -0.8399    1.0000 </r>
       <r>   -0.4537    1.0000 </r>
       <r>   -0.2558    1.0000 </r>
       <r>   -0.2540    1.0000 </r>
       <r>    0.0027    1.0000 </r>
       <r>    0.5761    1.0000 </r>
       <r>    0.7797    1.0000 </r>
       <r>    0.9272    1.0000 </r>
       <r>    0.9980    1.0000 </r>
       <r>    1.0208    1.0000 </r>
       <r>    1.0917    1.0000 </r>
       <r>    1.1341    1.0000 </r>
       <r>    1.2357    1.0000 </r>
       <r>    1.3381    1.0000 </r>
       <r>    1.3479    1.0000 </r>
       <r>    1.3936    1.0000 </r>
       <r>    1.5275    1.0000 </r>
       <r>    1.5378    1.0000 </r>
       <r>    1.6096    1.0000 </r>
       <r>    1.7126    1.0000 </r>
       <r>    1.9289    1.0000 </r>
       <r>    2.0407    1.0000 </r>
       <r>    2.1674    1.0000 </r>
       <r>    2.4429    0.9965 </r>
       <r>    2.7769    0.0000 </r>
       <r>    3.4048    0.0000 </r>
       <r>    3.4594    0.0000 </r>
       <r>    4.3282    0.0000 </r>
       <r>    5.9342    0.0000 </r>
       <r>    5.9991    0.0000 </r>
       <r>    6.5244    0.0000 </r>
       <r>    8.0281    0.0000 </r>
       <r>    8.0791    0.0000 </r>
       <r>    8.6255    0.0000 </r>
       <r>    8.6971    0.0000 </r>
       <r>    8.7734    0.0000 </r>
       <r>    9.0002    0.0000 </r>
       <r>    9.0220    0.0000 </r>
       <r>    9.6145    0.0000 </r>
       <r>    9.6950    0.0000 </r>
       <r>   10.1442    0.0000 </r>
       <r>   10.1952    0.0000 </r>
       <r>   10.2484    0.0000 </r>
       <r>   10.6605    0.0000 </r>
       <r>   10.7767    0.0000 </r>
       <r>   10.9015    0.0000 </r>
       <r>   11.1072    0.0000 </r>
       <r>   11.1527    0.0000 </r>
      </set>
      <set comment="kpoint 10">
       <r>  -31.4441    1.0000 </r>
       <r>  -31.4310    1.0000 </r>
       <r>  -30.6460    1.0000 </r>
       <r>  -30.6322    1.0000 </r>
       <r>  -14.7315    1.0000 </r>
       <r>  -14.6861    1.0000 </r>
       <r>  -14.5172    1.0000 </r>
       <r>  -14.5080    1.0000 </r>
       <r>  -14.0115    1.0000 </r>
       <r>  -13.9922    1.0000 </r>
       <r>  -13.7500    1.0000 </r>
       <r>  -13.6746    1.0000 </r>
       <r>  -13.6723    1.0000 </r>
       <r>  -13.4509    1.0000 </r>
       <r>  -13.4356    1.0000 </r>
       <r>  -13.4237    1.0000 </r>
       <r>  -13.3127    1.0000 </r>
       <r>  -13.0185    1.0000 </r>
       <r>  -12.8232    1.0000 </r>
       <r>  -12.6200    1.0000 </r>
       <r>  -12.6064    1.0000 </r>
       <r>  -12.5844    1.0000 </r>
       <r>  -12.4468    1.0000 </r>
       <r>  -12.3799    1.0000 </r>
       <r>  -12.2279    1.0000 </r>
       <r>   -2.5422    1.0000 </r>
       <r>   -2.3938    1.0000 </r>
       <r>   -2.1765    1.0000 </r>
       <r>   -1.8458    1.0000 </r>
       <r>   -1.5195    1.0000 </r>
       <r>   -1.4108    1.0000 </r>
       <r>   -1.3786    1.0000 </r>
       <r>   -1.2994    1.0000 </r>
       <r>   -1.2085    1.0000 </r>
       <r>   -1.2029    1.0000 </r>
       <r>   -1.0743    1.0000 </r>
       <r>   -0.9880    1.0000 </r>
       <r>   -0.9586    1.0000 </r>
       <r>   -0.8965    1.0000 </r>
       <r>   -0.8463    1.0000 </r>
       <r>   -0.7108    1.0000 </r>
       <r>   -0.6804    1.0000 </r>
       <r>   -0.6767    1.0000 </r>
       <r>   -0.6532    1.0000 </r>
       <r>   -0.5777    1.0000 </r>
       <r>   -0.4624    1.0000 </r>
       <r>   -0.3907    1.0000 </r>
       <r>   -0.2632    1.0000 </r>
       <r>   -0.2431    1.0000 </r>
       <r>    0.0934    1.0000 </r>
       <r>    0.1924    1.0000 </r>
       <r>    0.2065    1.0000 </r>
       <r>    0.4927    1.0000 </r>
       <r>    0.7884    1.0000 </r>
       <r>    0.7903    1.0000 </r>
       <r>    0.9226    1.0000 </r>
       <r>    1.0510    1.0000 </r>
       <r>    1.1173    1.0000 </r>
       <r>    1.1517    1.0000 </r>
       <r>    1.3014    1.0000 </r>
       <r>    1.3051    1.0000 </r>
       <r>    1.3815    1.0000 </r>
       <r>    1.6311    1.0000 </r>
       <r>    1.6737    1.0000 </r>
       <r>    1.7513    1.0000 </r>
       <r>    1.7666    1.0000 </r>
       <r>    1.8382    1.0000 </r>
       <r>    1.8409    1.0000 </r>
       <r>    2.0476    1.0000 </r>
       <r>    2.0860    1.0000 </r>
       <r>    2.1089    1.0000 </r>
       <r>    3.1203    0.0000 </r>
       <r>    4.2532    0.0000 </r>
       <r>    4.8995    0.0000 </r>
       <r>    6.3519    0.0000 </r>
       <r>    7.4224    0.0000 </r>
       <r>    7.8398    0.0000 </r>
       <r>    8.0972    0.0000 </r>
       <r>    8.1075    0.0000 </r>
       <r>    8.3672    0.0000 </r>
       <r>    8.3974    0.0000 </r>
       <r>    8.7396    0.0000 </r>
       <r>    8.9860    0.0000 </r>
       <r>    9.2678    0.0000 </r>
       <r>    9.3270    0.0000 </r>
       <r>    9.8465    0.0000 </r>
       <r>    9.8489    0.0000 </r>
       <r>    9.9892    0.0000 </r>
       <r>   10.1509    0.0000 </r>
       <r>   10.2562    0.0000 </r>
       <r>   10.4424    0.0000 </r>
       <r>   10.4455    0.0000 </r>
      </set>
      <set comment="kpoint 11">
       <r>  -31.4420    1.0000 </r>
       <r>  -31.4327    1.0000 </r>
       <r>  -30.6438    1.0000 </r>
       <r>  -30.6341    1.0000 </r>
       <r>  -14.9121    1.0000 </r>
       <r>  -14.7477    1.0000 </r>
       <r>  -14.6410    1.0000 </r>
       <r>  -14.4713    1.0000 </r>
       <r>  -14.1268    1.0000 </r>
       <r>  -13.8324    1.0000 </r>
       <r>  -13.7281    1.0000 </r>
       <r>  -13.6813    1.0000 </r>
       <r>  -13.5482    1.0000 </r>
       <r>  -13.4470    1.0000 </r>
       <r>  -13.4272    1.0000 </r>
       <r>  -13.3917    1.0000 </r>
       <r>  -13.2145    1.0000 </r>
       <r>  -13.0444    1.0000 </r>
       <r>  -12.7915    1.0000 </r>
       <r>  -12.6147    1.0000 </r>
       <r>  -12.5966    1.0000 </r>
       <r>  -12.5896    1.0000 </r>
       <r>  -12.3858    1.0000 </r>
       <r>  -12.3558    1.0000 </r>
       <r>  -12.1868    1.0000 </r>
       <r>   -2.6511    1.0000 </r>
       <r>   -2.1934    1.0000 </r>
       <r>   -1.9406    1.0000 </r>
       <r>   -1.9356    1.0000 </r>
       <r>   -1.6975    1.0000 </r>
       <r>   -1.4371    1.0000 </r>
       <r>   -1.3939    1.0000 </r>
       <r>   -1.2988    1.0000 </r>
       <r>   -1.2103    1.0000 </r>
       <r>   -1.1585    1.0000 </r>
       <r>   -1.0789    1.0000 </r>
       <r>   -0.8964    1.0000 </r>
       <r>   -0.8679    1.0000 </r>
       <r>   -0.8594    1.0000 </r>
       <r>   -0.8507    1.0000 </r>
       <r>   -0.7876    1.0000 </r>
       <r>   -0.7013    1.0000 </r>
       <r>   -0.6919    1.0000 </r>
       <r>   -0.6730    1.0000 </r>
       <r>   -0.5549    1.0000 </r>
       <r>   -0.4720    1.0000 </r>
       <r>   -0.4675    1.0000 </r>
       <r>   -0.3613    1.0000 </r>
       <r>   -0.3318    1.0000 </r>
       <r>   -0.2027    1.0000 </r>
       <r>    0.0832    1.0000 </r>
       <r>    0.3412    1.0000 </r>
       <r>    0.4299    1.0000 </r>
       <r>    0.5933    1.0000 </r>
       <r>    0.7700    1.0000 </r>
       <r>    0.7817    1.0000 </r>
       <r>    0.8901    1.0000 </r>
       <r>    0.9276    1.0000 </r>
       <r>    1.0839    1.0000 </r>
       <r>    1.3171    1.0000 </r>
       <r>    1.4083    1.0000 </r>
       <r>    1.5662    1.0000 </r>
       <r>    1.6315    1.0000 </r>
       <r>    1.7309    1.0000 </r>
       <r>    1.7468    1.0000 </r>
       <r>    1.7628    1.0000 </r>
       <r>    1.7737    1.0000 </r>
       <r>    1.8504    1.0000 </r>
       <r>    2.0079    1.0000 </r>
       <r>    2.0375    1.0000 </r>
       <r>    2.0446    1.0000 </r>
       <r>    2.8096    0.0000 </r>
       <r>    4.7000    0.0000 </r>
       <r>    5.3457    0.0000 </r>
       <r>    6.4484    0.0000 </r>
       <r>    7.3097    0.0000 </r>
       <r>    7.9039    0.0000 </r>
       <r>    8.2501    0.0000 </r>
       <r>    8.3869    0.0000 </r>
       <r>    8.4414    0.0000 </r>
       <r>    8.5774    0.0000 </r>
       <r>    8.7577    0.0000 </r>
       <r>    8.9676    0.0000 </r>
       <r>    9.2328    0.0000 </r>
       <r>    9.4633    0.0000 </r>
       <r>    9.8456    0.0000 </r>
       <r>    9.8888    0.0000 </r>
       <r>   10.0525    0.0000 </r>
       <r>   10.2689    0.0000 </r>
       <r>   10.2984    0.0000 </r>
       <r>   10.4070    0.0000 </r>
       <r>   10.5091    0.0000 </r>
      </set>
      <set comment="kpoint 12">
       <r>  -31.4373    1.0000 </r>
       <r>  -31.4371    1.0000 </r>
       <r>  -30.6389    1.0000 </r>
       <r>  -30.6387    1.0000 </r>
       <r>  -15.0226    1.0000 </r>
       <r>  -14.8348    1.0000 </r>
       <r>  -14.6534    1.0000 </r>
       <r>  -14.6124    1.0000 </r>
       <r>  -13.9520    1.0000 </r>
       <r>  -13.9364    1.0000 </r>
       <r>  -13.7343    1.0000 </r>
       <r>  -13.5822    1.0000 </r>
       <r>  -13.5427    1.0000 </r>
       <r>  -13.4402    1.0000 </r>
       <r>  -13.4335    1.0000 </r>
       <r>  -13.3207    1.0000 </r>
       <r>  -13.1379    1.0000 </r>
       <r>  -13.0239    1.0000 </r>
       <r>  -12.7891    1.0000 </r>
       <r>  -12.6026    1.0000 </r>
       <r>  -12.6016    1.0000 </r>
       <r>  -12.5860    1.0000 </r>
       <r>  -12.3467    1.0000 </r>
       <r>  -12.2956    1.0000 </r>
       <r>  -12.1445    1.0000 </r>
       <r>   -2.4818    1.0000 </r>
       <r>   -2.4249    1.0000 </r>
       <r>   -2.1778    1.0000 </r>
       <r>   -1.4941    1.0000 </r>
       <r>   -1.3438    1.0000 </r>
       <r>   -1.3325    1.0000 </r>
       <r>   -1.3225    1.0000 </r>
       <r>   -1.2917    1.0000 </r>
       <r>   -1.2170    1.0000 </r>
       <r>   -1.2000    1.0000 </r>
       <r>   -1.1741    1.0000 </r>
       <r>   -1.1447    1.0000 </r>
       <r>   -1.0556    1.0000 </r>
       <r>   -0.9891    1.0000 </r>
       <r>   -0.8910    1.0000 </r>
       <r>   -0.7213    1.0000 </r>
       <r>   -0.6920    1.0000 </r>
       <r>   -0.6736    1.0000 </r>
       <r>   -0.6342    1.0000 </r>
       <r>   -0.6177    1.0000 </r>
       <r>   -0.5657    1.0000 </r>
       <r>   -0.4809    1.0000 </r>
       <r>   -0.4587    1.0000 </r>
       <r>   -0.4317    1.0000 </r>
       <r>   -0.2719    1.0000 </r>
       <r>    0.0643    1.0000 </r>
       <r>    0.2634    1.0000 </r>
       <r>    0.4227    1.0000 </r>
       <r>    0.4240    1.0000 </r>
       <r>    0.6952    1.0000 </r>
       <r>    0.7370    1.0000 </r>
       <r>    0.7716    1.0000 </r>
       <r>    0.8276    1.0000 </r>
       <r>    0.9716    1.0000 </r>
       <r>    1.3723    1.0000 </r>
       <r>    1.4536    1.0000 </r>
       <r>    1.6408    1.0000 </r>
       <r>    1.6425    1.0000 </r>
       <r>    1.7483    1.0000 </r>
       <r>    1.8171    1.0000 </r>
       <r>    1.8221    1.0000 </r>
       <r>    1.8438    1.0000 </r>
       <r>    1.8762    1.0000 </r>
       <r>    1.8924    1.0000 </r>
       <r>    1.9107    1.0000 </r>
       <r>    2.0065    1.0000 </r>
       <r>    2.4745    0.9644 </r>
       <r>    5.5759    0.0000 </r>
       <r>    5.6755    0.0000 </r>
       <r>    6.2977    0.0000 </r>
       <r>    6.9513    0.0000 </r>
       <r>    8.0052    0.0000 </r>
       <r>    8.0823    0.0000 </r>
       <r>    8.4860    0.0000 </r>
       <r>    8.7297    0.0000 </r>
       <r>    8.8720    0.0000 </r>
       <r>    9.0016    0.0000 </r>
       <r>    9.0483    0.0000 </r>
       <r>    9.2001    0.0000 </r>
       <r>    9.5423    0.0000 </r>
       <r>    9.6000    0.0000 </r>
       <r>    9.9154    0.0000 </r>
       <r>    9.9541    0.0000 </r>
       <r>   10.0833    0.0000 </r>
       <r>   10.3515    0.0000 </r>
       <r>   10.5367    0.0000 </r>
       <r>   10.5450    0.0000 </r>
      </set>
      <set comment="kpoint 13">
       <r>  -31.4396    1.0000 </r>
       <r>  -31.4267    1.0000 </r>
       <r>  -30.6411    1.0000 </r>
       <r>  -30.6279    1.0000 </r>
       <r>  -14.6793    1.0000 </r>
       <r>  -14.6292    1.0000 </r>
       <r>  -14.4147    1.0000 </r>
       <r>  -14.4048    1.0000 </r>
       <r>  -14.0154    1.0000 </r>
       <r>  -13.9717    1.0000 </r>
       <r>  -13.8646    1.0000 </r>
       <r>  -13.7757    1.0000 </r>
       <r>  -13.7322    1.0000 </r>
       <r>  -13.4599    1.0000 </r>
       <r>  -13.4364    1.0000 </r>
       <r>  -13.3197    1.0000 </r>
       <r>  -13.2566    1.0000 </r>
       <r>  -13.0197    1.0000 </r>
       <r>  -12.9262    1.0000 </r>
       <r>  -12.6412    1.0000 </r>
       <r>  -12.5886    1.0000 </r>
       <r>  -12.5823    1.0000 </r>
       <r>  -12.4284    1.0000 </r>
       <r>  -12.3916    1.0000 </r>
       <r>  -12.3159    1.0000 </r>
       <r>   -2.5675    1.0000 </r>
       <r>   -2.4626    1.0000 </r>
       <r>   -2.1730    1.0000 </r>
       <r>   -1.7953    1.0000 </r>
       <r>   -1.7938    1.0000 </r>
       <r>   -1.6844    1.0000 </r>
       <r>   -1.6688    1.0000 </r>
       <r>   -1.6424    1.0000 </r>
       <r>   -1.4733    1.0000 </r>
       <r>   -1.4704    1.0000 </r>
       <r>   -1.4269    1.0000 </r>
       <r>   -1.3575    1.0000 </r>
       <r>   -1.3241    1.0000 </r>
       <r>   -1.2779    1.0000 </r>
       <r>   -1.1078    1.0000 </r>
       <r>   -1.0331    1.0000 </r>
       <r>   -1.0050    1.0000 </r>
       <r>   -0.9939    1.0000 </r>
       <r>   -0.9805    1.0000 </r>
       <r>   -0.9508    1.0000 </r>
       <r>   -0.8289    1.0000 </r>
       <r>   -0.4539    1.0000 </r>
       <r>   -0.2755    1.0000 </r>
       <r>    0.0696    1.0000 </r>
       <r>    0.4221    1.0000 </r>
       <r>    0.4625    1.0000 </r>
       <r>    0.6117    1.0000 </r>
       <r>    0.9560    1.0000 </r>
       <r>    1.0585    1.0000 </r>
       <r>    1.0646    1.0000 </r>
       <r>    1.1443    1.0000 </r>
       <r>    1.2317    1.0000 </r>
       <r>    1.2337    1.0000 </r>
       <r>    1.2972    1.0000 </r>
       <r>    1.3500    1.0000 </r>
       <r>    1.3890    1.0000 </r>
       <r>    1.4218    1.0000 </r>
       <r>    1.4727    1.0000 </r>
       <r>    1.6858    1.0000 </r>
       <r>    1.7403    1.0000 </r>
       <r>    1.8677    1.0000 </r>
       <r>    1.9928    1.0000 </r>
       <r>    2.3229    1.0000 </r>
       <r>    2.4703    0.9727 </r>
       <r>    2.5799    0.1196 </r>
       <r>    3.1715    0.0000 </r>
       <r>    3.2444    0.0000 </r>
       <r>    4.7896    0.0000 </r>
       <r>    5.3336    0.0000 </r>
       <r>    5.5776    0.0000 </r>
       <r>    7.6425    0.0000 </r>
       <r>    8.0205    0.0000 </r>
       <r>    8.2475    0.0000 </r>
       <r>    8.4771    0.0000 </r>
       <r>    8.5321    0.0000 </r>
       <r>    8.5880    0.0000 </r>
       <r>    8.7587    0.0000 </r>
       <r>    8.9275    0.0000 </r>
       <r>    9.3338    0.0000 </r>
       <r>    9.6501    0.0000 </r>
       <r>    9.6517    0.0000 </r>
       <r>    9.9654    0.0000 </r>
       <r>   10.1098    0.0000 </r>
       <r>   10.1999    0.0000 </r>
       <r>   10.2997    0.0000 </r>
       <r>   10.4102    0.0000 </r>
       <r>   10.4435    0.0000 </r>
      </set>
      <set comment="kpoint 14">
       <r>  -31.4375    1.0000 </r>
       <r>  -31.4284    1.0000 </r>
       <r>  -30.6391    1.0000 </r>
       <r>  -30.6297    1.0000 </r>
       <r>  -14.7940    1.0000 </r>
       <r>  -14.6281    1.0000 </r>
       <r>  -14.5836    1.0000 </r>
       <r>  -14.3966    1.0000 </r>
       <r>  -14.1626    1.0000 </r>
       <r>  -14.0136    1.0000 </r>
       <r>  -13.7894    1.0000 </r>
       <r>  -13.7208    1.0000 </r>
       <r>  -13.6540    1.0000 </r>
       <r>  -13.4159    1.0000 </r>
       <r>  -13.3961    1.0000 </r>
       <r>  -13.2862    1.0000 </r>
       <r>  -13.1902    1.0000 </r>
       <r>  -13.0588    1.0000 </r>
       <r>  -12.8746    1.0000 </r>
       <r>  -12.6364    1.0000 </r>
       <r>  -12.5865    1.0000 </r>
       <r>  -12.5016    1.0000 </r>
       <r>  -12.3837    1.0000 </r>
       <r>  -12.3744    1.0000 </r>
       <r>  -12.2611    1.0000 </r>
       <r>   -2.7182    1.0000 </r>
       <r>   -2.1885    1.0000 </r>
       <r>   -2.0276    1.0000 </r>
       <r>   -1.9756    1.0000 </r>
       <r>   -1.7838    1.0000 </r>
       <r>   -1.7389    1.0000 </r>
       <r>   -1.7040    1.0000 </r>
       <r>   -1.6097    1.0000 </r>
       <r>   -1.5908    1.0000 </r>
       <r>   -1.5004    1.0000 </r>
       <r>   -1.4288    1.0000 </r>
       <r>   -1.3503    1.0000 </r>
       <r>   -1.3264    1.0000 </r>
       <r>   -1.2954    1.0000 </r>
       <r>   -1.1689    1.0000 </r>
       <r>   -1.1458    1.0000 </r>
       <r>   -1.1017    1.0000 </r>
       <r>   -1.0664    1.0000 </r>
       <r>   -0.9968    1.0000 </r>
       <r>   -0.7942    1.0000 </r>
       <r>   -0.5422    1.0000 </r>
       <r>   -0.4919    1.0000 </r>
       <r>   -0.2579    1.0000 </r>
       <r>   -0.1157    1.0000 </r>
       <r>    0.0684    1.0000 </r>
       <r>    0.5323    1.0000 </r>
       <r>    0.7606    1.0000 </r>
       <r>    0.7755    1.0000 </r>
       <r>    0.9509    1.0000 </r>
       <r>    0.9893    1.0000 </r>
       <r>    1.0568    1.0000 </r>
       <r>    1.1023    1.0000 </r>
       <r>    1.1838    1.0000 </r>
       <r>    1.2706    1.0000 </r>
       <r>    1.3491    1.0000 </r>
       <r>    1.3721    1.0000 </r>
       <r>    1.4876    1.0000 </r>
       <r>    1.5062    1.0000 </r>
       <r>    1.7276    1.0000 </r>
       <r>    1.7822    1.0000 </r>
       <r>    1.8413    1.0000 </r>
       <r>    1.9001    1.0000 </r>
       <r>    2.0876    1.0000 </r>
       <r>    2.5137    0.7568 </r>
       <r>    2.8702    0.0000 </r>
       <r>    2.8880    0.0000 </r>
       <r>    3.1982    0.0000 </r>
       <r>    5.1723    0.0000 </r>
       <r>    5.6100    0.0000 </r>
       <r>    5.9231    0.0000 </r>
       <r>    7.7225    0.0000 </r>
       <r>    8.0972    0.0000 </r>
       <r>    8.3102    0.0000 </r>
       <r>    8.4154    0.0000 </r>
       <r>    8.6632    0.0000 </r>
       <r>    8.7591    0.0000 </r>
       <r>    8.9168    0.0000 </r>
       <r>    9.1169    0.0000 </r>
       <r>    9.3973    0.0000 </r>
       <r>    9.4503    0.0000 </r>
       <r>    9.6673    0.0000 </r>
       <r>    9.9260    0.0000 </r>
       <r>   10.2105    0.0000 </r>
       <r>   10.2915    0.0000 </r>
       <r>   10.3448    0.0000 </r>
       <r>   10.3634    0.0000 </r>
       <r>   10.7231    0.0000 </r>
      </set>
      <set comment="kpoint 15">
       <r>  -31.4328    1.0000 </r>
       <r>  -31.4328    1.0000 </r>
       <r>  -30.6343    1.0000 </r>
       <r>  -30.6341    1.0000 </r>
       <r>  -14.8821    1.0000 </r>
       <r>  -14.7047    1.0000 </r>
       <r>  -14.5700    1.0000 </r>
       <r>  -14.5429    1.0000 </r>
       <r>  -14.1468    1.0000 </r>
       <r>  -14.0425    1.0000 </r>
       <r>  -13.7481    1.0000 </r>
       <r>  -13.7011    1.0000 </r>
       <r>  -13.6711    1.0000 </r>
       <r>  -13.3969    1.0000 </r>
       <r>  -13.3443    1.0000 </r>
       <r>  -13.2645    1.0000 </r>
       <r>  -13.1438    1.0000 </r>
       <r>  -13.0471    1.0000 </r>
       <r>  -12.8218    1.0000 </r>
       <r>  -12.5834    1.0000 </r>
       <r>  -12.5636    1.0000 </r>
       <r>  -12.5094    1.0000 </r>
       <r>  -12.3922    1.0000 </r>
       <r>  -12.2894    1.0000 </r>
       <r>  -12.1943    1.0000 </r>
       <r>   -2.5347    1.0000 </r>
       <r>   -2.5254    1.0000 </r>
       <r>   -2.1733    1.0000 </r>
       <r>   -1.7932    1.0000 </r>
       <r>   -1.7534    1.0000 </r>
       <r>   -1.7057    1.0000 </r>
       <r>   -1.6726    1.0000 </r>
       <r>   -1.5810    1.0000 </r>
       <r>   -1.5226    1.0000 </r>
       <r>   -1.4506    1.0000 </r>
       <r>   -1.4499    1.0000 </r>
       <r>   -1.3678    1.0000 </r>
       <r>   -1.3335    1.0000 </r>
       <r>   -1.2917    1.0000 </r>
       <r>   -1.2662    1.0000 </r>
       <r>   -1.1160    1.0000 </r>
       <r>   -1.0642    1.0000 </r>
       <r>   -1.0354    1.0000 </r>
       <r>   -0.9429    1.0000 </r>
       <r>   -0.9330    1.0000 </r>
       <r>   -0.8861    1.0000 </r>
       <r>   -0.4088    1.0000 </r>
       <r>   -0.3382    1.0000 </r>
       <r>   -0.1081    1.0000 </r>
       <r>   -0.0674    1.0000 </r>
       <r>    0.5703    1.0000 </r>
       <r>    0.6899    1.0000 </r>
       <r>    0.8632    1.0000 </r>
       <r>    0.8639    1.0000 </r>
       <r>    0.9447    1.0000 </r>
       <r>    0.9560    1.0000 </r>
       <r>    0.9968    1.0000 </r>
       <r>    1.0390    1.0000 </r>
       <r>    1.1076    1.0000 </r>
       <r>    1.3197    1.0000 </r>
       <r>    1.4099    1.0000 </r>
       <r>    1.4478    1.0000 </r>
       <r>    1.5673    1.0000 </r>
[...]
       <r>     2.5183     4.9727    68.9830 </r>
       <r>     2.6746     3.4501    69.5221 </r>
       <r>     2.8308     1.9051    69.8198 </r>
       <r>     2.9870     3.3816    70.3481 </r>
       <r>     3.1433     1.6442    70.6050 </r>
       <r>     3.2995     2.2254    70.9528 </r>
       <r>     3.4558     1.9994    71.2652 </r>
       <r>     3.6120     0.8630    71.4000 </r>
       <r>     3.7683     0.0000    71.4000 </r>
       <r>     3.9245     0.1466    71.4229 </r>
       <r>     4.0808     1.2862    71.6239 </r>
       <r>     4.2370     1.2248    71.8152 </r>
       <r>     4.3933     1.4607    72.0435 </r>
       <r>     4.5495     0.6175    72.1399 </r>
       <r>     4.7058     0.5879    72.2318 </r>
       <r>     4.8620     0.7730    72.3526 </r>
       <r>     5.0183     0.7741    72.4735 </r>
       <r>     5.1745     1.5302    72.7126 </r>
       <r>     5.3308     0.6620    72.8161 </r>
       <r>     5.4870     0.8211    72.9444 </r>
       <r>     5.6433     1.8776    73.2377 </r>
       <r>     5.7995     1.9774    73.5467 </r>
       <r>     5.9558     2.2123    73.8924 </r>
       <r>     6.1120     2.6491    74.3063 </r>
       <r>     6.2683     1.5479    74.5481 </r>
       <r>     6.4245     1.8471    74.8367 </r>
       <r>     6.5808     0.7387    74.9522 </r>
       <r>     6.7370     0.3062    75.0000 </r>
       <r>     6.8932     0.1062    75.0166 </r>
       <r>     7.0495     0.2472    75.0552 </r>
       <r>     7.2057     0.3250    75.1060 </r>
       <r>     7.3620     1.2820    75.3063 </r>
       <r>     7.5182     1.5681    75.5513 </r>
       <r>     7.6745     1.4002    75.7701 </r>
       <r>     7.8307     1.6074    76.0212 </r>
       <r>     7.9870     1.7149    76.2892 </r>
       <r>     8.1432     4.2657    76.9557 </r>
       <r>     8.2995     2.9666    77.4192 </r>
       <r>     8.4557     4.7461    78.1608 </r>
       <r>     8.6120     4.5073    78.8650 </r>
       <r>     8.7682     7.0599    79.9681 </r>
       <r>     8.9245     4.7305    80.7073 </r>
       <r>     9.0807     6.4960    81.7223 </r>
       <r>     9.2370     5.8115    82.6303 </r>
       <r>     9.3932     4.1411    83.2773 </r>
       <r>     9.5495     4.7048    84.0125 </r>
       <r>     9.7057     4.5832    84.7286 </r>
       <r>     9.8620     5.5558    85.5966 </r>
       <r>    10.0182     5.8833    86.5159 </r>
       <r>    10.1745     5.6352    87.3964 </r>
       <r>    10.3307     7.8296    88.6197 </r>
       <r>    10.4870     6.8021    89.6826 </r>
       <r>    10.6432     4.0691    90.3184 </r>
       <r>    10.7994     6.4224    91.3218 </r>
       <r>    10.9557     2.3360    91.6868 </r>
       <r>    11.1119     1.2612    91.8839 </r>
       <r>    11.2682     0.7420    91.9998 </r>
       <r>    11.4244     0.0010    92.0000 </r>
       <r>    11.5807     0.0000    92.0000 </r>
       <r>    11.7369     0.0000    92.0000 </r>
       <r>    11.8932     0.0000    92.0000 </r>
       <r>    12.0494     0.0000    92.0000 </r>
       <r>    12.2057     0.0000    92.0000 </r>
       <r>    12.3619     0.0000    92.0000 </r>
       <r>    12.5182     0.0000    92.0000 </r>
       <r>    12.6744     0.0000    92.0000 </r>
       <r>    12.8307     0.0000    92.0000 </r>
       <r>    12.9869     0.0000    92.0000 </r>
       <r>    13.1432     0.0000    92.0000 </r>
       <r>    13.2994     0.0000    92.0000 </r>
      </set>
      <set comment="spin 2">
       <r>   -33.5750     0.0000     0.0000 </r>
       <r>   -33.4187     0.0000     0.0000 </r>
       <r>   -33.2625     0.0000     0.0000 </r>
       <r>   -33.1062     0.0000     0.0000 </r>
       <r>   -32.9500     0.0000     0.0000 </r>
       <r>   -32.7937     0.0000     0.0000 </r>
       <r>   -32.6375     0.0000     0.0000 </r>
       <r>   -32.4812     0.0000     0.0000 </r>
       <r>   -32.3250     0.0000     0.0000 </r>
       <r>   -32.1688     0.0000     0.0000 </r>
       <r>   -32.0125     0.0000     0.0000 </r>
       <r>   -31.8563     0.0000     0.0000 </r>
       <r>   -31.7000     0.0000     0.0000 </r>
       <r>   -31.5438     0.0111     0.0017 </r>
       <r>   -31.3875    11.3556     1.7760 </r>
       <r>   -31.2313     1.4335     2.0000 </r>
       <r>   -31.0750     0.0000     2.0000 </r>
       <r>   -30.9188     0.0000     2.0000 </r>
       <r>   -30.7625     0.0021     2.0003 </r>
       <r>   -30.6063     9.8898     3.5456 </r>
       <r>   -30.4500     2.9083     4.0000 </r>
       <r>   -30.2938     0.0000     4.0000 </r>
       <r>   -30.1375     0.0000     4.0000 </r>
       <r>   -29.9813     0.0000     4.0000 </r>
       <r>   -29.8250     0.0000     4.0000 </r>
       <r>   -29.6688     0.0000     4.0000 </r>
       <r>   -29.5125     0.0000     4.0000 </r>
       <r>   -29.3563     0.0000     4.0000 </r>
       <r>   -29.2000     0.0000     4.0000 </r>
       <r>   -29.0438     0.0000     4.0000 </r>
       <r>   -28.8875     0.0000     4.0000 </r>
       <r>   -28.7313     0.0000     4.0000 </r>
       <r>   -28.5750     0.0000     4.0000 </r>
       <r>   -28.4188     0.0000     4.0000 </r>
       <r>   -28.2626     0.0000     4.0000 </r>
       <r>   -28.1063     0.0000     4.0000 </r>
       <r>   -27.9501     0.0000     4.0000 </r>
       <r>   -27.7938     0.0000     4.0000 </r>
       <r>   -27.6376     0.0000     4.0000 </r>
       <r>   -27.4813     0.0000     4.0000 </r>
       <r>   -27.3251     0.0000     4.0000 </r>
       <r>   -27.1688     0.0000     4.0000 </r>
       <r>   -27.0126     0.0000     4.0000 </r>
       <r>   -26.8563     0.0000     4.0000 </r>
       <r>   -26.7001     0.0000     4.0000 </r>
       <r>   -26.5438     0.0000     4.0000 </r>
       <r>   -26.3876     0.0000     4.0000 </r>
       <r>   -26.2313     0.0000     4.0000 </r>
       <r>   -26.0751     0.0000     4.0000 </r>
       <r>   -25.9188     0.0000     4.0000 </r>
       <r>   -25.7626     0.0000     4.0000 </r>
       <r>   -25.6063     0.0000     4.0000 </r>
       <r>   -25.4501     0.0000     4.0000 </r>
       <r>   -25.2938     0.0000     4.0000 </r>
       <r>   -25.1376     0.0000     4.0000 </r>
       <r>   -24.9813     0.0000     4.0000 </r>
       <r>   -24.8251     0.0000     4.0000 </r>
       <r>   -24.6688     0.0000     4.0000 </r>
       <r>   -24.5126     0.0000     4.0000 </r>
       <r>   -24.3564     0.0000     4.0000 </r>
       <r>   -24.2001     0.0000     4.0000 </r>
       <r>   -24.0439     0.0000     4.0000 </r>
       <r>   -23.8876     0.0000     4.0000 </r>
       <r>   -23.7314     0.0000     4.0000 </r>
       <r>   -23.5751     0.0000     4.0000 </r>
       <r>   -23.4189     0.0000     4.0000 </r>
       <r>   -23.2626     0.0000     4.0000 </r>
       <r>   -23.1064     0.0000     4.0000 </r>
       <r>   -22.9501     0.0000     4.0000 </r>
       <r>   -22.7939     0.0000     4.0000 </r>
       <r>   -22.6376     0.0000     4.0000 </r>
       <r>   -22.4814     0.0000     4.0000 </r>
       <r>   -22.3251     0.0000     4.0000 </r>
       <r>   -22.1689     0.0000     4.0000 </r>
       <r>   -22.0126     0.0000     4.0000 </r>
       <r>   -21.8564     0.0000     4.0000 </r>
       <r>   -21.7001     0.0000     4.0000 </r>
       <r>   -21.5439     0.0000     4.0000 </r>
       <r>   -21.3876     0.0000     4.0000 </r>
       <r>   -21.2314     0.0000     4.0000 </r>
       <r>   -21.0751     0.0000     4.0000 </r>
       <r>   -20.9189     0.0000     4.0000 </r>
       <r>   -20.7626     0.0000     4.0000 </r>
       <r>   -20.6064     0.0000     4.0000 </r>
       <r>   -20.4502     0.0000     4.0000 </r>
       <r>   -20.2939     0.0000     4.0000 </r>
       <r>   -20.1377     0.0000     4.0000 </r>
       <r>   -19.9814     0.0000     4.0000 </r>
       <r>   -19.8252     0.0000     4.0000 </r>
       <r>   -19.6689     0.0000     4.0000 </r>
       <r>   -19.5127     0.0000     4.0000 </r>
       <r>   -19.3564     0.0000     4.0000 </r>
       <r>   -19.2002     0.0000     4.0000 </r>
       <r>   -19.0439     0.0000     4.0000 </r>
       <r>   -18.8877     0.0000     4.0000 </r>
       <r>   -18.7314     0.0000     4.0000 </r>
       <r>   -18.5752     0.0000     4.0000 </r>
       <r>   -18.4189     0.0000     4.0000 </r>
       <r>   -18.2627     0.0000     4.0000 </r>
       <r>   -18.1064     0.0000     4.0000 </r>
       <r>   -17.9502     0.0000     4.0000 </r>
       <r>   -17.7939     0.0000     4.0000 </r>
       <r>   -17.6377     0.0000     4.0000 </r>
       <r>   -17.4814     0.0000     4.0000 </r>
       <r>   -17.3252     0.0000     4.0000 </r>
       <r>   -17.1689     0.0000     4.0000 </r>
       <r>   -17.0127     0.0000     4.0000 </r>
       <r>   -16.8564     0.0000     4.0000 </r>
       <r>   -16.7002     0.0000     4.0000 </r>
       <r>   -16.5440     0.0000     4.0000 </r>
       <r>   -16.3877     0.0000     4.0000 </r>
       <r>   -16.2315     0.0000     4.0000 </r>
       <r>   -16.0752     0.0000     4.0000 </r>
       <r>   -15.9190     0.0000     4.0000 </r>
       <r>   -15.7627     0.0000     4.0000 </r>
       <r>   -15.6065     0.0000     4.0000 </r>
       <r>   -15.4502     0.0000     4.0000 </r>
       <r>   -15.2940     0.0000     4.0000 </r>
       <r>   -15.1377     0.0029     4.0005 </r>
       <r>   -14.9815     0.3725     4.0587 </r>
       <r>   -14.8252     1.6154     4.3111 </r>
       <r>   -14.6690     2.7920     4.7473 </r>
       <r>   -14.5127     9.8470     6.2859 </r>
       <r>   -14.3565     6.9264     7.3681 </r>
       <r>   -14.2002     3.9863     7.9910 </r>
       <r>   -14.0440     6.5163     9.0091 </r>
       <r>   -13.8877     8.0221    10.2626 </r>
       <r>   -13.7315     6.7474    11.3168 </r>
       <r>   -13.5752     8.1771    12.5945 </r>
       <r>   -13.4190     7.8753    13.8250 </r>
       <r>   -13.2627    11.7732    15.6645 </r>
       <r>   -13.1065     8.1271    16.9344 </r>
       <r>   -12.9502     8.6330    18.2833 </r>
       <r>   -12.7940     3.9137    18.8948 </r>
       <r>   -12.6378     3.8957    19.5035 </r>
       <r>   -12.4815    14.0943    21.7057 </r>
       <r>   -12.3253    12.8719    23.7169 </r>
       <r>   -12.1690     7.3579    24.8665 </r>
       <r>   -12.0128     0.8540    25.0000 </r>
       <r>   -11.8565     0.0002    25.0000 </r>
       <r>   -11.7003     0.0000    25.0000 </r>
       <r>   -11.5440     0.0000    25.0000 </r>
       <r>   -11.3878     0.0000    25.0000 </r>
       <r>   -11.2315     0.0000    25.0000 </r>
       <r>   -11.0753     0.0000    25.0000 </r>
       <r>   -10.9190     0.0000    25.0000 </r>
       <r>   -10.7628     0.0000    25.0000 </r>
       <r>   -10.6065     0.0000    25.0000 </r>
       <r>   -10.4503     0.0000    25.0000 </r>
       <r>   -10.2940     0.0000    25.0000 </r>
       <r>   -10.1378     0.0000    25.0000 </r>
       <r>    -9.9815     0.0000    25.0000 </r>
       <r>    -9.8253     0.0000    25.0000 </r>
       <r>    -9.6690     0.0000    25.0000 </r>
       <r>    -9.5128     0.0000    25.0000 </r>
       <r>    -9.3565     0.0000    25.0000 </r>
       <r>    -9.2003     0.0000    25.0000 </r>
       <r>    -9.0440     0.0000    25.0000 </r>
       <r>    -8.8878     0.0000    25.0000 </r>
       <r>    -8.7316     0.0000    25.0000 </r>
       <r>    -8.5753     0.0000    25.0000 </r>
       <r>    -8.4191     0.0000    25.0000 </r>
       <r>    -8.2628     0.0000    25.0000 </r>
       <r>    -8.1066     0.0000    25.0000 </r>
       <r>    -7.9503     0.0000    25.0000 </r>
       <r>    -7.7941     0.0000    25.0000 </r>
       <r>    -7.6378     0.0000    25.0000 </r>
       <r>    -7.4816     0.0000    25.0000 </r>
       <r>    -7.3253     0.0000    25.0000 </r>
       <r>    -7.1691     0.0000    25.0000 </r>
       <r>    -7.0128     0.0000    25.0000 </r>
       <r>    -6.8566     0.0000    25.0000 </r>
       <r>    -6.7003     0.0000    25.0000 </r>
       <r>    -6.5441     0.0000    25.0000 </r>
       <r>    -6.3878     0.0000    25.0000 </r>
       <r>    -6.2316     0.0000    25.0000 </r>
       <r>    -6.0753     0.0000    25.0000 </r>
       <r>    -5.9191     0.0000    25.0000 </r>
       <r>    -5.7628     0.0000    25.0000 </r>
       <r>    -5.6066     0.0000    25.0000 </r>
       <r>    -5.4503     0.0000    25.0000 </r>
       <r>    -5.2941     0.0000    25.0000 </r>
       <r>    -5.1378     0.0000    25.0000 </r>
       <r>    -4.9816     0.0000    25.0000 </r>
       <r>    -4.8254     0.0000    25.0000 </r>
       <r>    -4.6691     0.0000    25.0000 </r>
       <r>    -4.5129     0.0000    25.0000 </r>
       <r>    -4.3566     0.0000    25.0000 </r>
       <r>    -4.2004     0.0000    25.0000 </r>
       <r>    -4.0441     0.0000    25.0000 </r>
       <r>    -3.8879     0.0000    25.0000 </r>
       <r>    -3.7316     0.0000    25.0000 </r>
       <r>    -3.5754     0.0000    25.0000 </r>
       <r>    -3.4191     0.0000    25.0000 </r>
       <r>    -3.2629     0.0000    25.0000 </r>
       <r>    -3.1066     0.3469    25.0542 </r>
       <r>    -2.9504     1.8204    25.3386 </r>
       <r>    -2.7941     2.1006    25.6669 </r>
       <r>    -2.6379     5.3341    26.5003 </r>
       <r>    -2.4816     4.1500    27.1487 </r>
       <r>    -2.3254     3.3297    27.6690 </r>
       <r>    -2.1691     1.9929    27.9804 </r>
       <r>    -2.0129     4.7983    28.7301 </r>
       <r>    -1.8566     9.8536    30.2697 </r>
       <r>    -1.7004    12.8380    32.2756 </r>
       <r>    -1.5441     9.3210    33.7320 </r>
       <r>    -1.3879    14.7821    36.0417 </r>
       <r>    -1.2316    20.6038    39.2610 </r>
       <r>    -1.0754    12.6204    41.2329 </r>
       <r>    -0.9192    12.0176    43.1106 </r>
       <r>    -0.7629     9.8994    44.6574 </r>
       <r>    -0.6067     4.2293    45.3182 </r>
       <r>    -0.4504     8.6677    46.6725 </r>
       <r>    -0.2942     5.6360    47.5531 </r>
       <r>    -0.1379     4.3807    48.2376 </r>
       <r>     0.0183     2.1561    48.5745 </r>
       <r>     0.1746     3.0727    49.0546 </r>
       <r>     0.3308     4.4885    49.7559 </r>
       <r>     0.4871     5.1675    50.5633 </r>
       <r>     0.6433     4.9842    51.3421 </r>
       <r>     0.7996     6.4842    52.3552 </r>
       <r>     0.9558     9.3440    53.8152 </r>
       <r>     1.1121    10.2999    55.4246 </r>
       <r>     1.2683    12.6093    57.3947 </r>
       <r>     1.4246    15.1797    59.7665 </r>
       <r>     1.5808    11.3936    61.5468 </r>
       <r>     1.7371    10.8580    63.2433 </r>
       <r>     1.8933    11.9904    65.1168 </r>
       <r>     2.0496     8.1252    66.3863 </r>
       <r>     2.2058     7.7315    67.5944 </r>
       <r>     2.3621     3.7330    68.1776 </r>
       <r>     2.5183     4.2220    68.8373 </r>
       <r>     2.6746     1.3368    69.0462 </r>
       <r>     2.8308     4.5543    69.7578 </r>
       <r>     2.9870     3.5987    70.3201 </r>
       <r>     3.1433     1.4877    70.5525 </r>
       <r>     3.2995     2.1421    70.8872 </r>
       <r>     3.4558     2.7560    71.3178 </r>
       <r>     3.6120     0.5258    71.4000 </r>
       <r>     3.7683     0.0000    71.4000 </r>
       <r>     3.9245     0.6107    71.4954 </r>
       <r>     4.0808     0.9352    71.6415 </r>
       <r>     4.2370     1.4598    71.8696 </r>
       <r>     4.3933     1.1612    72.0511 </r>
       <r>     4.5495     0.4929    72.1281 </r>
       <r>     4.7058     0.6188    72.2248 </r>
       <r>     4.8620     0.8074    72.3509 </r>
       <r>     5.0183     0.5673    72.4396 </r>
       <r>     5.1745     1.6601    72.6990 </r>
       <r>     5.3308     0.6533    72.8010 </r>
       <r>     5.4870     0.9044    72.9423 </r>
       <r>     5.6433     1.5829    73.1897 </r>
       <r>     5.7995     2.2340    73.5387 </r>
       <r>     5.9558     1.7029    73.8048 </r>
       <r>     6.1120     3.1746    74.3008 </r>
       <r>     6.2683     1.5106    74.5368 </r>
       <r>     6.4245     1.9009    74.8338 </r>
       <r>     6.5808     0.7662    74.9536 </r>
       <r>     6.7370     0.2973    75.0000 </r>
       <r>     6.8932     0.0990    75.0155 </r>
       <r>     7.0495     0.2561    75.0555 </r>
       <r>     7.2057     0.3248    75.1062 </r>
       <r>     7.3620     1.2723    75.3050 </r>
       <r>     7.5182     1.5781    75.5516 </r>
       <r>     7.6745     1.3879    75.7684 </r>
       <r>     7.8307     1.6097    76.0199 </r>
       <r>     7.9870     1.7017    76.2858 </r>
       <r>     8.1432     4.3294    76.9623 </r>
       <r>     8.2995     2.9418    77.4219 </r>
       <r>     8.4557     4.7632    78.1662 </r>
       <r>     8.6120     4.5189    78.8722 </r>
       <r>     8.7682     6.9871    79.9640 </r>
       <r>     8.9245     4.7368    80.7041 </r>
       <r>     9.0807     6.3359    81.6940 </r>
       <r>     9.2370     5.9170    82.6186 </r>
       <r>     9.3932     4.0234    83.2472 </r>
       <r>     9.5495     4.7808    83.9942 </r>
       <r>     9.7057     4.6001    84.7130 </r>
       <r>     9.8620     5.5130    85.5744 </r>
       <r>    10.0182     5.9684    86.5069 </r>
       <r>    10.1745     5.5169    87.3689 </r>
       <r>    10.3307     7.8002    88.5877 </r>
       <r>    10.4870     6.7873    89.6482 </r>
       <r>    10.6432     4.1433    90.2956 </r>
       <r>    10.7994     6.5035    91.3117 </r>
       <r>    10.9557     2.4777    91.6989 </r>
       <r>    11.1119     1.1884    91.8846 </r>
       <r>    11.2682     0.7381    91.9999 </r>
       <r>    11.4244     0.0008    92.0000 </r>
       <r>    11.5807     0.0000    92.0000 </r>
       <r>    11.7369     0.0000    92.0000 </r>
       <r>    11.8932     0.0000    92.0000 </r>
       <r>    12.0494     0.0000    92.0000 </r>
       <r>    12.2057     0.0000    92.0000 </r>
       <r>    12.3619     0.0000    92.0000 </r>
       <r>    12.5182     0.0000    92.0000 </r>
       <r>    12.6744     0.0000    92.0000 </r>
       <r>    12.8307     0.0000    92.0000 </r>
       <r>    12.9869     0.0000    92.0000 </r>
       <r>    13.1432     0.0000    92.0000 </r>
       <r>    13.2994     0.0000    92.0000 </r>
      </set>
     </set>
    </array>
   </total>
  </dos>
 </calculation>
 <structure name="finalpos" >
  <crystal>
   <varray name="basis" >
    <v>       5.65685425       0.00000000       0.00000000 </v>
    <v>       0.00000000       4.00000000       0.00000000 </v>
    <v>       0.00000000       0.00000000      11.31370850 </v>
   </varray>
   <i name="volume">    256.00000000 </i>
   <varray name="rec_basis" >
    <v>       0.17677670       0.00000000       0.00000000 </v>
    <v>       0.00000000       0.25000000       0.00000000 </v>
    <v>       0.00000000       0.00000000       0.08838835 </v>
   </varray>
  </crystal>
  <varray name="positions" >
   <v>       0.75000000       0.00000000       0.87500000 </v>
   <v>       0.25000000       0.00000000       0.12500000 </v>
   <v>       0.75000000       0.00000000       0.37500000 </v>
   <v>       0.25000000       0.00000000       0.62500000 </v>
   <v>       0.25000000       0.50000000       0.87500000 </v>
   <v>       0.75000000       0.50000000       0.12500000 </v>
   <v>       0.25000000       0.50000000       0.37500000 </v>
   <v>       0.75000000       0.50000000       0.62500000 </v>
   <v>       0.00000000       0.50000000       0.50000000 </v>
   <v>       0.25000000       0.00000000       0.87500000 </v>
   <v>       0.75000000       0.00000000       0.12500000 </v>
   <v>       0.25000000       0.00000000       0.37500000 </v>
   <v>       0.75000000       0.00000000       0.62500000 </v>
   <v>       0.50000000       0.50000000       0.00000000 </v>
   <v>       0.00000000       0.50000000       0.25000000 </v>
   <v>       0.50000000       0.50000000       0.50000000 </v>
   <v>       0.00000000       0.50000000       0.75000000 </v>
  </varray>
 </structure>
</modeling>
