<?xml version="1.0" encoding="ISO-8859-1"?>
<modeling>
 <generator>
  <i name="program" type="string">vasp </i>
  <i name="version" type="string">5.3.5  </i>
  <i name="subversion" type="string">31Mar14 (build Jun 20 2014 13:15:13) complex                          parallel </i>
  <i name="platform" type="string">LinuxIFC </i>
  <i name="date" type="string">2025 12 16 </i>
  <i name="time" type="string">17:01:13 </i>
 </generator>
 <incar>
  <i type="string" name="PREC">accurate</i>
  <i type="int" name="IALGO">    68</i>
  <i type="logical" name="ADDGRID"> T  </i>
  <i type="int" name="NELM">   100</i>
  <i type="int" name="NELMIN">     4</i>
  <i type="int" name="IBRION">     2</i>
  <i name="EDIFF">      0.00000100</i>
  <i name="EDIFFG">     -0.02000000</i>
  <i type="int" name="NSW">    30</i>
  <i type="int" name="ISIF">     3</i>
  <i name="ENCUT">    600.00000000</i>
  <i type="logical" name="LREAL"> F  </i>
  <i type="int" name="ISMEAR">     0</i>
  <i name="SIGMA">      0.10000000</i>
  <i type="logical" name="LWAVE"> F  </i>
  <i type="logical" name="LCHARG"> F  </i>
  <i type="int" name="NELM">   100</i>
 </incar>
 <kpoints>
  <generation param="Auto">
   <i name="subdivisionlength">     20.00000000 </i>
   <v type="int" name="divisions">       4        4        4 </v>
   <v name="usershift">      0.00000000       0.00000000       0.00000000 </v>
   <v name="genvec1">      0.25000000       0.00000000       0.00000000 </v>
   <v name="genvec2">      0.00000000       0.25000000       0.00000000 </v>
   <v name="genvec3">      0.00000000       0.00000000       0.25000000 </v>
   <v name="shift">      0.00000000       0.00000000       0.00000000 </v>
  </generation>
  <varray name="kpointlist" >
   <v>       0.00000000       0.00000000       0.00000000 </v>
   <v>       0.25000000       0.00000000       0.00000000 </v>
   <v>       0.50000000       0.00000000       0.00000000 </v>
   <v>       0.00000000       0.25000000       0.00000000 </v>
   <v>       0.25000000       0.25000000       0.00000000 </v>
   <v>       0.50000000       0.25000000       0.00000000 </v>
   <v>      -0.25000000       0.25000000       0.00000000 </v>
   <v>       0.00000000       0.50000000       0.00000000 </v>
   <v>       0.25000000       0.50000000       0.00000000 </v>
   <v>       0.50000000       0.50000000       0.00000000 </v>
   <v>       0.00000000       0.00000000       0.25000000 </v>
   <v>       0.25000000       0.00000000       0.25000000 </v>
   <v>       0.50000000       0.00000000       0.25000000 </v>
   <v>      -0.25000000       0.00000000       0.25000000 </v>
   <v>       0.00000000       0.25000000       0.25000000 </v>
   <v>       0.25000000       0.25000000       0.25000000 </v>
   <v>       0.50000000       0.25000000       0.25000000 </v>
   <v>      -0.25000000       0.25000000       0.25000000 </v>
   <v>       0.00000000       0.50000000       0.25000000 </v>
   <v>       0.25000000       0.50000000       0.25000000 </v>
   <v>       0.50000000       0.50000000       0.25000000 </v>
   <v>      -0.25000000       0.50000000       0.25000000 </v>
   <v>       0.00000000      -0.25000000       0.25000000 </v>
   <v>       0.25000000      -0.25000000       0.25000000 </v>
   <v>       0.50000000      -0.25000000       0.25000000 </v>
   <v>      -0.25000000      -0.25000000       0.25000000 </v>
   <v>       0.00000000       0.00000000       0.50000000 </v>
   <v>       0.25000000       0.00000000       0.50000000 </v>
   <v>       0.50000000       0.00000000       0.50000000 </v>
   <v>       0.00000000       0.25000000       0.50000000 </v>
   <v>       0.25000000       0.25000000       0.50000000 </v>
   <v>       0.50000000       0.25000000       0.50000000 </v>
   <v>      -0.25000000       0.25000000       0.50000000 </v>
   <v>       0.00000000       0.50000000       0.50000000 </v>
   <v>       0.25000000       0.50000000       0.50000000 </v>
   <v>       0.50000000       0.50000000       0.50000000 </v>
  </varray>
  <varray name="weights" >
   <v>       0.01562500 </v>
   <v>       0.03125000 </v>
   <v>       0.01562500 </v>
   <v>       0.03125000 </v>
   <v>       0.03125000 </v>
   <v>       0.03125000 </v>
   <v>       0.03125000 </v>
   <v>       0.01562500 </v>
   <v>       0.03125000 </v>
   <v>       0.01562500 </v>
   <v>       0.03125000 </v>
   <v>       0.03125000 </v>
   <v>       0.03125000 </v>
   <v>       0.03125000 </v>
   <v>       0.03125000 </v>
   <v>       0.03125000 </v>
   <v>       0.03125000 </v>
   <v>       0.03125000 </v>
   <v>       0.03125000 </v>
   <v>       0.03125000 </v>
   <v>       0.03125000 </v>
   <v>       0.03125000 </v>
   <v>       0.03125000 </v>
   <v>       0.03125000 </v>
   <v>       0.03125000 </v>
   <v>       0.03125000 </v>
   <v>       0.01562500 </v>
   <v>       0.03125000 </v>
   <v>       0.01562500 </v>
   <v>       0.03125000 </v>
   <v>       0.03125000 </v>
   <v>       0.03125000 </v>
   <v>       0.03125000 </v>
   <v>       0.01562500 </v>
   <v>       0.03125000 </v>
   <v>       0.01562500 </v>
  </varray>
 </kpoints>
 <parameters>
  <separator name="general" >
   <i type="string" name="SYSTEM">unknown system</i>
   <i type="logical" name="LCOMPAT"> F  </i>
  </separator>
  <separator name="electronic" >
   <i type="string" name="PREC">accura</i>
   <i name="ENMAX">    600.00000000</i>
   <i name="ENAUG">    644.87300000</i>
   <i name="EDIFF">      0.00000100</i>
   <i type="int" name="IALGO">    68</i>
   <i type="int" name="IWAVPR">    11</i>
   <i type="int" name="NBANDS">    44</i>
   <i name="NELECT">     64.00000000</i>
   <i type="int" name="TURBO">     0</i>
   <i type="int" name="IRESTART">     0</i>
   <i type="int" name="NREBOOT">     0</i>
   <i type="int" name="NMIN">     0</i>
   <i name="EREF">      0.00000000</i>
   <separator name="electronic smearing" >
    <i type="int" name="ISMEAR">     0</i>
    <i name="SIGMA">      0.10000000</i>
    <i name="KSPACING">      0.50000000</i>
    <i type="logical" name="KGAMMA"> T  </i>
   </separator>
   <separator name="electronic projectors" >
    <i type="logical" name="LREAL"> F  </i>
    <v name="ROPT">      0.00000000      0.00000000      0.00000000      0.00000000</v>
    <i type="int" name="LMAXPAW">  -100</i>
    <i type="int" name="LMAXMIX">     2</i>
    <i type="logical" name="NLSPLINE"> F  </i>
   </separator>
   <separator name="electronic startup" >
    <i type="int" name="ISTART">     0</i>
    <i type="int" name="ICHARG">     2</i>
    <i type="int" name="INIWAV">     1</i>
   </separator>
   <separator name="electronic spin" >
    <i type="int" name="ISPIN">     1</i>
    <i type="logical" name="LNONCOLLINEAR"> F  </i>
    <v name="MAGMOM">      1.00000000      1.00000000      1.00000000      1.00000000      1.00000000      1.00000000      1.00000000      1.00000000      1.00000000      1.00000000      1.00000000      1.00000000      1.00000000      1.00000000      1.00000000      1.00000000</v>
    <i name="NUPDOWN">     -1.00000000</i>
    <i type="logical" name="LSORBIT"> F  </i>
    <v name="SAXIS">      0.00000000      0.00000000      1.00000000</v>
    <i type="logical" name="LSPIRAL"> F  </i>
    <v name="QSPIRAL">      0.00000000      0.00000000      0.00000000</v>
    <i type="logical" name="LZEROZ"> F  </i>
   </separator>
   <separator name="electronic exchange-correlation" >
    <i type="logical" name="LASPH"> F  </i>
    <i type="logical" name="LMETAGGA"> F  </i>
   </separator>
   <separator name="electronic convergence" >
    <i type="int" name="NELM">   100</i>
    <i type="int" name="NELMDL">     0</i>
    <i type="int" name="NELMIN">     4</i>
    <i name="ENINI">    600.00000000</i>
    <separator name="electronic convergence detail" >
     <i type="logical" name="LDIAG"> T  </i>
     <i type="logical" name="LSUBROT"> F  </i>
     <i name="WEIMIN">      0.00100000</i>
     <i name="EBREAK">      0.00000001</i>
     <i name="DEPER">      0.30000000</i>
     <i type="int" name="NRMM">     4</i>
     <i name="TIME">      0.40000000</i>
    </separator>
   </separator>
   <separator name="electronic mixer" >
    <i name="AMIX">      0.40000000</i>
    <i name="BMIX">      1.00000000</i>
    <i name="AMIN">      0.10000000</i>
    <i name="AMIX_MAG">      1.60000000</i>
    <i name="BMIX_MAG">      1.00000000</i>
    <separator name="electronic mixer details" >
     <i type="int" name="IMIX">     4</i>
     <i type="int" name="MAXMIX">   -45</i>
     <i name="WC">    100.00000000</i>
     <i type="int" name="INIMIX">     1</i>
     <i type="int" name="MIXPRE">     1</i>
     <i type="int" name="MREMOVE">     5</i>
    </separator>
   </separator>
   <separator name="electronic dipolcorrection" >
    <i type="logical" name="LDIPOL"> F  </i>
    <i type="logical" name="LMONO"> F  </i>
    <i type="int" name="IDIPOL">     0</i>
    <i name="EPSILON">      1.00000000</i>
    <v name="DIPOL">   -100.00000000   -100.00000000   -100.00000000</v>
    <i name="EFIELD">      0.00000000</i>
   </separator>
  </separator>
  <separator name="grids" >
   <i type="int" name="NGX">    40</i>
   <i type="int" name="NGY">    50</i>
   <i type="int" name="NGZ">    50</i>
   <i type="int" name="NGXF">    80</i>
   <i type="int" name="NGYF">   100</i>
   <i type="int" name="NGZF">   100</i>
   <i type="logical" name="ADDGRID"> T  </i>
  </separator>
  <separator name="ionic" >
   <i type="int" name="NSW">    30</i>
   <i type="int" name="IBRION">     2</i>
   <i type="int" name="ISIF">     3</i>
   <i name="PSTRESS">      0.00000000</i>
   <i name="EDIFFG">     -0.02000000</i>
   <i type="int" name="NFREE">     1</i>
   <i name="POTIM">      0.50000000</i>
   <i name="SMASS">     -3.00000000</i>
   <i name="SCALEE">      1.00000000</i>
  </separator>
  <separator name="ionic md" >
   <i name="TEBEG">      0.00010000</i>
   <i name="TEEND">      0.00010000</i>
   <i type="int" name="NBLOCK">     1</i>
   <i type="int" name="KBLOCK">    30</i>
   <i type="int" name="NPACO">   256</i>
   <i name="APACO">     16.00000000</i>
  </separator>
  <separator name="symmetry" >
   <i type="int" name="ISYM">     2</i>
   <i name="SYMPREC">      0.00001000</i>
  </separator>
  <separator name="dos" >
   <i type="logical" name="LORBIT"> F  </i>
   <v name="RWIGS">     -1.00000000     -1.00000000     -1.00000000     -1.00000000</v>
   <i type="int" name="NEDOS">   301</i>
   <i name="EMIN">     10.00000000</i>
   <i name="EMAX">    -10.00000000</i>
   <i name="EFERMI">      0.00000000</i>
  </separator>
  <separator name="writing" >
   <i type="int" name="NWRITE">     2</i>
   <i type="logical" name="LWAVE"> F  </i>
   <i type="logical" name="LCHARG"> F  </i>
   <i type="logical" name="LPARD"> F  </i>
   <i type="logical" name="LVTOT"> F  </i>
   <i type="logical" name="LVHAR"> F  </i>
   <i type="logical" name="LELF"> F  </i>
   <i type="logical" name="LOPTICS"> F  </i>
   <v name="STM">      0.00000000      0.00000000      0.00000000      0.00000000      0.00000000      0.00000000      0.00000000</v>
  </separator>
  <separator name="performance" >
   <i type="int" name="NPAR">     4</i>
   <i type="int" name="NSIM">     4</i>
   <i type="int" name="NBLK">    -1</i>
   <i type="logical" name="LPLANE"> T  </i>
   <i type="logical" name="LSCALAPACK"> T  </i>
   <i type="logical" name="LSCAAWARE"> F  </i>
   <i type="logical" name="LSCALU"> F  </i>
   <i type="logical" name="LASYNC"> F  </i>
   <i type="logical" name="LORBITALREAL"> F  </i>
  </separator>
  <separator name="miscellaneous" >
   <i type="int" name="IDIOT">     3</i>
   <i type="logical" name="LMUSIC"> F  </i>
   <v name="POMASS">     28.08500000     26.98100000     12.01100000     14.00100000</v>
   <v name="DARWINR">      0.00000000      0.00000000      0.00000000      0.00000000</v>
   <v name="DARWINV">      1.00000000      1.00000000      1.00000000      1.00000000</v>
   <i type="logical" name="LCORR"> T  </i>
  </separator>
  <i type="logical" name="GGA_COMPAT"> T  </i>
  <i type="logical" name="LBERRY"> F  </i>
  <i type="int" name="ICORELEVEL">     0</i>
  <i type="logical" name="LDAU"> F  </i>
  <i type="int" name="I_CONSTRAINED_M">     0</i>
  <separator name="electronic exchange-correlation" >
   <i type="string" name="GGA">--</i>
   <i type="int" name="VOSKOWN">     0</i>
   <i type="logical" name="LHFCALC"> F  </i>
   <i type="string" name="PRECFOCK"></i>
   <i type="logical" name="LSYMGRAD"> F  </i>
   <i type="logical" name="LHFONE"> F  </i>
   <i type="logical" name="LRHFCALC"> F  </i>
   <i type="logical" name="LTHOMAS"> F  </i>
   <i type="logical" name="LMODELHF"> F  </i>
   <i name="ENCUT4O">     -1.00000000</i>
   <i type="int" name="EXXOEP">     0</i>
   <i type="int" name="FOURORBIT">     0</i>
   <i name="AEXX">      0.00000000</i>
   <i name="HFALPHA">      0.00000000</i>
   <i name="MCALPHA">      0.00000000</i>
   <i name="ALDAX">      1.00000000</i>
   <i name="AGGAX">      1.00000000</i>
   <i name="ALDAC">      1.00000000</i>
   <i name="AGGAC">      1.00000000</i>
   <i type="int" name="NKREDX">     1</i>
   <i type="int" name="NKREDY">     1</i>
   <i type="int" name="NKREDZ">     1</i>
   <i type="logical" name="SHIFTRED"> F  </i>
   <i type="logical" name="ODDONLY"> F  </i>
   <i type="logical" name="EVENONLY"> F  </i>
   <i type="int" name="LMAXFOCK">     0</i>
   <i type="int" name="NMAXFOCKAE">     0</i>
   <i type="logical" name="LFOCKAEDFT"> F  </i>
   <i name="HFSCREEN">      0.00000000</i>
   <i name="HFSCREENC">      0.00000000</i>
   <i type="int" name="NBANDSGWLOW">     0</i>
  </separator>
  <separator name="vdW DFT" >
   <i type="logical" name="LUSE_VDW"> F  </i>
   <i name="Zab_VDW">     -0.84910000</i>
   <i name="PARAM1">      0.12340000</i>
   <i name="PARAM2">      1.00000000</i>
   <i name="PARAM3">      0.00000000</i>
  </separator>
  <separator name="model GW" >
   <i type="int" name="MODEL_GW">     0</i>
   <i name="MODEL_EPS0">      6.39826548</i>
   <i name="MODEL_ALPHA">      1.00000000</i>
  </separator>
  <separator name="linear response parameters" >
   <i type="logical" name="LEPSILON"> F  </i>
   <i type="logical" name="LRPA"> F  </i>
   <i type="logical" name="LNABLA"> F  </i>
   <i type="logical" name="LVEL"> F  </i>
   <i type="int" name="KINTER">     0</i>
   <i name="CSHIFT">      0.10000000</i>
   <i name="OMEGAMAX">     -1.00000000</i>
   <i name="DEG_THRESHOLD">      0.00200000</i>
  </separator>
  <separator name="orbital magnetization" >
   <i type="logical" name="NUCIND"> F  </i>
   <v name="MAGPOS">      0.00000000      0.00000000      0.00000000</v>
   <i type="logical" name="LNICSALL"> T  </i>
   <i type="logical" name="ORBITALMAG"> F  </i>
   <i type="logical" name="LMAGBLOCH"> F  </i>
   <i type="logical" name="LCHIMAG"> F  </i>
   <i type="logical" name="LGAUGE"> T  </i>
   <i type="int" name="MAGATOM">     0</i>
   <v name="MAGDIPOL">      0.00000000      0.00000000      0.00000000</v>
   <v name="AVECCONST">      0.00000000      0.00000000      0.00000000</v>
  </separator>
  <separator name="response functions" >
   <i type="logical" name="LADDER"> F  </i>
   <i type="logical" name="LFXC"> F  </i>
   <i type="logical" name="LHARTREE"> T  </i>
   <i type="int" name="IBSE">     0</i>
   <i type="logical" name="LTCTE"> F  </i>
   <i type="logical" name="LTETE"> F  </i>
   <i type="logical" name="LTRIPLET"> F  </i>
   <i type="logical" name="LFXCEPS"> F  </i>
   <i type="logical" name="LFXHEG"> F  </i>
   <i type="logical" name="L2ORDER"> F  </i>
   <i type="logical" name="LUSEW"> F  </i>
   <i name="ENCUTGW">     -2.00000000</i>
   <i name="ENCUTGWSOFT">     -2.00000000</i>
   <i name="ENCUTLF">     -1.00000000</i>
   <i type="int" name="LMAXMP2">    -1</i>
   <i name="SCISSOR">      0.00000000</i>
   <i type="int" name="NOMEGA">     0</i>
   <i type="int" name="NOMEGAR">     0</i>
   <i type="int" name="NBANDSGW">    -1</i>
   <i type="int" name="NBANDSO">    -1</i>
   <i type="int" name="NBANDSV">    -1</i>
   <i type="int" name="NELM">   100</i>
   <i type="int" name="DIM">     3</i>
   <i type="int" name="ANTIRES">     0</i>
   <i name="OMEGAMAX">    -30.00000000</i>
   <i name="OMEGAMIN">    -30.00000000</i>
   <i name="OMEGATL">   -200.00000000</i>
   <i type="int" name="OMEGAGRID">     0</i>
   <i name="CSHIFT">     -0.10000000</i>
   <i type="logical" name="SELFENERGY"> F  </i>
   <i type="logical" name="LSPECTRAL"> F  </i>
   <i type="logical" name="ODDONLYGW"> F  </i>
   <i type="logical" name="EVENONLYGW"> F  </i>
   <i type="int" name="NKREDLFX">     1</i>
   <i type="int" name="NKREDLFY">     1</i>
   <i type="int" name="NKREDLFZ">     1</i>
   <i type="int" name="MAXMEM">  1800</i>
   <i type="int" name="TELESCOPE">     0</i>
   <i type="int" name="TAUPAR">     1</i>
  </separator>
  <separator name="External order field" >
   <i name="OFIELD_KAPPA">      0.00000000</i>
   <v name="OFIELD_K">      0.00000000      0.00000000      0.00000000</v>
   <i name="OFIELD_Q6_NEAR">      0.00000000</i>
   <i name="OFIELD_Q6_FAR">      0.00000000</i>
   <i name="OFIELD_A">      0.00000000</i>
  </separator>
 </parameters>
 <atominfo>
  <atoms>      16 </atoms>
  <types>       4 </types>
  <array name="atoms" >
   <dimension dim="1">ion</dimension>
   <field type="string">element</field>
   <field type="int">atomtype</field>
   <set>
    <rc><c>Si</c><c>   1</c></rc>
    <rc><c>Si</c><c>   1</c></rc>
    <rc><c>Si</c><c>   1</c></rc>
    <rc><c>Al</c><c>   2</c></rc>
    <rc><c>Al</c><c>   2</c></rc>
    <rc><c>Al</c><c>   2</c></rc>
    <rc><c>Al</c><c>   2</c></rc>
    <rc><c>Al</c><c>   2</c></rc>
    <rc><c>C </c><c>   3</c></rc>
    <rc><c>C </c><c>   3</c></rc>
    <rc><c>C </c><c>   3</c></rc>
    <rc><c>N </c><c>   4</c></rc>
    <rc><c>N </c><c>   4</c></rc>
    <rc><c>N </c><c>   4</c></rc>
    <rc><c>N </c><c>   4</c></rc>
    <rc><c>N </c><c>   4</c></rc>
   </set>
  </array>
  <array name="atomtypes" >
   <dimension dim="1">type</dimension>
   <field type="int">atomspertype</field>
   <field type="string">element</field>
   <field>mass</field>
   <field>valence</field>
   <field type="string">pseudopotential</field>
   <set>
    <rc><c>   3</c><c>Si</c><c>     28.08500000</c><c>      4.00000000</c><c>  PAW_PBE Si 05Jan2001                  </c></rc>
    <rc><c>   5</c><c>Al</c><c>     26.98100000</c><c>      3.00000000</c><c>  PAW_PBE Al 04Jan2001                  </c></rc>
    <rc><c>   3</c><c>C </c><c>     12.01100000</c><c>      4.00000000</c><c>  PAW_PBE C 08Apr2002                   </c></rc>
    <rc><c>   5</c><c>N </c><c>     14.00100000</c><c>      5.00000000</c><c>  PAW_PBE N_s 07Sep2000                 </c></rc>
   </set>
  </array>
 </atominfo>
 <structure name="initialpos" >
  <crystal>
   <varray name="basis" >
    <v>       5.03718975       0.00365037       0.00479458 </v>
    <v>       0.00450323       6.29348335      -0.02045825 </v>
    <v>       0.00285396      -3.16439234       5.39239204 </v>
   </varray>
   <i name="volume">    170.62041273 </i>
   <varray name="rec_basis" >
    <v>       0.19852368      -0.00014267      -0.00018879 </v>
    <v>      -0.00020429       0.15919835       0.09342174 </v>
    <v>      -0.00017729       0.00060411       0.18580106 </v>
   </varray>
  </crystal>
  <varray name="positions" >
   <v>       0.99263758       0.66361156       0.82990285 </v>
   <v>       0.50725800       0.32505122       0.16960398 </v>
   <v>       0.50129114       0.83215850       0.67216960 </v>
   <v>       0.99302583       0.17012811       0.33399256 </v>
   <v>       0.99261972       0.66405569       0.33147193 </v>
   <v>       0.99309405       0.16882759       0.83673584 </v>
   <v>       0.50503126       0.83586778       0.16184870 </v>
   <v>       0.49878628       0.33540860       0.66380017 </v>
   <v>       0.38303490       0.17072775       0.32114344 </v>
   <v>       0.88674306       0.34907766       0.68145487 </v>
   <v>       0.86430958       0.82822089       0.67626174 </v>
   <v>       0.38750550       0.65808035       0.33446633 </v>
   <v>       0.38637486       0.15945796       0.84219772 </v>
   <v>       0.36048658       0.67915259       0.82624582 </v>
   <v>       0.85907196       0.33773785       0.16675428 </v>
   <v>       0.88872969       0.82243592       0.15195017 </v>
  </varray>
 </structure>
 <calculation>
  <scstep>
   <time name="dav">    1.15    1.15</time>
   <time name="total">    1.23    1.25</time>
   <energy>
    <i name="alphaZ">     57.96393006 </i>
    <i name="ewald">  -2280.97209576 </i>
    <i name="hartreedc">   -399.17886029 </i>
    <i name="XCdc">    -15.92575949 </i>
    <i name="pawpsdc">   1945.63031815 </i>
    <i name="pawaedc">  -1740.71259224 </i>
    <i name="eentropy">     -0.01859059 </i>
    <i name="bandstr">    455.28223575 </i>
    <i name="atom">   2341.07853652 </i>
    <i name="e_fr_energy">    363.14712210 </i>
    <i name="e_wo_entrp">    363.16571269 </i>
    <i name="e_0_energy">    363.15641740 </i>
   </energy>
  </scstep>
  <scstep>
   <time name="dav">    1.26    1.26</time>
   <time name="total">    1.26    1.27</time>
   <energy>
    <i name="e_fr_energy">    -99.36223552 </i>
    <i name="e_wo_entrp">    -99.36223552 </i>
    <i name="e_0_energy">    -99.36223552 </i>
   </energy>
  </scstep>
  <scstep>
   <time name="dav">    1.36    1.44</time>
   <time name="total">    1.36    1.45</time>
   <energy>
    <i name="e_fr_energy">   -134.46357000 </i>
    <i name="e_wo_entrp">   -134.46357000 </i>
    <i name="e_0_energy">   -134.46357000 </i>
   </energy>
  </scstep>
  <scstep>
   <time name="dav">    1.32    1.32</time>
   <time name="total">    1.32    1.34</time>
   <energy>
    <i name="e_fr_energy">   -135.34817306 </i>
    <i name="e_wo_entrp">   -135.34817306 </i>
    <i name="e_0_energy">   -135.34817306 </i>
   </energy>
  </scstep>
  <scstep>
   <time name="dav">    1.32    1.32</time>
   <time name="total">    1.46    1.47</time>
   <energy>
    <i name="e_fr_energy">   -135.37455582 </i>
    <i name="e_wo_entrp">   -135.37455582 </i>
    <i name="e_0_energy">   -135.37455582 </i>
   </energy>
  </scstep>
  <scstep>
   <time name="diag">    0.27    0.27</time>
   <time name="diis">    0.84    0.84</time>
   <time name="orth">    0.04    0.04</time>
   <time name="total">    1.36    1.38</time>
   <energy>
    <i name="e_fr_energy">   -116.92784510 </i>
    <i name="e_wo_entrp">   -116.92784510 </i>
    <i name="e_0_energy">   -116.92784510 </i>
   </energy>
  </scstep>
  <scstep>
   <time name="diag">    0.28    0.28</time>
   <time name="diis">    0.87    0.87</time>
   <time name="orth">    0.04    0.04</time>
   <time name="total">    1.40    1.42</time>
   <energy>
    <i name="e_fr_energy">   -116.87621805 </i>
    <i name="e_wo_entrp">   -116.87621805 </i>
    <i name="e_0_energy">   -116.87621805 </i>
   </energy>
  </scstep>
  <scstep>
   <time name="diag">    0.26    0.26</time>
   <time name="diis">    0.80    0.80</time>
   <time name="orth">    0.04    0.04</time>
   <time name="total">    1.32    1.34</time>
   <energy>
    <i name="e_fr_energy">   -117.28788016 </i>
    <i name="e_wo_entrp">   -117.28788016 </i>
    <i name="e_0_energy">   -117.28788016 </i>
   </energy>
  </scstep>
  <scstep>
   <time name="diag">    0.26    0.26</time>
   <time name="diis">    0.84    0.84</time>
   <time name="orth">    0.04    0.04</time>
   <time name="total">    1.36    1.37</time>
   <energy>
    <i name="e_fr_energy">   -116.76036365 </i>
    <i name="e_wo_entrp">   -116.76036365 </i>
    <i name="e_0_energy">   -116.76036365 </i>
   </energy>
  </scstep>
  <scstep>
   <time name="diag">    0.26    0.26</time>
   <time name="diis">    0.93    0.93</time>
   <time name="orth">    0.04    0.04</time>
   <time name="total">    1.45    1.46</time>
   <energy>
    <i name="e_fr_energy">   -116.76669989 </i>
    <i name="e_wo_entrp">   -116.76669989 </i>
    <i name="e_0_energy">   -116.76669989 </i>
   </energy>
  </scstep>
  <scstep>
   <time name="diag">    0.27    0.27</time>
   <time name="diis">    0.83    0.83</time>
   <time name="orth">    0.04    0.04</time>
   <time name="total">    1.35    1.37</time>
   <energy>
    <i name="e_fr_energy">   -116.76576594 </i>
    <i name="e_wo_entrp">   -116.76576594 </i>
    <i name="e_0_energy">   -116.76576594 </i>
   </energy>
  </scstep>
  <scstep>
   <time name="diag">    0.27    0.27</time>
   <time name="diis">    0.81    0.81</time>
   <time name="orth">    0.04    0.04</time>
   <time name="total">    1.33    1.34</time>
   <energy>
    <i name="e_fr_energy">   -116.76496234 </i>
    <i name="e_wo_entrp">   -116.76496234 </i>
    <i name="e_0_energy">   -116.76496234 </i>
   </energy>
  </scstep>
  <scstep>
   <time name="diag">    0.26    0.27</time>
   <time name="diis">    0.81    0.81</time>
   <time name="orth">    0.04    0.04</time>
   <time name="total">    1.33    1.35</time>
   <energy>
    <i name="e_fr_energy">   -116.76494208 </i>
    <i name="e_wo_entrp">   -116.76494208 </i>
    <i name="e_0_energy">   -116.76494208 </i>
   </energy>
  </scstep>
  <scstep>
   <time name="diag">    0.27    0.27</time>
   <time name="diis">    0.82    0.82</time>
   <time name="orth">    0.04    0.04</time>
   <time name="total">    1.34    1.36</time>
   <energy>
    <i name="e_fr_energy">   -116.76492068 </i>
    <i name="e_wo_entrp">   -116.76492068 </i>
    <i name="e_0_energy">   -116.76492068 </i>
   </energy>
  </scstep>
  <scstep>
   <time name="diag">    0.26    0.27</time>
   <time name="diis">    0.72    0.72</time>
   <time name="orth">    0.04    0.04</time>
   <time name="total">    1.24    1.26</time>
   <energy>
    <i name="e_fr_energy">   -116.76492258 </i>
    <i name="e_wo_entrp">   -116.76492258 </i>
    <i name="e_0_energy">   -116.76492258 </i>
   </energy>
  </scstep>
  <scstep>
   <time name="diag">    0.26    0.26</time>
   <time name="diis">    0.56    0.56</time>
   <time name="orth">    0.04    0.04</time>
   <time name="total">    0.94    0.96</time>
   <energy>
    <i name="alphaZ">     57.96393006 </i>
    <i name="ewald">  -2280.97209576 </i>
    <i name="hartreedc">   -514.09578879 </i>
    <i name="XCdc">     -5.93029173 </i>
    <i name="pawpsdc">  10727.31625325 </i>
    <i name="pawaedc"> -10527.34665226 </i>
    <i name="eentropy">      0.00000000 </i>
    <i name="bandstr">     85.22118595 </i>
    <i name="atom">   2341.07853652 </i>
    <i name="e_fr_energy">   -116.76492277 </i>
    <i name="e_wo_entrp">   -116.76492277 </i>
    <i name="e_0_energy">   -116.76492277 </i>
   </energy>
  </scstep>
  <structure>
   <crystal>
    <varray name="basis" >
     <v>       5.03718975       0.00365037       0.00479458 </v>
     <v>       0.00450323       6.29348335      -0.02045825 </v>
     <v>       0.00285396      -3.16439234       5.39239204 </v>
    </varray>
    <i name="volume">    170.62041273 </i>
    <varray name="rec_basis" >
     <v>       0.19852368      -0.00014267      -0.00018879 </v>
     <v>      -0.00020429       0.15919835       0.09342174 </v>
     <v>      -0.00017729       0.00060411       0.18580106 </v>
    </varray>
   </crystal>
   <varray name="positions" >
    <v>       0.99263758       0.66361156       0.82990285 </v>
    <v>       0.50725800       0.32505122       0.16960398 </v>
    <v>       0.50129114       0.83215850       0.67216960 </v>
    <v>       0.99302583       0.17012811       0.33399256 </v>
    <v>       0.99261972       0.66405569       0.33147193 </v>
    <v>       0.99309405       0.16882759       0.83673584 </v>
    <v>       0.50503126       0.83586778       0.16184870 </v>
    <v>       0.49878628       0.33540860       0.66380017 </v>
    <v>       0.38303490       0.17072775       0.32114344 </v>
    <v>       0.88674306       0.34907766       0.68145487 </v>
    <v>       0.86430958       0.82822089       0.67626174 </v>
    <v>       0.38750550       0.65808035       0.33446633 </v>
    <v>       0.38637486       0.15945796       0.84219772 </v>
    <v>       0.36048658       0.67915259       0.82624582 </v>
    <v>       0.85907196       0.33773785       0.16675428 </v>
    <v>       0.88872969       0.82243592       0.15195017 </v>
   </varray>
  </structure>
  <varray name="forces" >
   <v>      -0.00503952      -0.00171709       0.00298631 </v>
   <v>       0.00323458       0.00770227       0.00239283 </v>
   <v>       0.01129425      -0.00097406      -0.00490723 </v>
   <v>      -0.00462925      -0.00173743       0.01226049 </v>
   <v>      -0.00267138      -0.00096029       0.00268034 </v>
   <v>      -0.00100818       0.00234258       0.01426024 </v>
   <v>      -0.00298327       0.00469978      -0.00430399 </v>
   <v>      -0.00378482      -0.00032636      -0.01214964 </v>
   <v>      -0.00083286       0.00286290       0.00053415 </v>
   <v>       0.01000208       0.00833149       0.00355937 </v>
   <v>       0.00216566       0.00233541      -0.00581545 </v>
   <v>       0.00317616       0.00003005       0.00354046 </v>
   <v>       0.00066030      -0.01102704      -0.01000125 </v>
   <v>      -0.00806447      -0.00237548      -0.00756414 </v>
   <v>      -0.00082296      -0.01503403       0.00429433 </v>
   <v>      -0.00069632       0.00584732      -0.00176680 </v>
  </varray>
  <varray name="stress" >
   <v>      -0.05931106       0.07182553      -0.08930236 </v>
   <v>       0.07182536      -0.26601700      -0.01579089 </v>
   <v>      -0.08930249      -0.01579099      -0.13083664 </v>
  </varray>
  <energy>
   <i name="e_fr_energy">   -116.76492277 </i>
   <i name="e_wo_entrp">   -116.76492277 </i>
   <i name="e_0_energy">      0.00000000 </i>
  </energy>
  <time name="totalsc">   23.79   24.15</time>
  <eigenvalues>
   <array>
    <dimension dim="1">band</dimension>
    <dimension dim="2">kpoint</dimension>
    <dimension dim="3">spin</dimension>
    <field>eigene</field>
    <field>occ</field>
    <set>
     <set comment="spin 1">
      <set comment="kpoint 1">
       <r>   -9.2789    1.0000 </r>
       <r>   -7.8082    1.0000 </r>
       <r>   -7.4353    1.0000 </r>
       <r>   -7.2207    1.0000 </r>
       <r>   -6.7222    1.0000 </r>
       <r>   -3.6436    1.0000 </r>
       <r>   -3.0510    1.0000 </r>
       <r>   -2.4837    1.0000 </r>
       <r>   -0.6249    1.0000 </r>
       <r>   -0.2920    1.0000 </r>
       <r>    0.5259    1.0000 </r>
       <r>    1.0308    1.0000 </r>
       <r>    1.4742    1.0000 </r>
       <r>    1.8187    1.0000 </r>
       <r>    2.0818    1.0000 </r>
       <r>    2.4578    1.0000 </r>
       <r>    2.9128    1.0000 </r>
       <r>    3.1355    1.0000 </r>
       <r>    3.4330    1.0000 </r>
       <r>    3.7557    1.0000 </r>
       <r>    3.8290    1.0000 </r>
       <r>    4.2634    1.0000 </r>
       <r>    4.9997    1.0000 </r>
       <r>    5.1372    1.0000 </r>
       <r>    5.4276    1.0000 </r>
       <r>    5.4544    1.0000 </r>
       <r>    6.1616    1.0000 </r>
       <r>    6.4125    1.0000 </r>
       <r>    6.8739    1.0000 </r>
       <r>    7.0608    1.0000 </r>
       <r>    7.3807    1.0000 </r>
       <r>    7.7144    1.0000 </r>
       <r>   10.0221    0.0000 </r>
       <r>   10.6511    0.0000 </r>
       <r>   11.5160    0.0000 </r>
       <r>   11.5787    0.0000 </r>
       <r>   11.9229    0.0000 </r>
       <r>   12.3191    0.0000 </r>
       <r>   12.7605    0.0000 </r>
       <r>   12.8547    0.0000 </r>
       <r>   13.6846    0.0000 </r>
       <r>   14.5632    0.0000 </r>
       <r>   15.0276    0.0000 </r>
       <r>   15.3763    0.0000 </r>
      </set>
      <set comment="kpoint 2">
       <r>   -9.1141    1.0000 </r>
       <r>   -7.7896    1.0000 </r>
       <r>   -7.4398    1.0000 </r>
       <r>   -7.3117    1.0000 </r>
       <r>   -6.8254    1.0000 </r>
       <r>   -3.8796    1.0000 </r>
       <r>   -3.0499    1.0000 </r>
       <r>   -2.3945    1.0000 </r>
       <r>   -0.8705    1.0000 </r>
       <r>    0.0094    1.0000 </r>
       <r>    0.4253    1.0000 </r>
       <r>    0.7861    1.0000 </r>
       <r>    1.1960    1.0000 </r>
       <r>    1.4624    1.0000 </r>
       <r>    1.7094    1.0000 </r>
       <r>    2.5208    1.0000 </r>
       <r>    3.5172    1.0000 </r>
       <r>    3.6605    1.0000 </r>
       <r>    3.7738    1.0000 </r>
       <r>    4.0808    1.0000 </r>
       <r>    4.2686    1.0000 </r>
       <r>    4.6279    1.0000 </r>
       <r>    5.0671    1.0000 </r>
       <r>    5.1671    1.0000 </r>
       <r>    5.2824    1.0000 </r>
       <r>    5.7975    1.0000 </r>
       <r>    6.0819    1.0000 </r>
       <r>    6.3156    1.0000 </r>
       <r>    6.6825    1.0000 </r>
       <r>    6.8837    1.0000 </r>
       <r>    7.3221    1.0000 </r>
       <r>    7.5663    1.0000 </r>
       <r>   10.1490    0.0000 </r>
       <r>   10.6157    0.0000 </r>
       <r>   10.8996    0.0000 </r>
       <r>   11.1594    0.0000 </r>
       <r>   11.8612    0.0000 </r>
       <r>   12.3614    0.0000 </r>
       <r>   12.8443    0.0000 </r>
       <r>   13.4143    0.0000 </r>
       <r>   14.2725    0.0000 </r>
       <r>   14.6817    0.0000 </r>
       <r>   14.9958    0.0000 </r>
       <r>   15.3794    0.0000 </r>
      </set>
      <set comment="kpoint 3">
       <r>   -8.8764    1.0000 </r>
       <r>   -7.9583    1.0000 </r>
       <r>   -7.3645    1.0000 </r>
       <r>   -7.3137    1.0000 </r>
       <r>   -6.9918    1.0000 </r>
       <r>   -4.0238    1.0000 </r>
       <r>   -3.0652    1.0000 </r>
       <r>   -2.3011    1.0000 </r>
       <r>   -1.0055    1.0000 </r>
       <r>   -0.1750    1.0000 </r>
       <r>    0.1277    1.0000 </r>
       <r>    0.6624    1.0000 </r>
       <r>    0.9219    1.0000 </r>
       <r>    1.1725    1.0000 </r>
       <r>    2.7513    1.0000 </r>
       <r>    2.8808    1.0000 </r>
       <r>    3.6265    1.0000 </r>
       <r>    3.7073    1.0000 </r>
       <r>    4.1193    1.0000 </r>
       <r>    4.2762    1.0000 </r>
       <r>    4.4338    1.0000 </r>
       <r>    4.8239    1.0000 </r>
       <r>    4.8873    1.0000 </r>
       <r>    4.9906    1.0000 </r>
       <r>    5.2581    1.0000 </r>
       <r>    5.9433    1.0000 </r>
       <r>    6.0795    1.0000 </r>
       <r>    6.4934    1.0000 </r>
       <r>    6.6369    1.0000 </r>
       <r>    7.0214    1.0000 </r>
       <r>    7.1986    1.0000 </r>
       <r>    7.4139    1.0000 </r>
       <r>   10.0465    0.0000 </r>
       <r>   10.7786    0.0000 </r>
       <r>   10.9337    0.0000 </r>
       <r>   11.2091    0.0000 </r>
       <r>   11.7077    0.0000 </r>
       <r>   12.2515    0.0000 </r>
       <r>   13.1748    0.0000 </r>
       <r>   13.4829    0.0000 </r>
       <r>   13.6194    0.0000 </r>
       <r>   14.2711    0.0000 </r>
       <r>   14.3155    0.0000 </r>
       <r>   15.0205    0.0000 </r>
      </set>
      <set comment="kpoint 4">
       <r>   -9.1148    1.0000 </r>
       <r>   -8.0511    1.0000 </r>
       <r>   -7.5051    1.0000 </r>
       <r>   -7.1537    1.0000 </r>
       <r>   -6.7666    1.0000 </r>
       <r>   -3.6037    1.0000 </r>
       <r>   -3.1509    1.0000 </r>
       <r>   -2.4333    1.0000 </r>
       <r>   -0.3803    1.0000 </r>
       <r>   -0.0585    1.0000 </r>
       <r>    0.7608    1.0000 </r>
       <r>    1.1860    1.0000 </r>
       <r>    1.4325    1.0000 </r>
       <r>    2.0134    1.0000 </r>
       <r>    2.2656    1.0000 </r>
       <r>    2.5398    1.0000 </r>
       <r>    2.7369    1.0000 </r>
       <r>    2.9845    1.0000 </r>
       <r>    3.1164    1.0000 </r>
       <r>    3.5432    1.0000 </r>
       <r>    3.9873    1.0000 </r>
       <r>    4.3601    1.0000 </r>
       <r>    4.6405    1.0000 </r>
       <r>    5.0894    1.0000 </r>
       <r>    5.2045    1.0000 </r>
       <r>    5.6011    1.0000 </r>
       <r>    5.8467    1.0000 </r>
       <r>    6.0381    1.0000 </r>
       <r>    6.5269    1.0000 </r>
       <r>    6.5822    1.0000 </r>
       <r>    7.0755    1.0000 </r>
       <r>    7.4841    1.0000 </r>
       <r>   10.8999    0.0000 </r>
       <r>   11.3164    0.0000 </r>
       <r>   11.6452    0.0000 </r>
       <r>   11.9150    0.0000 </r>
       <r>   12.4038    0.0000 </r>
       <r>   12.7807    0.0000 </r>
       <r>   13.1300    0.0000 </r>
       <r>   13.5166    0.0000 </r>
       <r>   13.9968    0.0000 </r>
       <r>   14.7500    0.0000 </r>
       <r>   15.2451    0.0000 </r>
       <r>   15.3066    0.0000 </r>
      </set>
      <set comment="kpoint 5">
       <r>   -8.9564    1.0000 </r>
       <r>   -7.9738    1.0000 </r>
       <r>   -7.4541    1.0000 </r>
       <r>   -7.3013    1.0000 </r>
       <r>   -6.9178    1.0000 </r>
       <r>   -3.8237    1.0000 </r>
       <r>   -3.1920    1.0000 </r>
       <r>   -2.5212    1.0000 </r>
       <r>   -0.5364    1.0000 </r>
       <r>    0.2112    1.0000 </r>
       <r>    0.6856    1.0000 </r>
       <r>    1.0615    1.0000 </r>
       <r>    1.5187    1.0000 </r>
       <r>    1.8324    1.0000 </r>
       <r>    1.9551    1.0000 </r>
       <r>    2.4780    1.0000 </r>
       <r>    3.0122    1.0000 </r>
       <r>    3.1844    1.0000 </r>
       <r>    3.7008    1.0000 </r>
       <r>    3.8672    1.0000 </r>
       <r>    4.1320    1.0000 </r>
       <r>    4.5440    1.0000 </r>
       <r>    4.6930    1.0000 </r>
       <r>    5.0746    1.0000 </r>
       <r>    5.3512    1.0000 </r>
       <r>    5.6286    1.0000 </r>
       <r>    5.7565    1.0000 </r>
       <r>    5.9775    1.0000 </r>
       <r>    6.4733    1.0000 </r>
       <r>    6.5857    1.0000 </r>
       <r>    7.0157    1.0000 </r>
       <r>    7.4194    1.0000 </r>
       <r>   10.9239    0.0000 </r>
       <r>   11.0949    0.0000 </r>
       <r>   11.4096    0.0000 </r>
       <r>   11.7954    0.0000 </r>
       <r>   12.5173    0.0000 </r>
       <r>   12.7505    0.0000 </r>
       <r>   13.4235    0.0000 </r>
       <r>   13.7589    0.0000 </r>
       <r>   14.2616    0.0000 </r>
       <r>   14.6045    0.0000 </r>
       <r>   14.8223    0.0000 </r>
       <r>   15.4384    0.0000 </r>
      </set>
      <set comment="kpoint 6">
       <r>   -8.7298    1.0000 </r>
       <r>   -7.9363    1.0000 </r>
       <r>   -7.5355    1.0000 </r>
       <r>   -7.3347    1.0000 </r>
       <r>   -7.0815    1.0000 </r>
       <r>   -3.9984    1.0000 </r>
       <r>   -3.1755    1.0000 </r>
       <r>   -2.6588    1.0000 </r>
       <r>   -0.6536    1.0000 </r>
       <r>    0.1522    1.0000 </r>
       <r>    0.4747    1.0000 </r>
       <r>    1.2027    1.0000 </r>
       <r>    1.4481    1.0000 </r>
       <r>    1.5250    1.0000 </r>
       <r>    2.4606    1.0000 </r>
       <r>    2.8801    1.0000 </r>
       <r>    3.1912    1.0000 </r>
       <r>    3.3660    1.0000 </r>
       <r>    3.8510    1.0000 </r>
       <r>    4.0912    1.0000 </r>
       <r>    4.2115    1.0000 </r>
       <r>    4.3565    1.0000 </r>
       <r>    4.8310    1.0000 </r>
       <r>    4.9672    1.0000 </r>
       <r>    5.1497    1.0000 </r>
       <r>    5.7671    1.0000 </r>
       <r>    5.8200    1.0000 </r>
       <r>    6.1628    1.0000 </r>
       <r>    6.4621    1.0000 </r>
       <r>    6.6332    1.0000 </r>
       <r>    6.9688    1.0000 </r>
       <r>    7.3116    1.0000 </r>
       <r>   10.8397    0.0000 </r>
       <r>   11.2449    0.0000 </r>
       <r>   11.5334    0.0000 </r>
       <r>   11.7449    0.0000 </r>
       <r>   12.1920    0.0000 </r>
       <r>   12.5787    0.0000 </r>
       <r>   13.5590    0.0000 </r>
       <r>   13.8995    0.0000 </r>
       <r>   13.9962    0.0000 </r>
       <r>   14.2460    0.0000 </r>
       <r>   14.5585    0.0000 </r>
       <r>   15.4186    0.0000 </r>
      </set>
      <set comment="kpoint 7">
       <r>   -8.9555    1.0000 </r>
       <r>   -7.9426    1.0000 </r>
       <r>   -7.5590    1.0000 </r>
       <r>   -7.2519    1.0000 </r>
       <r>   -6.8893    1.0000 </r>
       <r>   -3.8603    1.0000 </r>
       <r>   -3.1117    1.0000 </r>
       <r>   -2.5759    1.0000 </r>
       <r>   -0.5167    1.0000 </r>
       <r>    0.2463    1.0000 </r>
       <r>    0.5142    1.0000 </r>
       <r>    1.1876    1.0000 </r>
       <r>    1.4313    1.0000 </r>
       <r>    1.9022    1.0000 </r>
       <r>    2.1252    1.0000 </r>
       <r>    2.3960    1.0000 </r>
       <r>    2.9392    1.0000 </r>
       <r>    3.1601    1.0000 </r>
       <r>    3.7173    1.0000 </r>
       <r>    3.9299    1.0000 </r>
       <r>    4.2444    1.0000 </r>
       <r>    4.3746    1.0000 </r>
       <r>    4.6149    1.0000 </r>
       <r>    5.0248    1.0000 </r>
       <r>    5.2356    1.0000 </r>
       <r>    5.7125    1.0000 </r>
       <r>    5.9320    1.0000 </r>
       <r>    6.0341    1.0000 </r>
       <r>    6.4615    1.0000 </r>
       <r>    6.6317    1.0000 </r>
       <r>    6.9837    1.0000 </r>
       <r>    7.3391    1.0000 </r>
       <r>   10.9340    0.0000 </r>
       <r>   11.0670    0.0000 </r>
       <r>   11.4396    0.0000 </r>
       <r>   11.8517    0.0000 </r>
       <r>   12.3381    0.0000 </r>
       <r>   12.9441    0.0000 </r>
       <r>   13.3505    0.0000 </r>
       <r>   13.8886    0.0000 </r>
       <r>   14.3613    0.0000 </r>
       <r>   14.5500    0.0000 </r>
       <r>   14.7451    0.0000 </r>
       <r>   15.0250    0.0000 </r>
      </set>
      <set comment="kpoint 8">
       <r>   -8.7920    1.0000 </r>
       <r>   -8.4630    1.0000 </r>
       <r>   -7.5432    1.0000 </r>
       <r>   -7.0787    1.0000 </r>
       <r>   -6.8332    1.0000 </r>
       <r>   -3.6079    1.0000 </r>
       <r>   -3.1597    1.0000 </r>
       <r>   -2.4569    1.0000 </r>
       <r>   -0.1184    1.0000 </r>
       <r>    0.4911    1.0000 </r>
       <r>    0.9609    1.0000 </r>
       <r>    1.2048    1.0000 </r>
       <r>    1.4912    1.0000 </r>
       <r>    1.9833    1.0000 </r>
       <r>    2.1663    1.0000 </r>
       <r>    2.2085    1.0000 </r>
       <r>    2.7937    1.0000 </r>
       <r>    3.0099    1.0000 </r>
       <r>    3.4009    1.0000 </r>
       <r>    3.5502    1.0000 </r>
       <r>    3.9004    1.0000 </r>
       <r>    4.2280    1.0000 </r>
       <r>    4.6208    1.0000 </r>
       <r>    4.7518    1.0000 </r>
       <r>    5.1522    1.0000 </r>
       <r>    5.3178    1.0000 </r>
       <r>    5.4116    1.0000 </r>
       <r>    5.8950    1.0000 </r>
       <r>    6.0237    1.0000 </r>
       <r>    6.2334    1.0000 </r>
       <r>    7.1203    1.0000 </r>
       <r>    7.3499    1.0000 </r>
       <r>   11.4310    0.0000 </r>
       <r>   11.7128    0.0000 </r>
       <r>   11.7811    0.0000 </r>
       <r>   12.5229    0.0000 </r>
       <r>   13.1968    0.0000 </r>
       <r>   13.5178    0.0000 </r>
       <r>   13.7893    0.0000 </r>
       <r>   14.0167    0.0000 </r>
       <r>   14.1936    0.0000 </r>
       <r>   14.7709    0.0000 </r>
       <r>   14.9233    0.0000 </r>
       <r>   15.3082    0.0000 </r>
      </set>
      <set comment="kpoint 9">
       <r>   -8.6489    1.0000 </r>
       <r>   -8.3273    1.0000 </r>
       <r>   -7.5296    1.0000 </r>
       <r>   -7.1571    1.0000 </r>
       <r>   -7.0515    1.0000 </r>
       <r>   -3.8196    1.0000 </r>
       <r>   -3.2131    1.0000 </r>
       <r>   -2.7222    1.0000 </r>
       <r>    0.0650    1.0000 </r>
       <r>    0.4904    1.0000 </r>
       <r>    0.8164    1.0000 </r>
       <r>    1.3647    1.0000 </r>
       <r>    1.7618    1.0000 </r>
       <r>    1.7830    1.0000 </r>
       <r>    2.2337    1.0000 </r>
       <r>    2.5141    1.0000 </r>
       <r>    2.9544    1.0000 </r>
       <r>    3.2915    1.0000 </r>
       <r>    3.4284    1.0000 </r>
       <r>    3.6612    1.0000 </r>
       <r>    3.8809    1.0000 </r>
       <r>    4.1229    1.0000 </r>
       <r>    4.3368    1.0000 </r>
       <r>    4.5427    1.0000 </r>
       <r>    5.1711    1.0000 </r>
       <r>    5.4731    1.0000 </r>
       <r>    5.6078    1.0000 </r>
       <r>    5.8547    1.0000 </r>
       <r>    6.2110    1.0000 </r>
       <r>    6.2783    1.0000 </r>
       <r>    7.1144    1.0000 </r>
       <r>    7.2726    1.0000 </r>
       <r>   11.5987    0.0000 </r>
       <r>   11.9579    0.0000 </r>
       <r>   12.2279    0.0000 </r>
       <r>   12.3085    0.0000 </r>
       <r>   12.9694    0.0000 </r>
       <r>   13.0555    0.0000 </r>
       <r>   13.3981    0.0000 </r>
       <r>   13.9368    0.0000 </r>
       <r>   14.0734    0.0000 </r>
       <r>   14.3036    0.0000 </r>
       <r>   14.7474    0.0000 </r>
       <r>   15.1635    0.0000 </r>
      </set>
      <set comment="kpoint 10">
       <r>   -8.4591    1.0000 </r>
       <r>   -8.1297    1.0000 </r>
       <r>   -7.5797    1.0000 </r>
       <r>   -7.3090    1.0000 </r>
       <r>   -7.2476    1.0000 </r>
       <r>   -3.9653    1.0000 </r>
       <r>   -3.2825    1.0000 </r>
       <r>   -2.9476    1.0000 </r>
       <r>   -0.0204    1.0000 </r>
       <r>    0.4611    1.0000 </r>
       <r>    0.7964    1.0000 </r>
       <r>    1.7101    1.0000 </r>
       <r>    1.7796    1.0000 </r>
       <r>    1.9819    1.0000 </r>
       <r>    2.4360    1.0000 </r>
       <r>    2.8050    1.0000 </r>
       <r>    2.8735    1.0000 </r>
       <r>    3.0764    1.0000 </r>
       <r>    3.3933    1.0000 </r>
       <r>    3.6500    1.0000 </r>
       <r>    3.8485    1.0000 </r>
       <r>    4.3448    1.0000 </r>
       <r>    4.5314    1.0000 </r>
       <r>    4.7649    1.0000 </r>
       <r>    5.0667    1.0000 </r>
       <r>    5.4350    1.0000 </r>
       <r>    5.6182    1.0000 </r>
       <r>    5.9168    1.0000 </r>
       <r>    6.1784    1.0000 </r>
       <r>    6.3930    1.0000 </r>
       <r>    6.8795    1.0000 </r>
       <r>    7.2767    1.0000 </r>
       <r>   11.6566    0.0000 </r>
       <r>   12.0983    0.0000 </r>
       <r>   12.3282    0.0000 </r>
       <r>   12.5591    0.0000 </r>
       <r>   12.7120    0.0000 </r>
       <r>   12.9319    0.0000 </r>
       <r>   13.0598    0.0000 </r>
       <r>   13.3005    0.0000 </r>
       <r>   13.9980    0.0000 </r>
       <r>   14.4739    0.0000 </r>
       <r>   14.9087    0.0000 </r>
       <r>   15.4009    0.0000 </r>
      </set>
      <set comment="kpoint 11">
       <r>   -9.1085    1.0000 </r>
       <r>   -8.0146    1.0000 </r>
       <r>   -7.6700    1.0000 </r>
       <r>   -7.0571    1.0000 </r>
       <r>   -6.6936    1.0000 </r>
       <r>   -3.7252    1.0000 </r>
       <r>   -3.2785    1.0000 </r>
       <r>   -2.2479    1.0000 </r>
       <r>   -0.3073    1.0000 </r>
       <r>   -0.0507    1.0000 </r>
       <r>    0.7561    1.0000 </r>
       <r>    1.2283    1.0000 </r>
       <r>    1.5174    1.0000 </r>
       <r>    1.9863    1.0000 </r>
       <r>    2.0992    1.0000 </r>
       <r>    2.4208    1.0000 </r>
       <r>    2.7343    1.0000 </r>
       <r>    3.0113    1.0000 </r>
       <r>    3.4572    1.0000 </r>
       <r>    3.5795    1.0000 </r>
       <r>    3.8373    1.0000 </r>
       <r>    4.2452    1.0000 </r>
       <r>    4.7495    1.0000 </r>
       <r>    4.9835    1.0000 </r>
       <r>    5.1683    1.0000 </r>
       <r>    5.4849    1.0000 </r>
       <r>    5.8098    1.0000 </r>
       <r>    5.9733    1.0000 </r>
       <r>    6.3786    1.0000 </r>
       <r>    6.8807    1.0000 </r>
       <r>    7.1345    1.0000 </r>
       <r>    7.4934    1.0000 </r>
       <r>   10.9265    0.0000 </r>
       <r>   11.2970    0.0000 </r>
       <r>   11.5897    0.0000 </r>
       <r>   12.1523    0.0000 </r>
       <r>   12.3763    0.0000 </r>
       <r>   12.7246    0.0000 </r>
       <r>   13.0145    0.0000 </r>
       <r>   13.5620    0.0000 </r>
       <r>   14.1503    0.0000 </r>
       <r>   14.5390    0.0000 </r>
       <r>   15.0414    0.0000 </r>
       <r>   15.5049    0.0000 </r>
      </set>
      <set comment="kpoint 12">
       <r>   -8.9566    1.0000 </r>
       <r>   -7.9129    1.0000 </r>
       <r>   -7.6293    1.0000 </r>
       <r>   -7.2545    1.0000 </r>
       <r>   -6.8066    1.0000 </r>
       <r>   -3.9884    1.0000 </r>
       <r>   -3.2656    1.0000 </r>
       <r>   -2.2985    1.0000 </r>
       <r>   -0.4773    1.0000 </r>
       <r>    0.2448    1.0000 </r>
       <r>    0.5818    1.0000 </r>
       <r>    1.1276    1.0000 </r>
       <r>    1.4842    1.0000 </r>
       <r>    1.6882    1.0000 </r>
       <r>    2.0958    1.0000 </r>
       <r>    2.4843    1.0000 </r>
       <r>    2.9061    1.0000 </r>
       <r>    3.0586    1.0000 </r>
       <r>    3.8251    1.0000 </r>
       <r>    4.0685    1.0000 </r>
       <r>    4.2519    1.0000 </r>
       <r>    4.4537    1.0000 </r>
       <r>    4.8079    1.0000 </r>
       <r>    5.0565    1.0000 </r>
       <r>    5.1401    1.0000 </r>
       <r>    5.5073    1.0000 </r>
       <r>    5.5949    1.0000 </r>
       <r>    5.9951    1.0000 </r>
       <r>    6.3863    1.0000 </r>
       <r>    6.7638    1.0000 </r>
       <r>    7.1263    1.0000 </r>
       <r>    7.4000    1.0000 </r>
       <r>   10.9046    0.0000 </r>
       <r>   11.0786    0.0000 </r>
       <r>   11.4052    0.0000 </r>
       <r>   12.0587    0.0000 </r>
       <r>   12.3661    0.0000 </r>
       <r>   12.7559    0.0000 </r>
       <r>   13.3174    0.0000 </r>
       <r>   13.9328    0.0000 </r>
       <r>   14.2925    0.0000 </r>
       <r>   14.5529    0.0000 </r>
       <r>   14.8280    0.0000 </r>
       <r>   14.9503    0.0000 </r>
      </set>
      <set comment="kpoint 13">
       <r>   -8.7267    1.0000 </r>
       <r>   -7.9584    1.0000 </r>
       <r>   -7.5624    1.0000 </r>
       <r>   -7.3380    1.0000 </r>
       <r>   -6.9844    1.0000 </r>
       <r>   -4.2363    1.0000 </r>
       <r>   -3.1709    1.0000 </r>
       <r>   -2.3950    1.0000 </r>
       <r>   -0.6487    1.0000 </r>
       <r>    0.1225    1.0000 </r>
       <r>    0.4713    1.0000 </r>
       <r>    1.1124    1.0000 </r>
       <r>    1.3242    1.0000 </r>
       <r>    1.6872    1.0000 </r>
       <r>    2.4758    1.0000 </r>
       <r>    2.8265    1.0000 </r>
       <r>    3.1278    1.0000 </r>
       <r>    3.4527    1.0000 </r>
       <r>    3.7526    1.0000 </r>
       <r>    4.2368    1.0000 </r>
       <r>    4.3082    1.0000 </r>
       <r>    4.4849    1.0000 </r>
       <r>    4.8626    1.0000 </r>
       <r>    5.0083    1.0000 </r>
       <r>    5.1439    1.0000 </r>
       <r>    5.4861    1.0000 </r>
       <r>    5.5576    1.0000 </r>
       <r>    6.1567    1.0000 </r>
       <r>    6.3127    1.0000 </r>
       <r>    6.8595    1.0000 </r>
       <r>    7.1032    1.0000 </r>
       <r>    7.3199    1.0000 </r>
       <r>   10.8601    0.0000 </r>
       <r>   11.2832    0.0000 </r>
       <r>   11.5816    0.0000 </r>
       <r>   11.7205    0.0000 </r>
       <r>   11.9625    0.0000 </r>
       <r>   12.7840    0.0000 </r>
       <r>   13.5670    0.0000 </r>
       <r>   13.8902    0.0000 </r>
       <r>   14.0353    0.0000 </r>
       <r>   14.1972    0.0000 </r>
       <r>   14.3777    0.0000 </r>
       <r>   15.2414    0.0000 </r>
      </set>
      <set comment="kpoint 14">
       <r>   -8.9442    1.0000 </r>
       <r>   -7.9896    1.0000 </r>
       <r>   -7.5870    1.0000 </r>
       <r>   -7.2182    1.0000 </r>
       <r>   -6.8100    1.0000 </r>
       <r>   -4.0320    1.0000 </r>
       <r>   -3.2067    1.0000 </r>
       <r>   -2.3405    1.0000 </r>
       <r>   -0.4739    1.0000 </r>
       <r>    0.2242    1.0000 </r>
       <r>    0.5799    1.0000 </r>
       <r>    1.2533    1.0000 </r>
       <r>    1.4423    1.0000 </r>
       <r>    1.7548    1.0000 </r>
       <r>    1.9370    1.0000 </r>
       <r>    2.5321    1.0000 </r>
       <r>    2.9209    1.0000 </r>
       <r>    3.2045    1.0000 </r>
       <r>    3.6087    1.0000 </r>
       <r>    4.0624    1.0000 </r>
       <r>    4.2480    1.0000 </r>
       <r>    4.4186    1.0000 </r>
       <r>    4.8453    1.0000 </r>
       <r>    5.0213    1.0000 </r>
       <r>    5.2008    1.0000 </r>
       <r>    5.4646    1.0000 </r>
       <r>    5.6857    1.0000 </r>
       <r>    6.0051    1.0000 </r>
       <r>    6.3335    1.0000 </r>
       <r>    6.8889    1.0000 </r>
       <r>    7.0477    1.0000 </r>
       <r>    7.3850    1.0000 </r>
       <r>   10.8924    0.0000 </r>
       <r>   11.0458    0.0000 </r>
       <r>   11.4182    0.0000 </r>
       <r>   11.9712    0.0000 </r>
       <r>   12.3064    0.0000 </r>
       <r>   12.8274    0.0000 </r>
       <r>   13.4858    0.0000 </r>
       <r>   13.8823    0.0000 </r>
       <r>   14.2648    0.0000 </r>
       <r>   14.5904    0.0000 </r>
       <r>   15.0580    0.0000 </r>
       <r>   15.3681    0.0000 </r>
      </set>
      <set comment="kpoint 15">
       <r>   -8.7973    1.0000 </r>
       <r>   -8.4153    1.0000 </r>
       <r>   -7.7081    1.0000 </r>
       <r>   -6.9771    1.0000 </r>
       <r>   -6.7666    1.0000 </r>
       <r>   -3.7409    1.0000 </r>
       <r>   -3.2530    1.0000 </r>
       <r>   -2.2833    1.0000 </r>
       <r>   -0.0564    1.0000 </r>
       <r>    0.4768    1.0000 </r>
       <r>    1.0029    1.0000 </r>
       <r>    1.2207    1.0000 </r>
       <r>    1.4012    1.0000 </r>
       <r>    1.8352    1.0000 </r>
       <r>    2.0842    1.0000 </r>
       <r>    2.5091    1.0000 </r>
       <r>    2.9907    1.0000 </r>
       <r>    3.0983    1.0000 </r>
       <r>    3.3794    1.0000 </r>
       <r>    3.5361    1.0000 </r>
       <r>    3.8719    1.0000 </r>
       <r>    4.0399    1.0000 </r>
       <r>    4.3485    1.0000 </r>
       <r>    4.6208    1.0000 </r>
       <r>    5.1408    1.0000 </r>
       <r>    5.3348    1.0000 </r>
       <r>    5.6345    1.0000 </r>
       <r>    5.9591    1.0000 </r>
       <r>    5.9855    1.0000 </r>
       <r>    6.3429    1.0000 </r>
       <r>    7.0548    1.0000 </r>
       <r>    7.2161    1.0000 </r>
       <r>   11.0735    0.0000 </r>
       <r>   11.9310    0.0000 </r>
       <r>   12.5228    0.0000 </r>
       <r>   12.8222    0.0000 </r>
       <r>   13.0726    0.0000 </r>
       <r>   13.3028    0.0000 </r>
       <r>   13.5942    0.0000 </r>
       <r>   14.0770    0.0000 </r>
       <r>   14.3285    0.0000 </r>
       <r>   14.6766    0.0000 </r>
       <r>   14.8168    0.0000 </r>
       <r>   15.4985    0.0000 </r>
      </set>
      <set comment="kpoint 16">
       <r>   -8.6591    1.0000 </r>
       <r>   -8.3007    1.0000 </r>
       <r>   -7.5859    1.0000 </r>
       <r>   -7.2084    1.0000 </r>
       <r>   -6.9266    1.0000 </r>
       <r>   -3.9898    1.0000 </r>
       <r>   -3.2596    1.0000 </r>
       <r>   -2.5095    1.0000 </r>
       <r>    0.1269    1.0000 </r>
       <r>    0.4774    1.0000 </r>
       <r>    0.7927    1.0000 </r>
       <r>    1.4143    1.0000 </r>
       <r>    1.5584    1.0000 </r>
       <r>    1.9013    1.0000 </r>
       <r>    2.0984    1.0000 </r>
       <r>    2.6784    1.0000 </r>
       <r>    2.8201    1.0000 </r>
       <r>    3.1239    1.0000 </r>
       <r>    3.5215    1.0000 </r>
       <r>    3.7647    1.0000 </r>
       <r>    4.0227    1.0000 </r>
       <r>    4.1120    1.0000 </r>
       <r>    4.4943    1.0000 </r>
       <r>    4.8056    1.0000 </r>
       <r>    5.0714    1.0000 </r>
       <r>    5.2066    1.0000 </r>
       <r>    5.5820    1.0000 </r>
       <r>    5.7910    1.0000 </r>
       <r>    5.8921    1.0000 </r>
       <r>    6.5319    1.0000 </r>
       <r>    7.0127    1.0000 </r>
       <r>    7.2648    1.0000 </r>
       <r>   11.6204    0.0000 </r>
       <r>   11.8374    0.0000 </r>
       <r>   12.3036    0.0000 </r>
       <r>   12.7161    0.0000 </r>
       <r>   12.9772    0.0000 </r>
       <r>   13.3000    0.0000 </r>
       <r>   13.4871    0.0000 </r>
       <r>   13.8777    0.0000 </r>
       <r>   14.0415    0.0000 </r>
       <r>   14.5063    0.0000 </r>
       <r>   14.7167    0.0000 </r>
       <r>   15.2239    0.0000 </r>
      </set>
      <set comment="kpoint 17">
       <r>   -8.4588    1.0000 </r>
       <r>   -8.1272    1.0000 </r>
       <r>   -7.6493    1.0000 </r>
       <r>   -7.3401    1.0000 </r>
       <r>   -7.1032    1.0000 </r>
       <r>   -4.2440    1.0000 </r>
       <r>   -3.2627    1.0000 </r>
       <r>   -2.6646    1.0000 </r>
       <r>    0.0053    1.0000 </r>
       <r>    0.4270    1.0000 </r>
       <r>    0.7882    1.0000 </r>
       <r>    1.4549    1.0000 </r>
       <r>    1.8818    1.0000 </r>
       <r>    2.0787    1.0000 </r>
       <r>    2.1751    1.0000 </r>
       <r>    2.7963    1.0000 </r>
       <r>    3.0407    1.0000 </r>
       <r>    3.1121    1.0000 </r>
       <r>    3.4437    1.0000 </r>
       <r>    3.7243    1.0000 </r>
       <r>    3.9190    1.0000 </r>
       <r>    4.4351    1.0000 </r>
       <r>    4.6205    1.0000 </r>
       <r>    4.8915    1.0000 </r>
       <r>    5.0229    1.0000 </r>
       <r>    5.3558    1.0000 </r>
       <r>    5.4876    1.0000 </r>
       <r>    5.7661    1.0000 </r>
       <r>    5.9596    1.0000 </r>
       <r>    6.4423    1.0000 </r>
       <r>    6.9869    1.0000 </r>
       <r>    7.1872    1.0000 </r>
       <r>   11.7571    0.0000 </r>
       <r>   12.0363    0.0000 </r>
       <r>   12.3736    0.0000 </r>
       <r>   12.4826    0.0000 </r>
       <r>   12.6666    0.0000 </r>
       <r>   13.2105    0.0000 </r>
       <r>   13.4279    0.0000 </r>
       <r>   13.5626    0.0000 </r>
       <r>   13.9903    0.0000 </r>
       <r>   14.3045    0.0000 </r>
       <r>   14.4646    0.0000 </r>
       <r>   14.8464    0.0000 </r>
      </set>
      <set comment="kpoint 18">
       <r>   -8.6417    1.0000 </r>
       <r>   -8.3002    1.0000 </r>
       <r>   -7.6949    1.0000 </r>
       <r>   -7.1342    1.0000 </r>
       <r>   -6.8879    1.0000 </r>
       <r>   -4.0284    1.0000 </r>
       <r>   -3.2866    1.0000 </r>
       <r>   -2.4723    1.0000 </r>
       <r>    0.1383    1.0000 </r>
       <r>    0.5013    1.0000 </r>
       <r>    0.7444    1.0000 </r>
       <r>    1.3826    1.0000 </r>
       <r>    1.6950    1.0000 </r>
       <r>    1.8933    1.0000 </r>
       <r>    2.0873    1.0000 </r>
       <r>    2.6654    1.0000 </r>
       <r>    2.8878    1.0000 </r>
       <r>    3.1540    1.0000 </r>
       <r>    3.4981    1.0000 </r>
       <r>    3.7029    1.0000 </r>
       <r>    3.8085    1.0000 </r>
       <r>    4.1197    1.0000 </r>
       <r>    4.4175    1.0000 </r>
       <r>    4.6601    1.0000 </r>
       <r>    5.2491    1.0000 </r>
       <r>    5.3808    1.0000 </r>
       <r>    5.6321    1.0000 </r>
       <r>    5.8532    1.0000 </r>
       <r>    5.9499    1.0000 </r>
       <r>    6.4342    1.0000 </r>
       <r>    6.9467    1.0000 </r>
       <r>    7.2748    1.0000 </r>
       <r>   11.6443    0.0000 </r>
       <r>   11.7957    0.0000 </r>
       <r>   12.3217    0.0000 </r>
       <r>   12.6467    0.0000 </r>
       <r>   12.9763    0.0000 </r>
       <r>   13.2762    0.0000 </r>
       <r>   13.5159    0.0000 </r>
       <r>   13.8475    0.0000 </r>
       <r>   14.1326    0.0000 </r>
       <r>   14.4458    0.0000 </r>
       <r>   14.6289    0.0000 </r>
       <r>   15.1289    0.0000 </r>
      </set>
      <set comment="kpoint 19">
       <r>   -8.8818    1.0000 </r>
       <r>   -8.3359    1.0000 </r>
       <r>   -7.5896    1.0000 </r>
       <r>   -7.0575    1.0000 </r>
       <r>   -6.8190    1.0000 </r>
       <r>   -3.6231    1.0000 </r>
       <r>   -3.2330    1.0000 </r>
       <r>   -2.3980    1.0000 </r>
       <r>   -0.2507    1.0000 </r>
       <r>    0.2642    1.0000 </r>
       <r>    0.8477    1.0000 </r>
       <r>    1.4333    1.0000 </r>
       <r>    1.7993    1.0000 </r>
       <r>    2.0270    1.0000 </r>
       <r>    2.2950    1.0000 </r>
       <r>    2.5718    1.0000 </r>
       <r>    2.6601    1.0000 </r>
       <r>    3.1613    1.0000 </r>
       <r>    3.2905    1.0000 </r>
       <r>    3.4640    1.0000 </r>
       <r>    3.7218    1.0000 </r>
       <r>    3.9456    1.0000 </r>
       <r>    4.4011    1.0000 </r>
       <r>    4.7841    1.0000 </r>
       <r>    5.1424    1.0000 </r>
       <r>    5.4246    1.0000 </r>
       <r>    5.6162    1.0000 </r>
       <r>    5.8196    1.0000 </r>
       <r>    5.9952    1.0000 </r>
       <r>    6.3967    1.0000 </r>
       <r>    7.0936    1.0000 </r>
       <r>    7.1706    1.0000 </r>
       <r>   10.9688    0.0000 </r>
       <r>   11.7025    0.0000 </r>
       <r>   12.3648    0.0000 </r>
       <r>   12.9299    0.0000 </r>
       <r>   13.1243    0.0000 </r>
       <r>   13.3139    0.0000 </r>
       <r>   13.7998    0.0000 </r>
       <r>   14.1395    0.0000 </r>
       <r>   14.3256    0.0000 </r>
       <r>   14.4934    0.0000 </r>
       <r>   14.7876    0.0000 </r>
       <r>   15.1285    0.0000 </r>
      </set>
      <set comment="kpoint 20">
       <r>   -8.7533    1.0000 </r>
       <r>   -8.1873    1.0000 </r>
       <r>   -7.5183    1.0000 </r>
       <r>   -7.1982    1.0000 </r>
       <r>   -7.0353    1.0000 </r>
       <r>   -3.8691    1.0000 </r>
       <r>   -3.2264    1.0000 </r>
       <r>   -2.6859    1.0000 </r>
       <r>   -0.2533    1.0000 </r>
       <r>    0.5709    1.0000 </r>
       <r>    0.9741    1.0000 </r>
       <r>    1.3330    1.0000 </r>
       <r>    1.8561    1.0000 </r>
       <r>    2.0413    1.0000 </r>
       <r>    2.4230    1.0000 </r>
       <r>    2.6544    1.0000 </r>
       <r>    2.7737    1.0000 </r>
       <r>    3.0553    1.0000 </r>
       <r>    3.2677    1.0000 </r>
       <r>    3.5780    1.0000 </r>
       <r>    3.7743    1.0000 </r>
       <r>    4.2734    1.0000 </r>
       <r>    4.4041    1.0000 </r>
       <r>    4.7663    1.0000 </r>
       <r>    5.1039    1.0000 </r>
       <r>    5.2712    1.0000 </r>
       <r>    5.6122    1.0000 </r>
       <r>    5.9474    1.0000 </r>
       <r>    6.0827    1.0000 </r>
       <r>    6.3800    1.0000 </r>
       <r>    7.0951    1.0000 </r>
       <r>    7.1723    1.0000 </r>
       <r>   11.5507    0.0000 </r>
       <r>   11.7963    0.0000 </r>
       <r>   12.1117    0.0000 </r>
       <r>   12.7728    0.0000 </r>
       <r>   12.9972    0.0000 </r>
       <r>   13.1257    0.0000 </r>
       <r>   13.5280    0.0000 </r>
       <r>   13.9501    0.0000 </r>
       <r>   14.0877    0.0000 </r>
       <r>   14.3588    0.0000 </r>
       <r>   14.5801    0.0000 </r>
       <r>   14.9511    0.0000 </r>
      </set>
      <set comment="kpoint 21">
       <r>   -8.5732    1.0000 </r>
       <r>   -7.9929    1.0000 </r>
       <r>   -7.5166    1.0000 </r>
       <r>   -7.3451    1.0000 </r>
       <r>   -7.2641    1.0000 </r>
       <r>   -4.0440    1.0000 </r>
       <r>   -3.3506    1.0000 </r>
       <r>   -2.8482    1.0000 </r>
       <r>   -0.3403    1.0000 </r>
       <r>    0.7900    1.0000 </r>
       <r>    0.9686    1.0000 </r>
       <r>    1.5878    1.0000 </r>
       <r>    1.9635    1.0000 </r>
       <r>    2.1609    1.0000 </r>
       <r>    2.3619    1.0000 </r>
       <r>    2.4796    1.0000 </r>
       <r>    2.8443    1.0000 </r>
       <r>    3.0279    1.0000 </r>
       <r>    3.3577    1.0000 </r>
       <r>    3.5943    1.0000 </r>
       <r>    3.9673    1.0000 </r>
       <r>    4.3663    1.0000 </r>
       <r>    4.6118    1.0000 </r>
       <r>    4.9424    1.0000 </r>
       <r>    5.0955    1.0000 </r>
       <r>    5.3518    1.0000 </r>
       <r>    5.4375    1.0000 </r>
       <r>    6.0085    1.0000 </r>
       <r>    6.1162    1.0000 </r>
       <r>    6.3232    1.0000 </r>
       <r>    6.9827    1.0000 </r>
       <r>    7.1461    1.0000 </r>
       <r>   11.4628    0.0000 </r>
       <r>   12.1156    0.0000 </r>
       <r>   12.4357    0.0000 </r>
       <r>   12.5937    0.0000 </r>
       <r>   12.7262    0.0000 </r>
       <r>   13.1455    0.0000 </r>
       <r>   13.2192    0.0000 </r>
       <r>   13.5526    0.0000 </r>
       <r>   13.8193    0.0000 </r>
       <r>   14.2445    0.0000 </r>
       <r>   14.5250    0.0000 </r>
       <r>   15.3260    0.0000 </r>
      </set>
      <set comment="kpoint 22">
       <r>   -8.7408    1.0000 </r>
       <r>   -8.2052    1.0000 </r>
       <r>   -7.5725    1.0000 </r>
       <r>   -7.1504    1.0000 </r>
       <r>   -7.0078    1.0000 </r>
       <r>   -3.8610    1.0000 </r>
       <r>   -3.3445    1.0000 </r>
       <r>   -2.5993    1.0000 </r>
       <r>   -0.2689    1.0000 </r>
       <r>    0.6704    1.0000 </r>
       <r>    0.9792    1.0000 </r>
       <r>    1.4924    1.0000 </r>
       <r>    1.6273    1.0000 </r>
       <r>    1.9714    1.0000 </r>
       <r>    2.3671    1.0000 </r>
       <r>    2.7048    1.0000 </r>
       <r>    2.7997    1.0000 </r>
       <r>    3.1561    1.0000 </r>
       <r>    3.3142    1.0000 </r>
       <r>    3.5500    1.0000 </r>
       <r>    3.7219    1.0000 </r>
       <r>    4.1174    1.0000 </r>
       <r>    4.3589    1.0000 </r>
       <r>    4.7809    1.0000 </r>
       <r>    5.1242    1.0000 </r>
       <r>    5.4967    1.0000 </r>
       <r>    5.6386    1.0000 </r>
       <r>    5.8308    1.0000 </r>
       <r>    6.1433    1.0000 </r>
       <r>    6.3493    1.0000 </r>
       <r>    7.0653    1.0000 </r>
       <r>    7.1871    1.0000 </r>
       <r>   11.5107    0.0000 </r>
       <r>   11.6591    0.0000 </r>
       <r>   12.1561    0.0000 </r>
       <r>   12.8284    0.0000 </r>
       <r>   13.0002    0.0000 </r>
       <r>   13.3481    0.0000 </r>
       <r>   13.4612    0.0000 </r>
       <r>   13.9119    0.0000 </r>
       <r>   14.1307    0.0000 </r>
       <r>   14.3538    0.0000 </r>
       <r>   14.5505    0.0000 </r>
       <r>   15.0855    0.0000 </r>
      </set>
      <set comment="kpoint 23">
       <r>   -9.1400    1.0000 </r>
       <r>   -8.0328    1.0000 </r>
       <r>   -7.4366    1.0000 </r>
       <r>   -7.1992    1.0000 </r>
       <r>   -6.7536    1.0000 </r>
       <r>   -3.6466    1.0000 </r>
       <r>   -3.2112    1.0000 </r>
       <r>   -2.3673    1.0000 </r>
       <r>   -0.5304    1.0000 </r>
       <r>   -0.1076    1.0000 </r>
       <r>    0.9687    1.0000 </r>
       <r>    1.2485    1.0000 </r>
       <r>    1.3539    1.0000 </r>
       <r>    1.9280    1.0000 </r>
       <r>    2.4191    1.0000 </r>
       <r>    2.5719    1.0000 </r>
       <r>    2.8327    1.0000 </r>
       <r>    2.9888    1.0000 </r>
       <r>    3.4249    1.0000 </r>
       <r>    3.4992    1.0000 </r>
       <r>    3.7735    1.0000 </r>
       <r>    4.2932    1.0000 </r>
       <r>    4.5905    1.0000 </r>
       <r>    5.0090    1.0000 </r>
       <r>    5.1961    1.0000 </r>
       <r>    5.4641    1.0000 </r>
       <r>    5.6367    1.0000 </r>
       <r>    6.0842    1.0000 </r>
       <r>    6.5104    1.0000 </r>
       <r>    6.9533    1.0000 </r>
       <r>    7.0654    1.0000 </r>
       <r>    7.4448    1.0000 </r>
       <r>   10.5665    0.0000 </r>
       <r>   11.3948    0.0000 </r>
       <r>   11.7083    0.0000 </r>
       <r>   11.8775    0.0000 </r>
       <r>   12.5895    0.0000 </r>
       <r>   12.8804    0.0000 </r>
       <r>   13.0580    0.0000 </r>
       <r>   13.4144    0.0000 </r>
       <r>   13.9803    0.0000 </r>
       <r>   14.8989    0.0000 </r>
       <r>   15.1031    0.0000 </r>
       <r>   15.6735    0.0000 </r>
      </set>
      <set comment="kpoint 24">
       <r>   -8.9915    1.0000 </r>
       <r>   -7.8932    1.0000 </r>
       <r>   -7.4904    1.0000 </r>
       <r>   -7.3146    1.0000 </r>
       <r>   -6.8797    1.0000 </r>
       <r>   -3.8857    1.0000 </r>
       <r>   -3.2482    1.0000 </r>
       <r>   -2.4481    1.0000 </r>
       <r>   -0.6912    1.0000 </r>
       <r>    0.3265    1.0000 </r>
       <r>    0.8253    1.0000 </r>
       <r>    0.9542    1.0000 </r>
       <r>    1.4792    1.0000 </r>
       <r>    1.8144    1.0000 </r>
       <r>    2.0373    1.0000 </r>
       <r>    2.5167    1.0000 </r>
       <r>    3.2137    1.0000 </r>
       <r>    3.3920    1.0000 </r>
       <r>    3.6172    1.0000 </r>
       <r>    3.8340    1.0000 </r>
       <r>    4.1150    1.0000 </r>
       <r>    4.3623    1.0000 </r>
       <r>    4.5344    1.0000 </r>
       <r>    5.0469    1.0000 </r>
       <r>    5.1115    1.0000 </r>
       <r>    5.4586    1.0000 </r>
       <r>    5.8935    1.0000 </r>
       <r>    6.1374    1.0000 </r>
       <r>    6.5078    1.0000 </r>
       <r>    6.9030    1.0000 </r>
       <r>    6.9759    1.0000 </r>
       <r>    7.3086    1.0000 </r>
       <r>   10.6071    0.0000 </r>
       <r>   11.2669    0.0000 </r>
       <r>   11.4414    0.0000 </r>
       <r>   11.8630    0.0000 </r>
       <r>   12.2934    0.0000 </r>
       <r>   13.0200    0.0000 </r>
       <r>   13.2772    0.0000 </r>
       <r>   13.9085    0.0000 </r>
       <r>   14.1675    0.0000 </r>
       <r>   14.4860    0.0000 </r>
       <r>   15.0416    0.0000 </r>
       <r>   15.3815    0.0000 </r>
      </set>
      <set comment="kpoint 25">
       <r>   -8.7749    1.0000 </r>
       <r>   -7.9074    1.0000 </r>
       <r>   -7.4656    1.0000 </r>
       <r>   -7.3226    1.0000 </r>
       <r>   -7.1094    1.0000 </r>
       <r>   -4.0580    1.0000 </r>
       <r>   -3.2663    1.0000 </r>
       <r>   -2.5883    1.0000 </r>
       <r>   -0.7751    1.0000 </r>
       <r>    0.4115    1.0000 </r>
       <r>    0.6414    1.0000 </r>
       <r>    0.9715    1.0000 </r>
       <r>    1.2482    1.0000 </r>
       <r>    1.6702    1.0000 </r>
       <r>    2.6954    1.0000 </r>
       <r>    2.8291    1.0000 </r>
       <r>    3.1955    1.0000 </r>
       <r>    3.5889    1.0000 </r>
       <r>    3.7051    1.0000 </r>
       <r>    3.8483    1.0000 </r>
       <r>    4.2136    1.0000 </r>
       <r>    4.4038    1.0000 </r>
       <r>    4.7076    1.0000 </r>
       <r>    4.9843    1.0000 </r>
       <r>    5.1721    1.0000 </r>
       <r>    5.4096    1.0000 </r>
       <r>    6.0069    1.0000 </r>
       <r>    6.2639    1.0000 </r>
       <r>    6.3991    1.0000 </r>
       <r>    6.8213    1.0000 </r>
       <r>    7.1248    1.0000 </r>
       <r>    7.2013    1.0000 </r>
       <r>   10.4759    0.0000 </r>
       <r>   11.5021    0.0000 </r>
       <r>   11.5557    0.0000 </r>
       <r>   11.7815    0.0000 </r>
       <r>   12.1331    0.0000 </r>
       <r>   12.6565    0.0000 </r>
       <r>   13.3865    0.0000 </r>
       <r>   13.9137    0.0000 </r>
       <r>   14.1581    0.0000 </r>
       <r>   14.3044    0.0000 </r>
       <r>   14.4266    0.0000 </r>
       <r>   15.3033    0.0000 </r>
      </set>
      <set comment="kpoint 26">
       <r>   -8.9820    1.0000 </r>
       <r>   -7.9766    1.0000 </r>
       <r>   -7.3968    1.0000 </r>
       <r>   -7.2811    1.0000 </r>
       <r>   -6.9279    1.0000 </r>
       <r>   -3.9013    1.0000 </r>
       <r>   -3.2371    1.0000 </r>
       <r>   -2.4559    1.0000 </r>
       <r>   -0.7377    1.0000 </r>
       <r>    0.4221    1.0000 </r>
       <r>    0.7577    1.0000 </r>
       <r>    1.1256    1.0000 </r>
       <r>    1.4313    1.0000 </r>
       <r>    1.7101    1.0000 </r>
       <r>    2.0389    1.0000 </r>
       <r>    2.5977    1.0000 </r>
       <r>    3.1885    1.0000 </r>
       <r>    3.2804    1.0000 </r>
       <r>    3.5816    1.0000 </r>
       <r>    3.7754    1.0000 </r>
       <r>    4.1609    1.0000 </r>
       <r>    4.3527    1.0000 </r>
       <r>    4.5661    1.0000 </r>
       <r>    5.1252    1.0000 </r>
       <r>    5.3053    1.0000 </r>
       <r>    5.4788    1.0000 </r>
       <r>    5.7683    1.0000 </r>
       <r>    6.0679    1.0000 </r>
       <r>    6.5071    1.0000 </r>
       <r>    6.7741    1.0000 </r>
       <r>    7.0166    1.0000 </r>
       <r>    7.3966    1.0000 </r>
       <r>   10.4701    0.0000 </r>
       <r>   11.1643    0.0000 </r>
       <r>   11.5325    0.0000 </r>
       <r>   11.9602    0.0000 </r>
       <r>   12.5313    0.0000 </r>
       <r>   12.9401    0.0000 </r>
       <r>   13.2386    0.0000 </r>
       <r>   13.7013    0.0000 </r>
       <r>   14.3401    0.0000 </r>
       <r>   14.5781    0.0000 </r>
       <r>   15.0965    0.0000 </r>
       <r>   15.3488    0.0000 </r>
      </set>
      <set comment="kpoint 27">
       <r>   -8.7582    1.0000 </r>
       <r>   -8.4629    1.0000 </r>
       <r>   -7.7480    1.0000 </r>
       <r>   -6.9779    1.0000 </r>
       <r>   -6.6672    1.0000 </r>
       <r>   -3.8567    1.0000 </r>
       <r>   -3.3659    1.0000 </r>
       <r>   -2.1070    1.0000 </r>
       <r>   -0.0012    1.0000 </r>
       <r>    0.4623    1.0000 </r>
       <r>    1.0718    1.0000 </r>
       <r>    1.1517    1.0000 </r>
       <r>    1.7016    1.0000 </r>
       <r>    1.8491    1.0000 </r>
       <r>    1.9988    1.0000 </r>
       <r>    2.4568    1.0000 </r>
       <r>    2.5914    1.0000 </r>
       <r>    2.8831    1.0000 </r>
       <r>    3.4637    1.0000 </r>
       <r>    3.8010    1.0000 </r>
       <r>    4.0225    1.0000 </r>
       <r>    4.3361    1.0000 </r>
       <r>    4.3677    1.0000 </r>
       <r>    4.6358    1.0000 </r>
       <r>    4.9308    1.0000 </r>
       <r>    5.0044    1.0000 </r>
       <r>    5.2926    1.0000 </r>
       <r>    5.9563    1.0000 </r>
       <r>    6.1411    1.0000 </r>
       <r>    6.3239    1.0000 </r>
       <r>    7.2421    1.0000 </r>
       <r>    7.4392    1.0000 </r>
       <r>   11.4665    0.0000 </r>
       <r>   11.7941    0.0000 </r>
       <r>   11.8561    0.0000 </r>
       <r>   12.3868    0.0000 </r>
       <r>   13.2932    0.0000 </r>
       <r>   13.4712    0.0000 </r>
       <r>   13.6934    0.0000 </r>
       <r>   14.0988    0.0000 </r>
       <r>   14.2268    0.0000 </r>
       <r>   14.7058    0.0000 </r>
       <r>   14.8425    0.0000 </r>
       <r>   15.0171    0.0000 </r>
      </set>
      <set comment="kpoint 28">
       <r>   -8.6127    1.0000 </r>
       <r>   -8.3552    1.0000 </r>
       <r>   -7.6647    1.0000 </r>
       <r>   -7.1915    1.0000 </r>
       <r>   -6.7955    1.0000 </r>
       <r>   -4.1538    1.0000 </r>
       <r>   -3.3681    1.0000 </r>
       <r>   -2.2743    1.0000 </r>
       <r>    0.1765    1.0000 </r>
       <r>    0.4680    1.0000 </r>
       <r>    0.7753    1.0000 </r>
       <r>    1.5139    1.0000 </r>
       <r>    1.6592    1.0000 </r>
       <r>    1.9318    1.0000 </r>
       <r>    2.0605    1.0000 </r>
       <r>    2.3733    1.0000 </r>
       <r>    2.6589    1.0000 </r>
       <r>    3.3446    1.0000 </r>
       <r>    3.5616    1.0000 </r>
       <r>    3.8731    1.0000 </r>
       <r>    4.0229    1.0000 </r>
       <r>    4.2023    1.0000 </r>
       <r>    4.3265    1.0000 </r>
       <r>    4.7067    1.0000 </r>
       <r>    4.9606    1.0000 </r>
       <r>    5.1931    1.0000 </r>
       <r>    5.4637    1.0000 </r>
       <r>    5.6585    1.0000 </r>
       <r>    6.1636    1.0000 </r>
       <r>    6.5053    1.0000 </r>
       <r>    7.1251    1.0000 </r>
       <r>    7.4066    1.0000 </r>
       <r>   11.6247    0.0000 </r>
       <r>   11.8888    0.0000 </r>
       <r>   12.2235    0.0000 </r>
       <r>   12.4348    0.0000 </r>
       <r>   12.9505    0.0000 </r>
       <r>   13.1055    0.0000 </r>
       <r>   13.4538    0.0000 </r>
       <r>   13.9211    0.0000 </r>
       <r>   14.0248    0.0000 </r>
       <r>   14.2300    0.0000 </r>
       <r>   14.6843    0.0000 </r>
       <r>   15.3247    0.0000 </r>
      </set>
      <set comment="kpoint 29">
       <r>   -8.4409    1.0000 </r>
       <r>   -8.1572    1.0000 </r>
       <r>   -7.6898    1.0000 </r>
       <r>   -7.3471    1.0000 </r>
       <r>   -6.9911    1.0000 </r>
       <r>   -4.4395    1.0000 </r>
       <r>   -3.2667    1.0000 </r>
       <r>   -2.4769    1.0000 </r>
       <r>    0.0198    1.0000 </r>
       <r>    0.3955    1.0000 </r>
       <r>    0.8505    1.0000 </r>
       <r>    1.5516    1.0000 </r>
       <r>    1.6959    1.0000 </r>
       <r>    1.9703    1.0000 </r>
       <r>    2.4649    1.0000 </r>
       <r>    2.5414    1.0000 </r>
       <r>    2.8817    1.0000 </r>
       <r>    3.3229    1.0000 </r>
       <r>    3.4534    1.0000 </r>
       <r>    3.9230    1.0000 </r>
       <r>    4.0627    1.0000 </r>
       <r>    4.3472    1.0000 </r>
       <r>    4.4404    1.0000 </r>
       <r>    4.9056    1.0000 </r>
       <r>    4.9396    1.0000 </r>
       <r>    5.2052    1.0000 </r>
       <r>    5.2896    1.0000 </r>
       <r>    5.7014    1.0000 </r>
       <r>    6.0507    1.0000 </r>
       <r>    6.7630    1.0000 </r>
       <r>    7.0576    1.0000 </r>
       <r>    7.2301    1.0000 </r>
       <r>   11.8439    0.0000 </r>
       <r>   11.9073    0.0000 </r>
       <r>   12.2577    0.0000 </r>
       <r>   12.4527    0.0000 </r>
       <r>   12.6638    0.0000 </r>
       <r>   12.9742    0.0000 </r>
       <r>   13.2290    0.0000 </r>
       <r>   13.6524    0.0000 </r>
       <r>   13.9339    0.0000 </r>
       <r>   14.3158    0.0000 </r>
       <r>   14.4898    0.0000 </r>
       <r>   15.1386    0.0000 </r>
      </set>
      <set comment="kpoint 30">
       <r>   -8.8695    1.0000 </r>
       <r>   -8.3297    1.0000 </r>
       <r>   -7.6997    1.0000 </r>
       <r>   -6.9868    1.0000 </r>
       <r>   -6.7520    1.0000 </r>
       <r>   -3.7526    1.0000 </r>
       <r>   -3.3233    1.0000 </r>
       <r>   -2.2394    1.0000 </r>
       <r>   -0.1877    1.0000 </r>
       <r>    0.2801    1.0000 </r>
       <r>    0.8298    1.0000 </r>
       <r>    1.5830    1.0000 </r>
       <r>    1.7163    1.0000 </r>
       <r>    1.9976    1.0000 </r>
       <r>    2.3009    1.0000 </r>
       <r>    2.4586    1.0000 </r>
       <r>    2.7779    1.0000 </r>
       <r>    3.1139    1.0000 </r>
       <r>    3.2456    1.0000 </r>
       <r>    3.5830    1.0000 </r>
       <r>    3.7797    1.0000 </r>
       <r>    4.1234    1.0000 </r>
       <r>    4.2817    1.0000 </r>
       <r>    4.4698    1.0000 </r>
       <r>    4.9239    1.0000 </r>
       <r>    5.3654    1.0000 </r>
       <r>    5.6958    1.0000 </r>
       <r>    5.8815    1.0000 </r>
       <r>    5.9639    1.0000 </r>
       <r>    6.7886    1.0000 </r>
       <r>    6.8924    1.0000 </r>
       <r>    7.2030    1.0000 </r>
       <r>   11.0328    0.0000 </r>
       <r>   11.7296    0.0000 </r>
       <r>   12.3617    0.0000 </r>
       <r>   12.8884    0.0000 </r>
       <r>   13.0200    0.0000 </r>
       <r>   13.3525    0.0000 </r>
       <r>   13.7389    0.0000 </r>
       <r>   14.0466    0.0000 </r>
       <r>   14.3585    0.0000 </r>
       <r>   14.6381    0.0000 </r>
       <r>   14.9711    0.0000 </r>
       <r>   15.5076    0.0000 </r>
      </set>
      <set comment="kpoint 31">
       <r>   -8.7280    1.0000 </r>
       <r>   -8.2361    1.0000 </r>
       <r>   -7.5738    1.0000 </r>
       <r>   -7.1695    1.0000 </r>
       <r>   -6.9368    1.0000 </r>
       <r>   -4.0465    1.0000 </r>
       <r>   -3.3022    1.0000 </r>
       <r>   -2.4695    1.0000 </r>
       <r>   -0.2465    1.0000 </r>
       <r>    0.6934    1.0000 </r>
       <r>    0.9329    1.0000 </r>
       <r>    1.5081    1.0000 </r>
       <r>    1.7260    1.0000 </r>
       <r>    1.9302    1.0000 </r>
       <r>    2.2633    1.0000 </r>
       <r>    2.5607    1.0000 </r>
       <r>    2.8738    1.0000 </r>
       <r>    3.0871    1.0000 </r>
       <r>    3.3981    1.0000 </r>
       <r>    3.6567    1.0000 </r>
       <r>    3.8812    1.0000 </r>
       <r>    4.0800    1.0000 </r>
       <r>    4.4584    1.0000 </r>
       <r>    4.8065    1.0000 </r>
       <r>    5.0151    1.0000 </r>
       <r>    5.1449    1.0000 </r>
       <r>    5.5639    1.0000 </r>
       <r>    5.8322    1.0000 </r>
       <r>    6.1179    1.0000 </r>
       <r>    6.6464    1.0000 </r>
       <r>    6.9398    1.0000 </r>
[...]
       <r>   -3.9145    1.0000 </r>
       <r>   -3.3810    1.0000 </r>
       <r>   -2.5476    1.0000 </r>
       <r>   -0.4588    1.0000 </r>
       <r>    0.7486    1.0000 </r>
       <r>    1.0492    1.0000 </r>
       <r>    1.5343    1.0000 </r>
       <r>    1.7861    1.0000 </r>
       <r>    1.9903    1.0000 </r>
       <r>    2.4073    1.0000 </r>
       <r>    2.6756    1.0000 </r>
       <r>    2.9511    1.0000 </r>
       <r>    3.1276    1.0000 </r>
       <r>    3.4583    1.0000 </r>
       <r>    3.5304    1.0000 </r>
       <r>    3.6627    1.0000 </r>
       <r>    3.9501    1.0000 </r>
       <r>    4.2423    1.0000 </r>
       <r>    4.5028    1.0000 </r>
       <r>    4.9792    1.0000 </r>
       <r>    5.3032    1.0000 </r>
       <r>    5.7030    1.0000 </r>
       <r>    5.9387    1.0000 </r>
       <r>    6.2523    1.0000 </r>
       <r>    6.6574    1.0000 </r>
       <r>    7.1069    1.0000 </r>
       <r>    7.2474    1.0000 </r>
       <r>   10.9863    0.0000 </r>
       <r>   12.0483    0.0000 </r>
       <r>   12.1180    0.0000 </r>
       <r>   12.5356    0.0000 </r>
       <r>   12.8083    0.0000 </r>
       <r>   13.0842    0.0000 </r>
       <r>   13.7477    0.0000 </r>
       <r>   13.9633    0.0000 </r>
       <r>   14.1903    0.0000 </r>
       <r>   14.5278    0.0000 </r>
       <r>   14.7800    0.0000 </r>
       <r>   15.1401    0.0000 </r>
      </set>
      <set comment="kpoint 36">
       <r>   -8.6399    1.0000 </r>
       <r>   -7.9281    1.0000 </r>
       <r>   -7.4212    1.0000 </r>
       <r>   -7.3567    1.0000 </r>
       <r>   -7.3078    1.0000 </r>
       <r>   -4.0914    1.0000 </r>
       <r>   -3.4290    1.0000 </r>
       <r>   -2.8145    1.0000 </r>
       <r>   -0.4696    1.0000 </r>
       <r>    0.9793    1.0000 </r>
       <r>    1.3792    1.0000 </r>
       <r>    1.4005    1.0000 </r>
       <r>    1.7996    1.0000 </r>
       <r>    2.2954    1.0000 </r>
       <r>    2.4543    1.0000 </r>
       <r>    2.5451    1.0000 </r>
       <r>    2.8047    1.0000 </r>
       <r>    2.9065    1.0000 </r>
       <r>    3.4039    1.0000 </r>
       <r>    3.7089    1.0000 </r>
       <r>    3.7322    1.0000 </r>
       <r>    4.1089    1.0000 </r>
       <r>    4.5107    1.0000 </r>
       <r>    4.8822    1.0000 </r>
       <r>    5.0112    1.0000 </r>
       <r>    5.1497    1.0000 </r>
       <r>    5.5574    1.0000 </r>
       <r>    6.0659    1.0000 </r>
       <r>    6.2839    1.0000 </r>
       <r>    6.6862    1.0000 </r>
       <r>    6.9993    1.0000 </r>
       <r>    7.1891    1.0000 </r>
       <r>   11.0173    0.0000 </r>
       <r>   12.3298    0.0000 </r>
       <r>   12.4562    0.0000 </r>
       <r>   12.5026    0.0000 </r>
       <r>   12.7125    0.0000 </r>
       <r>   12.7973    0.0000 </r>
       <r>   13.3148    0.0000 </r>
       <r>   13.4163    0.0000 </r>
       <r>   13.9169    0.0000 </r>
       <r>   14.6730    0.0000 </r>
       <r>   14.8627    0.0000 </r>
       <r>   15.2447    0.0000 </r>
      </set>
     </set>
    </set>
   </array>
  </eigenvalues>
  <separator name="orbital magnetization" >
   <v name="MAGDIPOLOUT">      0.00000000      0.00000000      0.00000000</v>
  </separator>
  <dos>
   <i name="efermi">      8.13929150 </i>
   <total>
    <array>
     <dimension dim="1">gridpoints</dimension>
     <dimension dim="2">spin</dimension>
     <field>energy</field>
     <field>total</field>
     <field>integrated</field>
     <set>
      <set comment="spin 1">
       <r>   -10.5266     0.0000     0.0000 </r>
       <r>   -10.4351     0.0000     0.0000 </r>
       <r>   -10.3436     0.0000     0.0000 </r>
       <r>   -10.2521     0.0000     0.0000 </r>
       <r>   -10.1606     0.0000     0.0000 </r>
       <r>   -10.0691     0.0000     0.0000 </r>
       <r>    -9.9776     0.0000     0.0000 </r>
       <r>    -9.8861     0.0000     0.0000 </r>
       <r>    -9.7946     0.0000     0.0000 </r>
       <r>    -9.7031     0.0000     0.0000 </r>
       <r>    -9.6116     0.0000     0.0000 </r>
       <r>    -9.5201     0.0001     0.0000 </r>
       <r>    -9.4286     0.0058     0.0005 </r>
       <r>    -9.3372     0.0675     0.0067 </r>
       <r>    -9.2457     0.2669     0.0311 </r>
       <r>    -9.1542     0.8636     0.1101 </r>
       <r>    -9.0627     1.6585     0.2619 </r>
       <r>    -8.9712     2.3004     0.4724 </r>
       <r>    -8.8797     2.9270     0.7402 </r>
       <r>    -8.7882     3.2738     1.0397 </r>
       <r>    -8.6967     3.9413     1.4003 </r>
       <r>    -8.6052     3.1814     1.6914 </r>
       <r>    -8.5137     2.1083     1.8843 </r>
       <r>    -8.4222     2.0122     2.0684 </r>
       <r>    -8.3307     2.6715     2.3128 </r>
       <r>    -8.2392     2.8670     2.5751 </r>
       <r>    -8.1478     2.7031     2.8224 </r>
       <r>    -8.0563     2.8281     3.0812 </r>
       <r>    -7.9648     4.0659     3.4532 </r>
       <r>    -7.8733     3.8049     3.8013 </r>
       <r>    -7.7818     2.2077     4.0033 </r>
       <r>    -7.6903     3.0689     4.2840 </r>
       <r>    -7.5988     5.1173     4.7522 </r>
       <r>    -7.5073     6.1118     5.3114 </r>
       <r>    -7.4158     5.7456     5.8371 </r>
       <r>    -7.3243     6.3415     6.4173 </r>
       <r>    -7.2328     7.0352     7.0610 </r>
       <r>    -7.1413     6.6633     7.6706 </r>
       <r>    -7.0498     5.9321     8.2133 </r>
       <r>    -6.9584     5.4547     8.7124 </r>
       <r>    -6.8669     5.1141     9.1803 </r>
       <r>    -6.7754     4.6737     9.6079 </r>
       <r>    -6.6839     3.1200     9.8934 </r>
       <r>    -6.5924     1.0221     9.9869 </r>
       <r>    -6.5009     0.1372     9.9994 </r>
       <r>    -6.4094     0.0060    10.0000 </r>
       <r>    -6.3179     0.0001    10.0000 </r>
       <r>    -6.2264     0.0000    10.0000 </r>
       <r>    -6.1349     0.0000    10.0000 </r>
       <r>    -6.0434     0.0000    10.0000 </r>
       <r>    -5.9519     0.0000    10.0000 </r>
       <r>    -5.8604     0.0000    10.0000 </r>
       <r>    -5.7690     0.0000    10.0000 </r>
       <r>    -5.6775     0.0000    10.0000 </r>
       <r>    -5.5860     0.0000    10.0000 </r>
       <r>    -5.4945     0.0000    10.0000 </r>
       <r>    -5.4030     0.0000    10.0000 </r>
       <r>    -5.3115     0.0000    10.0000 </r>
       <r>    -5.2200     0.0000    10.0000 </r>
       <r>    -5.1285     0.0000    10.0000 </r>
       <r>    -5.0370     0.0000    10.0000 </r>
       <r>    -4.9455     0.0000    10.0000 </r>
       <r>    -4.8540     0.0000    10.0000 </r>
       <r>    -4.7625     0.0000    10.0000 </r>
       <r>    -4.6711     0.0002    10.0000 </r>
       <r>    -4.5796     0.0080    10.0007 </r>
       <r>    -4.4881     0.0776    10.0078 </r>
       <r>    -4.3966     0.2191    10.0279 </r>
       <r>    -4.3051     0.5432    10.0776 </r>
       <r>    -4.2136     1.1327    10.1812 </r>
       <r>    -4.1221     1.5226    10.3205 </r>
       <r>    -4.0306     2.9924    10.5943 </r>
       <r>    -3.9391     3.9371    10.9545 </r>
       <r>    -3.8476     3.7978    11.3020 </r>
       <r>    -3.7561     3.0036    11.5768 </r>
       <r>    -3.6646     2.2032    11.7784 </r>
       <r>    -3.5731     1.7360    11.9372 </r>
       <r>    -3.4817     0.9688    12.0258 </r>
       <r>    -3.3902     2.0985    12.2178 </r>
       <r>    -3.2987     5.2233    12.6957 </r>
       <r>    -3.2072     6.9677    13.3332 </r>
       <r>    -3.1157     4.7431    13.7672 </r>
       <r>    -3.0242     1.9837    13.9487 </r>
       <r>    -2.9327     0.7919    14.0211 </r>
       <r>    -2.8412     0.6250    14.0783 </r>
       <r>    -2.7497     0.9456    14.1648 </r>
       <r>    -2.6582     1.8640    14.3353 </r>
       <r>    -2.5667     2.9594    14.6061 </r>
       <r>    -2.4752     3.8900    14.9620 </r>
       <r>    -2.3837     4.4035    15.3649 </r>
       <r>    -2.2923     3.6724    15.7009 </r>
       <r>    -2.2008     2.2689    15.9085 </r>
       <r>    -2.1093     0.7695    15.9789 </r>
       <r>    -2.0178     0.1943    15.9967 </r>
       <r>    -1.9263     0.0347    15.9998 </r>
       <r>    -1.8348     0.0018    16.0000 </r>
       <r>    -1.7433     0.0000    16.0000 </r>
       <r>    -1.6518     0.0000    16.0000 </r>
       <r>    -1.5603     0.0000    16.0000 </r>
       <r>    -1.4688     0.0000    16.0000 </r>
       <r>    -1.3773     0.0000    16.0000 </r>
       <r>    -1.2858     0.0000    16.0000 </r>
       <r>    -1.1943     0.0013    16.0001 </r>
       <r>    -1.1029     0.0278    16.0027 </r>
       <r>    -1.0114     0.1465    16.0161 </r>
       <r>    -0.9199     0.3110    16.0445 </r>
       <r>    -0.8284     0.5972    16.0992 </r>
       <r>    -0.7369     1.1016    16.1999 </r>
       <r>    -0.6454     1.5999    16.3463 </r>
       <r>    -0.5539     1.8309    16.5138 </r>
       <r>    -0.4624     2.3361    16.7276 </r>
       <r>    -0.3709     2.3832    16.9456 </r>
       <r>    -0.2794     2.7567    17.1978 </r>
       <r>    -0.1879     2.8312    17.4569 </r>
       <r>    -0.0964     2.3352    17.6705 </r>
       <r>    -0.0049     2.5995    17.9084 </r>
       <r>     0.0865     2.6977    18.1552 </r>
       <r>     0.1780     3.1113    18.4398 </r>
       <r>     0.2695     3.2390    18.7362 </r>
       <r>     0.3610     2.6900    18.9823 </r>
       <r>     0.4525     3.9410    19.3428 </r>
       <r>     0.5440     4.9076    19.7919 </r>
       <r>     0.6355     3.7654    20.1364 </r>
       <r>     0.7270     4.1418    20.5153 </r>
       <r>     0.8185     5.6978    21.0366 </r>
       <r>     0.9100     5.0242    21.4963 </r>
       <r>     1.0015     4.8109    21.9364 </r>
       <r>     1.0930     4.2500    22.3253 </r>
       <r>     1.1845     4.0243    22.6935 </r>
       <r>     1.2759     4.2157    23.0792 </r>
       <r>     1.3674     4.4145    23.4831 </r>
       <r>     1.4589     6.8540    24.1102 </r>
       <r>     1.5504     7.4022    24.7874 </r>
       <r>     1.6419     5.4433    25.2854 </r>
       <r>     1.7334     5.9723    25.8318 </r>
       <r>     1.8249     6.6510    26.4404 </r>
       <r>     1.9164     6.5150    27.0364 </r>
       <r>     2.0079     7.0839    27.6846 </r>
       <r>     2.0994     6.8345    28.3099 </r>
       <r>     2.1909     5.1194    28.7782 </r>
       <r>     2.2824     3.9856    29.1429 </r>
       <r>     2.3739     4.5381    29.5581 </r>
       <r>     2.4653     7.1205    30.2096 </r>
       <r>     2.5568     7.7863    30.9220 </r>
       <r>     2.6483     5.9655    31.4677 </r>
       <r>     2.7398     5.8223    32.0004 </r>
       <r>     2.8313     6.5708    32.6016 </r>
       <r>     2.9228     6.6168    33.2070 </r>
       <r>     3.0143     6.3027    33.7837 </r>
       <r>     3.1058     6.9361    34.4183 </r>
       <r>     3.1973     7.2848    35.0848 </r>
       <r>     3.2888     5.8759    35.6223 </r>
       <r>     3.3803     5.7597    36.1493 </r>
       <r>     3.4718     7.4644    36.8322 </r>
       <r>     3.5633     8.3024    37.5919 </r>
       <r>     3.6547     8.3025    38.3515 </r>
       <r>     3.7462     8.3463    39.1151 </r>
       <r>     3.8377     8.2351    39.8685 </r>
       <r>     3.9292     7.0536    40.5139 </r>
       <r>     4.0207     5.8631    41.0503 </r>
       <r>     4.1122     6.5767    41.6520 </r>
       <r>     4.2037     6.9797    42.2906 </r>
       <r>     4.2952     7.8883    43.0123 </r>
       <r>     4.3867     9.1707    43.8514 </r>
       <r>     4.4782     7.9579    44.5795 </r>
       <r>     4.5697     6.2943    45.1554 </r>
       <r>     4.6612     5.8759    45.6930 </r>
       <r>     4.7526     5.1122    46.1607 </r>
       <r>     4.8441     5.2175    46.6380 </r>
       <r>     4.9356     5.9606    47.1834 </r>
       <r>     5.0271     8.0192    47.9171 </r>
       <r>     5.1186     9.9842    48.8306 </r>
       <r>     5.2101     9.7207    49.7199 </r>
       <r>     5.3016     7.2413    50.3825 </r>
       <r>     5.3931     6.3132    50.9601 </r>
       <r>     5.4846     6.9726    51.5980 </r>
       <r>     5.5761     7.2588    52.2621 </r>
       <r>     5.6676     7.1931    52.9202 </r>
       <r>     5.7591     6.4084    53.5066 </r>
       <r>     5.8506     7.0513    54.1517 </r>
       <r>     5.9420     7.8381    54.8688 </r>
       <r>     6.0335     8.3743    55.6350 </r>
       <r>     6.1250     7.2722    56.3004 </r>
       <r>     6.2165     5.4170    56.7960 </r>
       <r>     6.3080     4.6722    57.2234 </r>
       <r>     6.3995     5.4849    57.7253 </r>
       <r>     6.4910     5.5831    58.2361 </r>
       <r>     6.5825     4.8876    58.6833 </r>
       <r>     6.6740     4.0143    59.0505 </r>
       <r>     6.7655     3.3391    59.3560 </r>
       <r>     6.8570     3.8911    59.7120 </r>
       <r>     6.9485     5.5899    60.2235 </r>
       <r>     7.0400     7.4103    60.9015 </r>
       <r>     7.1314     8.5909    61.6875 </r>
       <r>     7.2229     7.9427    62.4142 </r>
       <r>     7.3144     6.6216    63.0200 </r>
       <r>     7.4059     5.2087    63.4965 </r>
       <r>     7.4974     3.3477    63.8028 </r>
       <r>     7.5889     1.4243    63.9332 </r>
       <r>     7.6804     0.4552    63.9748 </r>
       <r>     7.7719     0.2032    63.9934 </r>
       <r>     7.8634     0.0663    63.9995 </r>
       <r>     7.9549     0.0059    64.0000 </r>
       <r>     8.0464     0.0001    64.0000 </r>
       <r>     8.1379     0.0000    64.0000 </r>
       <r>     8.2294     0.0000    64.0000 </r>
       <r>     8.3208     0.0000    64.0000 </r>
       <r>     8.4123     0.0000    64.0000 </r>
       <r>     8.5038     0.0000    64.0000 </r>
       <r>     8.5953     0.0000    64.0000 </r>
       <r>     8.6868     0.0000    64.0000 </r>
       <r>     8.7783     0.0000    64.0000 </r>
       <r>     8.8698     0.0000    64.0000 </r>
       <r>     8.9613     0.0000    64.0000 </r>
       <r>     9.0528     0.0000    64.0000 </r>
       <r>     9.1443     0.0000    64.0000 </r>
       <r>     9.2358     0.0000    64.0000 </r>
       <r>     9.3273     0.0000    64.0000 </r>
       <r>     9.4188     0.0000    64.0000 </r>
       <r>     9.5102     0.0000    64.0000 </r>
       <r>     9.6017     0.0000    64.0000 </r>
       <r>     9.6932     0.0000    64.0000 </r>
       <r>     9.7847     0.0002    64.0000 </r>
       <r>     9.8762     0.0093    64.0009 </r>
       <r>     9.9677     0.1149    64.0114 </r>
       <r>    10.0592     0.3798    64.0461 </r>
       <r>    10.1507     0.4915    64.0911 </r>
       <r>    10.2422     0.3061    64.1191 </r>
       <r>    10.3337     0.0953    64.1278 </r>
       <r>    10.4252     0.3318    64.1582 </r>
       <r>    10.5167     0.9345    64.2437 </r>
       <r>    10.6082     1.2784    64.3606 </r>
       <r>    10.6996     1.0084    64.4529 </r>
       <r>    10.7911     0.8753    64.5330 </r>
       <r>    10.8826     2.4306    64.7553 </r>
       <r>    10.9741     3.8396    65.1066 </r>
       <r>    11.0656     3.5704    65.4333 </r>
       <r>    11.1571     2.8251    65.6918 </r>
       <r>    11.2486     2.2102    65.8940 </r>
       <r>    11.3401     2.4558    66.1187 </r>
       <r>    11.4316     3.5175    66.4405 </r>
       <r>    11.5231     5.2817    66.9237 </r>
       <r>    11.6146     6.1212    67.4838 </r>
       <r>    11.7061     5.8477    68.0188 </r>
       <r>    11.7976     5.9125    68.5597 </r>
       <r>    11.8890     5.5748    69.0698 </r>
       <r>    11.9805     4.6550    69.4957 </r>
       <r>    12.0720     4.2532    69.8848 </r>
       <r>    12.1635     4.2994    70.2782 </r>
       <r>    12.2550     4.0088    70.6450 </r>
       <r>    12.3465     5.3957    71.1386 </r>
       <r>    12.4380     5.6941    71.6596 </r>
       <r>    12.5295     4.6247    72.0827 </r>
       <r>    12.6210     4.2708    72.4735 </r>
       <r>    12.7125     4.6607    72.8999 </r>
       <r>    12.8040     5.8790    73.4378 </r>
       <r>    12.8955     5.7604    73.9648 </r>
       <r>    12.9870     6.2076    74.5328 </r>
       <r>    13.0784     6.6386    75.1401 </r>
       <r>    13.1699     5.2869    75.6238 </r>
       <r>    13.2614     4.7425    76.0577 </r>
       <r>    13.3529     5.9961    76.6063 </r>
       <r>    13.4444     6.4331    77.1949 </r>
       <r>    13.5359     6.0294    77.7466 </r>
       <r>    13.6274     4.4994    78.1582 </r>
       <r>    13.7189     3.0698    78.4391 </r>
       <r>    13.8104     3.6884    78.7765 </r>
       <r>    13.9019     5.9290    79.3190 </r>
       <r>    13.9934     7.5346    80.0084 </r>
       <r>    14.0849     6.8866    80.6384 </r>
       <r>    14.1763     6.1814    81.2040 </r>
       <r>    14.2678     7.0419    81.8483 </r>
       <r>    14.3593     7.5276    82.5370 </r>
       <r>    14.4508     5.8698    83.0740 </r>
       <r>    14.5423     6.1528    83.6370 </r>
       <r>    14.6338     6.2672    84.2103 </r>
       <r>    14.7253     5.2044    84.6865 </r>
       <r>    14.8168     4.7001    85.1165 </r>
       <r>    14.9083     3.9800    85.4807 </r>
       <r>    14.9998     3.9605    85.8430 </r>
       <r>    15.0913     4.6156    86.2653 </r>
       <r>    15.1828     4.2904    86.6579 </r>
       <r>    15.2743     3.6728    86.9939 </r>
       <r>    15.3657     4.1155    87.3704 </r>
       <r>    15.4572     3.4720    87.6881 </r>
       <r>    15.5487     2.0525    87.8759 </r>
       <r>    15.6402     0.8276    87.9516 </r>
       <r>    15.7317     0.3873    87.9870 </r>
       <r>    15.8232     0.1299    87.9989 </r>
       <r>    15.9147     0.0115    88.0000 </r>
       <r>    16.0062     0.0002    88.0000 </r>
       <r>    16.0977     0.0000    88.0000 </r>
       <r>    16.1892     0.0000    88.0000 </r>
       <r>    16.2807     0.0000    88.0000 </r>
       <r>    16.3722     0.0000    88.0000 </r>
       <r>    16.4637     0.0000    88.0000 </r>
       <r>    16.5551     0.0000    88.0000 </r>
       <r>    16.6466     0.0000    88.0000 </r>
       <r>    16.7381     0.0000    88.0000 </r>
       <r>    16.8296     0.0000    88.0000 </r>
       <r>    16.9211     0.0000    88.0000 </r>
      </set>
     </set>
    </array>
   </total>
  </dos>
 </calculation>
 <structure name="finalpos" >
  <crystal>
   <varray name="basis" >
    <v>       5.03718975       0.00365037       0.00479458 </v>
    <v>       0.00450323       6.29348335      -0.02045825 </v>
    <v>       0.00285396      -3.16439234       5.39239204 </v>
   </varray>
   <i name="volume">    170.62041273 </i>
   <varray name="rec_basis" >
    <v>       0.19852368      -0.00014267      -0.00018879 </v>
    <v>      -0.00020429       0.15919835       0.09342174 </v>
    <v>      -0.00017729       0.00060411       0.18580106 </v>
   </varray>
  </crystal>
  <varray name="positions" >
   <v>       0.99263758       0.66361156       0.82990285 </v>
   <v>       0.50725800       0.32505122       0.16960398 </v>
   <v>       0.50129114       0.83215850       0.67216960 </v>
   <v>       0.99302583       0.17012811       0.33399256 </v>
   <v>       0.99261972       0.66405569       0.33147193 </v>
   <v>       0.99309405       0.16882759       0.83673584 </v>
   <v>       0.50503126       0.83586778       0.16184870 </v>
   <v>       0.49878628       0.33540860       0.66380017 </v>
   <v>       0.38303490       0.17072775       0.32114344 </v>
   <v>       0.88674306       0.34907766       0.68145487 </v>
   <v>       0.86430958       0.82822089       0.67626174 </v>
   <v>       0.38750550       0.65808035       0.33446633 </v>
   <v>       0.38637486       0.15945796       0.84219772 </v>
   <v>       0.36048658       0.67915259       0.82624582 </v>
   <v>       0.85907196       0.33773785       0.16675428 </v>
   <v>       0.88872969       0.82243592       0.15195017 </v>
  </varray>
 </structure>
</modeling>
