<?xml version="1.0" encoding="ISO-8859-1"?>
<modeling>
 <generator>
  <i name="program" type="string">vasp </i>
  <i name="version" type="string">5.3.5  </i>
  <i name="subversion" type="string">31Mar14 (build Jun 20 2014 13:15:13) complex                          parallel </i>
  <i name="platform" type="string">LinuxIFC </i>
  <i name="date" type="string">2025 12 12 </i>
  <i name="time" type="string">11:36:32 </i>
 </generator>
 <incar>
  <i type="string" name="PREC">accurate</i>
  <i type="int" name="IALGO">    38</i>
  <i type="logical" name="ADDGRID"> T  </i>
  <i type="int" name="ISPIN">     2</i>
  <i type="int" name="NELM">   100</i>
  <i type="int" name="NELMIN">     4</i>
  <i name="EDIFF">      0.00000100</i>
  <i name="ENCUT">    500.00000000</i>
  <i type="logical" name="LREAL"> F  </i>
  <i type="int" name="ISMEAR">     0</i>
  <i name="SIGMA">      0.05000000</i>
  <i type="logical" name="LWAVE"> F  </i>
  <i type="logical" name="LCHARG"> F  </i>
  <i type="int" name="NELM">   100</i>
  <i type="logical" name="LDAU"> T  </i>
  <v name="LDAUU">      0.00000000      4.00000000      0.00000000</v>
  <v name="LDAUJ">      0.00000000      0.00000000      0.00000000</v>
 </incar>
 <kpoints>
  <generation param="Auto">
   <i name="subdivisionlength">     20.00000000 </i>
   <v type="int" name="divisions">       5        5        1 </v>
   <v name="usershift">      0.00000000       0.00000000       0.00000000 </v>
   <v name="genvec1">      0.20000000       0.00000000       0.00000000 </v>
   <v name="genvec2">      0.00000000       0.20000000       0.00000000 </v>
   <v name="genvec3">      0.00000000       0.00000000       1.00000000 </v>
   <v name="shift">      0.00000000       0.00000000       0.00000000 </v>
  </generation>
  <varray name="kpointlist" >
   <v>       0.00000000       0.00000000       0.00000000 </v>
   <v>       0.20000000       0.00000000       0.00000000 </v>
   <v>       0.40000000       0.00000000       0.00000000 </v>
   <v>       0.00000000       0.20000000       0.00000000 </v>
   <v>       0.20000000       0.20000000       0.00000000 </v>
   <v>       0.40000000       0.20000000       0.00000000 </v>
   <v>       0.00000000       0.40000000       0.00000000 </v>
   <v>       0.20000000       0.40000000       0.00000000 </v>
   <v>       0.40000000       0.40000000       0.00000000 </v>
  </varray>
  <varray name="weights" >
   <v>       0.04000000 </v>
   <v>       0.08000000 </v>
   <v>       0.08000000 </v>
   <v>       0.08000000 </v>
   <v>       0.16000000 </v>
   <v>       0.16000000 </v>
   <v>       0.08000000 </v>
   <v>       0.16000000 </v>
   <v>       0.16000000 </v>
  </varray>
 </kpoints>
 <parameters>
  <separator name="general" >
   <i type="string" name="SYSTEM">unknown system</i>
   <i type="logical" name="LCOMPAT"> F  </i>
  </separator>
  <separator name="electronic" >
   <i type="string" name="PREC">accura</i>
   <i name="ENMAX">    500.00000000</i>
   <i name="ENAUG">    586.98000000</i>
   <i name="EDIFF">      0.00000100</i>
   <i type="int" name="IALGO">    38</i>
   <i type="int" name="IWAVPR">    10</i>
   <i type="int" name="NBANDS">    92</i>
   <i name="NELECT">    138.00000000</i>
   <i type="int" name="TURBO">     0</i>
   <i type="int" name="IRESTART">     0</i>
   <i type="int" name="NREBOOT">     0</i>
   <i type="int" name="NMIN">     0</i>
   <i name="EREF">      0.00000000</i>
   <separator name="electronic smearing" >
    <i type="int" name="ISMEAR">     0</i>
    <i name="SIGMA">      0.05000000</i>
    <i name="KSPACING">      0.50000000</i>
    <i type="logical" name="KGAMMA"> T  </i>
   </separator>
   <separator name="electronic projectors" >
    <i type="logical" name="LREAL"> F  </i>
    <v name="ROPT">      0.00000000      0.00000000      0.00000000</v>
    <i type="int" name="LMAXPAW">  -100</i>
    <i type="int" name="LMAXMIX">     2</i>
    <i type="logical" name="NLSPLINE"> F  </i>
   </separator>
   <separator name="electronic startup" >
    <i type="int" name="ISTART">     0</i>
    <i type="int" name="ICHARG">     2</i>
    <i type="int" name="INIWAV">     1</i>
   </separator>
   <separator name="electronic spin" >
    <i type="int" name="ISPIN">     2</i>
    <i type="logical" name="LNONCOLLINEAR"> F  </i>
    <v name="MAGMOM">      1.00000000      1.00000000      1.00000000      1.00000000      1.00000000      1.00000000      1.00000000      1.00000000      1.00000000      1.00000000      1.00000000      1.00000000      1.00000000      1.00000000      1.00000000      1.00000000      1.00000000</v>
    <i name="NUPDOWN">     -1.00000000</i>
    <i type="logical" name="LSORBIT"> F  </i>
    <v name="SAXIS">      0.00000000      0.00000000      1.00000000</v>
    <i type="logical" name="LSPIRAL"> F  </i>
    <v name="QSPIRAL">      0.00000000      0.00000000      0.00000000</v>
    <i type="logical" name="LZEROZ"> F  </i>
   </separator>
   <separator name="electronic exchange-correlation" >
    <i type="logical" name="LASPH"> F  </i>
    <i type="logical" name="LMETAGGA"> F  </i>
   </separator>
   <separator name="electronic convergence" >
    <i type="int" name="NELM">   100</i>
    <i type="int" name="NELMDL">    -5</i>
    <i type="int" name="NELMIN">     4</i>
    <i name="ENINI">    500.00000000</i>
    <separator name="electronic convergence detail" >
     <i type="logical" name="LDIAG"> T  </i>
     <i type="logical" name="LSUBROT"> F  </i>
     <i name="WEIMIN">      0.00000000</i>
     <i name="EBREAK">      0.00000000</i>
     <i name="DEPER">      0.30000000</i>
     <i type="int" name="NRMM">     4</i>
     <i name="TIME">      0.40000000</i>
    </separator>
   </separator>
   <separator name="electronic mixer" >
    <i name="AMIX">      0.40000000</i>
    <i name="BMIX">      1.00000000</i>
    <i name="AMIN">      0.10000000</i>
    <i name="AMIX_MAG">      1.60000000</i>
    <i name="BMIX_MAG">      1.00000000</i>
    <separator name="electronic mixer details" >
     <i type="int" name="IMIX">     4</i>
     <i type="int" name="MAXMIX">   -45</i>
     <i name="WC">    100.00000000</i>
     <i type="int" name="INIMIX">     1</i>
     <i type="int" name="MIXPRE">     1</i>
     <i type="int" name="MREMOVE">     5</i>
    </separator>
   </separator>
   <separator name="electronic dipolcorrection" >
    <i type="logical" name="LDIPOL"> F  </i>
    <i type="logical" name="LMONO"> F  </i>
    <i type="int" name="IDIPOL">     0</i>
    <i name="EPSILON">      1.00000000</i>
    <v name="DIPOL">   -100.00000000   -100.00000000   -100.00000000</v>
    <i name="EFIELD">      0.00000000</i>
   </separator>
  </separator>
  <separator name="grids" >
   <i type="int" name="NGX">    30</i>
   <i type="int" name="NGY">    30</i>
   <i type="int" name="NGZ">   120</i>
   <i type="int" name="NGXF">    60</i>
   <i type="int" name="NGYF">    60</i>
   <i type="int" name="NGZF">   240</i>
   <i type="logical" name="ADDGRID"> T  </i>
  </separator>
  <separator name="ionic" >
   <i type="int" name="NSW">     0</i>
   <i type="int" name="IBRION">    -1</i>
   <i type="int" name="ISIF">     2</i>
   <i name="PSTRESS">      0.00000000</i>
   <i name="EDIFFG">      0.00001000</i>
   <i type="int" name="NFREE">     0</i>
   <i name="POTIM">      0.50000000</i>
   <i name="SMASS">     -3.00000000</i>
   <i name="SCALEE">      1.00000000</i>
  </separator>
  <separator name="ionic md" >
   <i name="TEBEG">      0.00010000</i>
   <i name="TEEND">      0.00010000</i>
   <i type="int" name="NBLOCK">     1</i>
   <i type="int" name="KBLOCK">     1</i>
   <i type="int" name="NPACO">   256</i>
   <i name="APACO">     16.00000000</i>
  </separator>
  <separator name="symmetry" >
   <i type="int" name="ISYM">     2</i>
   <i name="SYMPREC">      0.00001000</i>
  </separator>
  <separator name="dos" >
   <i type="logical" name="LORBIT"> F  </i>
   <v name="RWIGS">     -1.00000000     -1.00000000     -1.00000000</v>
   <i type="int" name="NEDOS">   301</i>
   <i name="EMIN">     10.00000000</i>
   <i name="EMAX">    -10.00000000</i>
   <i name="EFERMI">      0.00000000</i>
  </separator>
  <separator name="writing" >
   <i type="int" name="NWRITE">     2</i>
   <i type="logical" name="LWAVE"> F  </i>
   <i type="logical" name="LCHARG"> F  </i>
   <i type="logical" name="LPARD"> F  </i>
   <i type="logical" name="LVTOT"> F  </i>
   <i type="logical" name="LVHAR"> F  </i>
   <i type="logical" name="LELF"> F  </i>
   <i type="logical" name="LOPTICS"> F  </i>
   <v name="STM">      0.00000000      0.00000000      0.00000000      0.00000000      0.00000000      0.00000000      0.00000000</v>
  </separator>
  <separator name="performance" >
   <i type="int" name="NPAR">     4</i>
   <i type="int" name="NSIM">     4</i>
   <i type="int" name="NBLK">    -1</i>
   <i type="logical" name="LPLANE"> T  </i>
   <i type="logical" name="LSCALAPACK"> T  </i>
   <i type="logical" name="LSCAAWARE"> F  </i>
   <i type="logical" name="LSCALU"> F  </i>
   <i type="logical" name="LASYNC"> F  </i>
   <i type="logical" name="LORBITALREAL"> F  </i>
  </separator>
  <separator name="miscellaneous" >
   <i type="int" name="IDIOT">     3</i>
   <i type="logical" name="LMUSIC"> F  </i>
   <v name="POMASS">     87.62000000     63.54600000     16.00000000</v>
   <v name="DARWINR">      0.00000000      0.00000000      0.00000000</v>
   <v name="DARWINV">      1.00000000      1.00000000      1.00000000</v>
   <i type="logical" name="LCORR"> T  </i>
  </separator>
  <i type="logical" name="GGA_COMPAT"> T  </i>
  <i type="logical" name="LBERRY"> F  </i>
  <i type="int" name="ICORELEVEL">     0</i>
  <i type="logical" name="LDAU"> T  </i>
  <v type="int" name="LDAUTYPE">     2</v>
  <v type="int" name="LDAUL">     2</v>
  <v name="LDAUU">      0.00000000</v>
  <v name="LDAUJ">      0.00000000</v>
  <i type="int" name="LDAUPRINT">     0</i>
  <i type="int" name="I_CONSTRAINED_M">     0</i>
  <separator name="electronic exchange-correlation" >
   <i type="string" name="GGA">--</i>
   <i type="int" name="VOSKOWN">     0</i>
   <i type="logical" name="LHFCALC"> F  </i>
   <i type="string" name="PRECFOCK"></i>
   <i type="logical" name="LSYMGRAD"> F  </i>
   <i type="logical" name="LHFONE"> F  </i>
   <i type="logical" name="LRHFCALC"> F  </i>
   <i type="logical" name="LTHOMAS"> F  </i>
   <i type="logical" name="LMODELHF"> F  </i>
   <i name="ENCUT4O">     -1.00000000</i>
   <i type="int" name="EXXOEP">     0</i>
   <i type="int" name="FOURORBIT">     0</i>
   <i name="AEXX">      0.00000000</i>
   <i name="HFALPHA">      0.00000000</i>
   <i name="MCALPHA">      0.00000000</i>
   <i name="ALDAX">      1.00000000</i>
   <i name="AGGAX">      1.00000000</i>
   <i name="ALDAC">      1.00000000</i>
   <i name="AGGAC">      1.00000000</i>
   <i type="int" name="NKREDX">     1</i>
   <i type="int" name="NKREDY">     1</i>
   <i type="int" name="NKREDZ">     1</i>
   <i type="logical" name="SHIFTRED"> F  </i>
   <i type="logical" name="ODDONLY"> F  </i>
   <i type="logical" name="EVENONLY"> F  </i>
   <i type="int" name="LMAXFOCK">     0</i>
   <i type="int" name="NMAXFOCKAE">     0</i>
   <i type="logical" name="LFOCKAEDFT"> F  </i>
   <i name="HFSCREEN">      0.00000000</i>
   <i name="HFSCREENC">      0.00000000</i>
   <i type="int" name="NBANDSGWLOW">     0</i>
  </separator>
  <separator name="vdW DFT" >
   <i type="logical" name="LUSE_VDW"> F  </i>
   <i name="Zab_VDW">     -0.84910000</i>
   <i name="PARAM1">      0.12340000</i>
   <i name="PARAM2">      1.00000000</i>
   <i name="PARAM3">      0.00000000</i>
  </separator>
  <separator name="model GW" >
   <i type="int" name="MODEL_GW">     0</i>
   <i name="MODEL_EPS0">      9.03529412</i>
   <i name="MODEL_ALPHA">      1.00000000</i>
  </separator>
  <separator name="linear response parameters" >
   <i type="logical" name="LEPSILON"> F  </i>
   <i type="logical" name="LRPA"> F  </i>
   <i type="logical" name="LNABLA"> F  </i>
   <i type="logical" name="LVEL"> F  </i>
   <i type="int" name="KINTER">     0</i>
   <i name="CSHIFT">      0.10000000</i>
   <i name="OMEGAMAX">     -1.00000000</i>
   <i name="DEG_THRESHOLD">      0.00200000</i>
  </separator>
  <separator name="orbital magnetization" >
   <i type="logical" name="NUCIND"> F  </i>
   <v name="MAGPOS">      0.00000000      0.00000000      0.00000000</v>
   <i type="logical" name="LNICSALL"> T  </i>
   <i type="logical" name="ORBITALMAG"> F  </i>
   <i type="logical" name="LMAGBLOCH"> F  </i>
   <i type="logical" name="LCHIMAG"> F  </i>
   <i type="logical" name="LGAUGE"> T  </i>
   <i type="int" name="MAGATOM">     0</i>
   <v name="MAGDIPOL">      0.00000000      0.00000000      0.00000000</v>
   <v name="AVECCONST">      0.00000000      0.00000000      0.00000000</v>
  </separator>
  <separator name="response functions" >
   <i type="logical" name="LADDER"> F  </i>
   <i type="logical" name="LFXC"> F  </i>
   <i type="logical" name="LHARTREE"> T  </i>
   <i type="int" name="IBSE">     0</i>
   <i type="logical" name="LTCTE"> F  </i>
   <i type="logical" name="LTETE"> F  </i>
   <i type="logical" name="LTRIPLET"> F  </i>
   <i type="logical" name="LFXCEPS"> F  </i>
   <i type="logical" name="LFXHEG"> F  </i>
   <i type="logical" name="L2ORDER"> F  </i>
   <i type="logical" name="LUSEW"> F  </i>
   <i name="ENCUTGW">     -2.00000000</i>
   <i name="ENCUTGWSOFT">     -2.00000000</i>
   <i name="ENCUTLF">     -1.00000000</i>
   <i type="int" name="LMAXMP2">    -1</i>
   <i name="SCISSOR">      0.00000000</i>
   <i type="int" name="NOMEGA">     0</i>
   <i type="int" name="NOMEGAR">     0</i>
   <i type="int" name="NBANDSGW">    -1</i>
   <i type="int" name="NBANDSO">    -1</i>
   <i type="int" name="NBANDSV">    -1</i>
   <i type="int" name="NELM">   100</i>
   <i type="int" name="DIM">     3</i>
   <i type="int" name="ANTIRES">     0</i>
   <i name="OMEGAMAX">    -30.00000000</i>
   <i name="OMEGAMIN">    -30.00000000</i>
   <i name="OMEGATL">   -200.00000000</i>
   <i type="int" name="OMEGAGRID">     0</i>
   <i name="CSHIFT">     -0.10000000</i>
   <i type="logical" name="SELFENERGY"> F  </i>
   <i type="logical" name="LSPECTRAL"> F  </i>
   <i type="logical" name="ODDONLYGW"> F  </i>
   <i type="logical" name="EVENONLYGW"> F  </i>
   <i type="int" name="NKREDLFX">     1</i>
   <i type="int" name="NKREDLFY">     1</i>
   <i type="int" name="NKREDLFZ">     1</i>
   <i type="int" name="MAXMEM">  1800</i>
   <i type="int" name="TELESCOPE">     0</i>
   <i type="int" name="TAUPAR">     1</i>
  </separator>
  <separator name="External order field" >
   <i name="OFIELD_KAPPA">      0.00000000</i>
   <v name="OFIELD_K">      0.00000000      0.00000000      0.00000000</v>
   <i name="OFIELD_Q6_NEAR">      0.00000000</i>
   <i name="OFIELD_Q6_FAR">      0.00000000</i>
   <i name="OFIELD_A">      0.00000000</i>
  </separator>
 </parameters>
 <atominfo>
  <atoms>      17 </atoms>
  <types>       3 </types>
  <array name="atoms" >
   <dimension dim="1">ion</dimension>
   <field type="string">element</field>
   <field type="int">atomtype</field>
   <set>
    <rc><c>Sr</c><c>   1</c></rc>
    <rc><c>Sr</c><c>   1</c></rc>
    <rc><c>Sr</c><c>   1</c></rc>
    <rc><c>Sr</c><c>   1</c></rc>
    <rc><c>Cu</c><c>   2</c></rc>
    <rc><c>Cu</c><c>   2</c></rc>
    <rc><c>Cu</c><c>   2</c></rc>
    <rc><c>Cu</c><c>   2</c></rc>
    <rc><c>O </c><c>   3</c></rc>
    <rc><c>O </c><c>   3</c></rc>
    <rc><c>O </c><c>   3</c></rc>
    <rc><c>O </c><c>   3</c></rc>
    <rc><c>O </c><c>   3</c></rc>
    <rc><c>O </c><c>   3</c></rc>
    <rc><c>O </c><c>   3</c></rc>
    <rc><c>O </c><c>   3</c></rc>
    <rc><c>O </c><c>   3</c></rc>
   </set>
  </array>
  <array name="atomtypes" >
   <dimension dim="1">type</dimension>
   <field type="int">atomspertype</field>
   <field type="string">element</field>
   <field>mass</field>
   <field>valence</field>
   <field type="string">pseudopotential</field>
   <set>
    <rc><c>   4</c><c>Sr</c><c>     87.62000000</c><c>     10.00000000</c><c>  PAW_PBE Sr_sv 07Sep2000               </c></rc>
    <rc><c>   4</c><c>Cu</c><c>     63.54600000</c><c>     11.00000000</c><c>  PAW_PBE Cu 22Jun2005                  </c></rc>
    <rc><c>   9</c><c>O </c><c>     16.00000000</c><c>      6.00000000</c><c>  PAW_PBE O_s 07Sep2000                 </c></rc>
   </set>
  </array>
 </atominfo>
 <structure name="initialpos" >
  <crystal>
   <varray name="basis" >
    <v>       4.00000000       0.00000000       0.00000000 </v>
    <v>       0.00000000       4.00000000       0.00000000 </v>
    <v>       0.00000000       0.00000000      16.00000000 </v>
   </varray>
   <i name="volume">    256.00000000 </i>
   <varray name="rec_basis" >
    <v>       0.25000000       0.00000000       0.00000000 </v>
    <v>       0.00000000       0.25000000       0.00000000 </v>
    <v>       0.00000000       0.00000000       0.06250000 </v>
   </varray>
  </crystal>
  <varray name="positions" >
   <v>       0.00000000       0.00000000       0.00000000 </v>
   <v>       0.00000000       0.00000000       0.25000000 </v>
   <v>       0.00000000       0.00000000       0.50000000 </v>
   <v>       0.00000000       0.00000000       0.75000000 </v>
   <v>       0.50000000       0.50000000       0.12500000 </v>
   <v>       0.50000000       0.50000000       0.37500000 </v>
   <v>       0.50000000       0.50000000       0.62500000 </v>
   <v>       0.50000000       0.50000000       0.87500000 </v>
   <v>       0.50000000       0.50000000       0.50000000 </v>
   <v>       0.50000000       0.50000000       0.75000000 </v>
   <v>       0.00000000       0.50000000       0.12500000 </v>
   <v>       0.00000000       0.50000000       0.62500000 </v>
   <v>       0.00000000       0.50000000       0.87500000 </v>
   <v>       0.50000000       0.00000000       0.12500000 </v>
   <v>       0.50000000       0.00000000       0.37500000 </v>
   <v>       0.50000000       0.00000000       0.62500000 </v>
   <v>       0.50000000       0.00000000       0.87500000 </v>
  </varray>
 </structure>
 <calculation>
  <scstep>
   <time name="dav">    1.60    1.60</time>
   <time name="total">    1.75    1.76</time>
   <energy>
    <i name="alphaZ">    635.64916683 </i>
    <i name="ewald">  -8727.01589261 </i>
    <i name="hartreedc">  -4209.17885036 </i>
    <i name="XCdc">    571.21664631 </i>
    <i name="pawpsdc">  10532.98817047 </i>
    <i name="pawaedc"> -10865.93268589 </i>
    <i name="eentropy">     -0.00457764 </i>
    <i name="bandstr">    973.06166614 </i>
    <i name="atom">  12827.37956309 </i>
    <i name="e_fr_energy">   1738.16320633 </i>
    <i name="e_wo_entrp">   1738.16778397 </i>
    <i name="e_0_energy">   1738.16549515 </i>
   </energy>
  </scstep>
  <scstep>
   <time name="dav">    1.63    1.63</time>
   <time name="total">    1.63    1.64</time>
   <energy>
    <i name="e_fr_energy">    157.67000641 </i>
    <i name="e_wo_entrp">    157.67566233 </i>
    <i name="e_0_energy">    157.67283437 </i>
   </energy>
  </scstep>
  <scstep>
   <time name="dav">    1.69    1.69</time>
   <time name="total">    1.69    1.71</time>
   <energy>
    <i name="e_fr_energy">    -87.51313711 </i>
    <i name="e_wo_entrp">    -87.50028093 </i>
    <i name="e_0_energy">    -87.50670902 </i>
   </energy>
  </scstep>
  <scstep>
   <time name="dav">    2.18    2.18</time>
   <time name="total">    2.18    2.19</time>
   <energy>
    <i name="e_fr_energy">   -105.80851352 </i>
    <i name="e_wo_entrp">   -105.78557659 </i>
    <i name="e_0_energy">   -105.79704506 </i>
   </energy>
  </scstep>
  <scstep>
   <time name="dav">    2.70    2.70</time>
   <time name="total">    2.92    2.93</time>
   <energy>
    <i name="e_fr_energy">   -106.91272757 </i>
    <i name="e_wo_entrp">   -106.88909430 </i>
    <i name="e_0_energy">   -106.90091093 </i>
   </energy>
  </scstep>
  <scstep>
   <time name="dav">    2.16    2.17</time>
   <time name="total">    2.52    2.54</time>
   <energy>
    <i name="e_fr_energy">    -99.45111943 </i>
    <i name="e_wo_entrp">    -99.44057491 </i>
    <i name="e_0_energy">    -99.44584717 </i>
   </energy>
  </scstep>
  <scstep>
   <time name="dav">    2.16    2.16</time>
   <time name="total">    2.52    2.53</time>
   <energy>
    <i name="e_fr_energy">    -89.20056019 </i>
    <i name="e_wo_entrp">    -89.19420341 </i>
    <i name="e_0_energy">    -89.19738180 </i>
   </energy>
  </scstep>
  <scstep>
   <time name="dav">    2.37    2.37</time>
   <time name="total">    2.73    2.74</time>
   <energy>
    <i name="e_fr_energy">    -88.37024612 </i>
    <i name="e_wo_entrp">    -88.36326460 </i>
    <i name="e_0_energy">    -88.36675536 </i>
   </energy>
  </scstep>
  <scstep>
   <time name="dav">    2.30    2.31</time>
   <time name="total">    2.66    2.67</time>
   <energy>
    <i name="e_fr_energy">   -102.76536252 </i>
    <i name="e_wo_entrp">   -102.75310653 </i>
    <i name="e_0_energy">   -102.75923452 </i>
   </energy>
  </scstep>
  <scstep>
   <time name="dav">    2.18    2.18</time>
   <time name="total">    2.54    2.55</time>
   <energy>
    <i name="e_fr_energy">    -90.55379673 </i>
    <i name="e_wo_entrp">    -90.54118080 </i>
    <i name="e_0_energy">    -90.54748876 </i>
   </energy>
  </scstep>
  <scstep>
   <time name="dav">    2.10    2.10</time>
   <time name="total">    2.46    2.48</time>
   <energy>
    <i name="e_fr_energy">    -86.45524218 </i>
    <i name="e_wo_entrp">    -86.44366672 </i>
    <i name="e_0_energy">    -86.44945445 </i>
   </energy>
  </scstep>
  <scstep>
   <time name="dav">    2.13    2.13</time>
   <time name="total">    2.48    2.50</time>
   <energy>
    <i name="e_fr_energy">    -83.74036832 </i>
    <i name="e_wo_entrp">    -83.72783793 </i>
    <i name="e_0_energy">    -83.73410313 </i>
   </energy>
  </scstep>
  <scstep>
   <time name="dav">    2.26    2.26</time>
   <time name="total">    2.62    2.64</time>
   <energy>
    <i name="e_fr_energy">    -83.84632814 </i>
    <i name="e_wo_entrp">    -83.83031718 </i>
    <i name="e_0_energy">    -83.83832266 </i>
   </energy>
  </scstep>
  <scstep>
   <time name="dav">    2.25    2.25</time>
   <time name="total">    2.61    2.62</time>
   <energy>
    <i name="e_fr_energy">    -83.96059393 </i>
    <i name="e_wo_entrp">    -83.94953098 </i>
    <i name="e_0_energy">    -83.95506246 </i>
   </energy>
  </scstep>
  <scstep>
   <time name="dav">    2.28    2.28</time>
   <time name="total">    2.64    2.65</time>
   <energy>
    <i name="e_fr_energy">    -84.04297724 </i>
    <i name="e_wo_entrp">    -84.03310543 </i>
    <i name="e_0_energy">    -84.03804133 </i>
   </energy>
  </scstep>
  <scstep>
   <time name="dav">    2.22    2.22</time>
   <time name="total">    2.57    2.59</time>
   <energy>
    <i name="e_fr_energy">    -84.14650903 </i>
    <i name="e_wo_entrp">    -84.13515604 </i>
    <i name="e_0_energy">    -84.14083254 </i>
   </energy>
  </scstep>
  <scstep>
   <time name="dav">    2.19    2.19</time>
   <time name="total">    2.55    2.57</time>
   <energy>
    <i name="e_fr_energy">    -84.29792475 </i>
    <i name="e_wo_entrp">    -84.28065223 </i>
    <i name="e_0_energy">    -84.28928849 </i>
   </energy>
  </scstep>
  <scstep>
   <time name="dav">    2.15    2.15</time>
   <time name="total">    2.50    2.52</time>
   <energy>
    <i name="e_fr_energy">    -84.35783854 </i>
    <i name="e_wo_entrp">    -84.34479383 </i>
    <i name="e_0_energy">    -84.35131618 </i>
   </energy>
  </scstep>
  <scstep>
   <time name="dav">    2.23    2.23</time>
   <time name="total">    2.59    2.60</time>
   <energy>
    <i name="e_fr_energy">    -84.37722407 </i>
    <i name="e_wo_entrp">    -84.36387316 </i>
    <i name="e_0_energy">    -84.37054861 </i>
   </energy>
  </scstep>
  <scstep>
   <time name="dav">    2.18    2.18</time>
   <time name="total">    2.54    2.56</time>
   <energy>
    <i name="e_fr_energy">    -84.40736002 </i>
    <i name="e_wo_entrp">    -84.39578074 </i>
    <i name="e_0_energy">    -84.40157038 </i>
   </energy>
  </scstep>
  <scstep>
   <time name="dav">    2.12    2.12</time>
   <time name="total">    2.48    2.49</time>
   <energy>
    <i name="e_fr_energy">    -84.42136049 </i>
    <i name="e_wo_entrp">    -84.41017062 </i>
    <i name="e_0_energy">    -84.41576555 </i>
   </energy>
  </scstep>
  <scstep>
   <time name="dav">    2.21    2.21</time>
   <time name="total">    2.57    2.59</time>
   <energy>
    <i name="e_fr_energy">    -84.42322420 </i>
    <i name="e_wo_entrp">    -84.41183765 </i>
    <i name="e_0_energy">    -84.41753092 </i>
   </energy>
  </scstep>
  <scstep>
   <time name="dav">    2.21    2.21</time>
   <time name="total">    2.57    2.58</time>
   <energy>
    <i name="e_fr_energy">    -84.42357624 </i>
    <i name="e_wo_entrp">    -84.41199156 </i>
    <i name="e_0_energy">    -84.41778390 </i>
   </energy>
  </scstep>
  <scstep>
   <time name="dav">    2.13    2.13</time>
   <time name="total">    2.49    2.50</time>
   <energy>
    <i name="e_fr_energy">    -84.42381423 </i>
    <i name="e_wo_entrp">    -84.41242771 </i>
    <i name="e_0_energy">    -84.41812097 </i>
   </energy>
  </scstep>
  <scstep>
   <time name="dav">    2.16    2.16</time>
   <time name="total">    2.52    2.54</time>
   <energy>
    <i name="e_fr_energy">    -84.42409484 </i>
    <i name="e_wo_entrp">    -84.41270935 </i>
    <i name="e_0_energy">    -84.41840210 </i>
   </energy>
  </scstep>
  <scstep>
   <time name="dav">    2.28    2.28</time>
   <time name="total">    2.64    2.65</time>
   <energy>
    <i name="e_fr_energy">    -84.42417052 </i>
    <i name="e_wo_entrp">    -84.41271775 </i>
    <i name="e_0_energy">    -84.41844413 </i>
   </energy>
  </scstep>
  <scstep>
   <time name="dav">    2.22    2.22</time>
   <time name="total">    2.58    2.59</time>
   <energy>
    <i name="e_fr_energy">    -84.42419878 </i>
    <i name="e_wo_entrp">    -84.41267867 </i>
    <i name="e_0_energy">    -84.41843872 </i>
   </energy>
  </scstep>
  <scstep>
   <time name="dav">    2.16    2.16</time>
   <time name="total">    2.51    2.53</time>
   <energy>
    <i name="e_fr_energy">    -84.42423105 </i>
    <i name="e_wo_entrp">    -84.41266380 </i>
    <i name="e_0_energy">    -84.41844743 </i>
   </energy>
  </scstep>
  <scstep>
   <time name="dav">    2.17    2.17</time>
   <time name="total">    2.53    2.54</time>
   <energy>
    <i name="e_fr_energy">    -84.42425116 </i>
    <i name="e_wo_entrp">    -84.41265262 </i>
    <i name="e_0_energy">    -84.41845189 </i>
   </energy>
  </scstep>
  <scstep>
   <time name="dav">    2.12    2.12</time>
   <time name="total">    2.47    2.49</time>
   <energy>
    <i name="e_fr_energy">    -84.42426727 </i>
    <i name="e_wo_entrp">    -84.41263191 </i>
    <i name="e_0_energy">    -84.41844959 </i>
   </energy>
  </scstep>
  <scstep>
   <time name="dav">    2.18    2.18</time>
   <time name="total">    2.53    2.55</time>
   <energy>
    <i name="e_fr_energy">    -84.42428081 </i>
    <i name="e_wo_entrp">    -84.41264345 </i>
    <i name="e_0_energy">    -84.41846213 </i>
   </energy>
  </scstep>
  <scstep>
   <time name="dav">    2.21    2.21</time>
   <time name="total">    2.57    2.58</time>
   <energy>
    <i name="e_fr_energy">    -84.42429249 </i>
    <i name="e_wo_entrp">    -84.41265678 </i>
    <i name="e_0_energy">    -84.41847463 </i>
   </energy>
  </scstep>
  <scstep>
   <time name="dav">    2.05    2.05</time>
   <time name="total">    2.41    2.42</time>
   <energy>
    <i name="e_fr_energy">    -84.42430242 </i>
    <i name="e_wo_entrp">    -84.41265417 </i>
    <i name="e_0_energy">    -84.41847829 </i>
   </energy>
  </scstep>
  <scstep>
   <time name="dav">    2.07    2.07</time>
   <time name="total">    2.43    2.44</time>
   <energy>
    <i name="e_fr_energy">    -84.42431101 </i>
    <i name="e_wo_entrp">    -84.41265126 </i>
    <i name="e_0_energy">    -84.41848113 </i>
   </energy>
  </scstep>
  <scstep>
   <time name="dav">    2.09    2.09</time>
   <time name="total">    2.45    2.47</time>
   <energy>
    <i name="e_fr_energy">    -84.42431807 </i>
    <i name="e_wo_entrp">    -84.41265476 </i>
    <i name="e_0_energy">    -84.41848641 </i>
   </energy>
  </scstep>
  <scstep>
   <time name="dav">    1.81    1.81</time>
   <time name="total">    2.17    2.19</time>
   <energy>
    <i name="e_fr_energy">    -84.42432237 </i>
    <i name="e_wo_entrp">    -84.41265480 </i>
    <i name="e_0_energy">    -84.41848858 </i>
   </energy>
  </scstep>
  <scstep>
   <time name="dav">    1.42    1.42</time>
   <time name="total">    1.77    1.79</time>
   <energy>
    <i name="e_fr_energy">    -84.42432504 </i>
    <i name="e_wo_entrp">    -84.41265535 </i>
    <i name="e_0_energy">    -84.41849019 </i>
   </energy>
  </scstep>
  <scstep>
   <time name="dav">    1.71    1.71</time>
   <time name="total">    2.07    2.08</time>
   <energy>
    <i name="e_fr_energy">    -84.42432733 </i>
    <i name="e_wo_entrp">    -84.41265582 </i>
    <i name="e_0_energy">    -84.41849157 </i>
   </energy>
  </scstep>
  <scstep>
   <time name="dav">    1.96    1.96</time>
   <time name="total">    2.32    2.33</time>
   <energy>
    <i name="e_fr_energy">    -84.42432971 </i>
    <i name="e_wo_entrp">    -84.41265322 </i>
    <i name="e_0_energy">    -84.41849146 </i>
   </energy>
  </scstep>
  <scstep>
   <time name="dav">    1.76    1.76</time>
   <time name="total">    2.12    2.13</time>
   <energy>
    <i name="e_fr_energy">    -84.42433181 </i>
    <i name="e_wo_entrp">    -84.41265487 </i>
    <i name="e_0_energy">    -84.41849334 </i>
   </energy>
  </scstep>
  <scstep>
   <time name="dav">    1.35    1.35</time>
   <time name="total">    1.71    1.72</time>
   <energy>
    <i name="e_fr_energy">    -84.42433286 </i>
    <i name="e_wo_entrp">    -84.41265565 </i>
    <i name="e_0_energy">    -84.41849426 </i>
   </energy>
  </scstep>
  <scstep>
   <time name="dav">    1.41    1.41</time>
   <time name="total">    1.56    1.57</time>
   <energy>
    <i name="alphaZ">    635.64916683 </i>
    <i name="ewald">  -8727.01589261 </i>
    <i name="hartreedc">  -4201.39763129 </i>
    <i name="XCdc">    571.18999167 </i>
    <i name="pawpsdc">  16276.03872501 </i>
    <i name="pawaedc"> -16646.92990167 </i>
    <i name="eentropy">     -0.01167875 </i>
    <i name="bandstr">   -819.32667585 </i>
    <i name="atom">  12827.37956309 </i>
    <i name="e_fr_energy">    -84.42433358 </i>
    <i name="e_wo_entrp">    -84.41265483 </i>
    <i name="e_0_energy">    -84.41849420 </i>
   </energy>
  </scstep>
  <structure>
   <crystal>
    <varray name="basis" >
     <v>       4.00000000       0.00000000       0.00000000 </v>
     <v>       0.00000000       4.00000000       0.00000000 </v>
     <v>       0.00000000       0.00000000      16.00000000 </v>
    </varray>
    <i name="volume">    256.00000000 </i>
    <varray name="rec_basis" >
     <v>       0.25000000       0.00000000       0.00000000 </v>
     <v>       0.00000000       0.25000000       0.00000000 </v>
     <v>       0.00000000       0.00000000       0.06250000 </v>
    </varray>
   </crystal>
   <varray name="positions" >
    <v>       0.00000000       0.00000000       0.00000000 </v>
    <v>       0.00000000       0.00000000       0.25000000 </v>
    <v>       0.00000000       0.00000000       0.50000000 </v>
    <v>       0.00000000       0.00000000       0.75000000 </v>
    <v>       0.50000000       0.50000000       0.12500000 </v>
    <v>       0.50000000       0.50000000       0.37500000 </v>
    <v>       0.50000000       0.50000000       0.62500000 </v>
    <v>       0.50000000       0.50000000       0.87500000 </v>
    <v>       0.50000000       0.50000000       0.50000000 </v>
    <v>       0.50000000       0.50000000       0.75000000 </v>
    <v>       0.00000000       0.50000000       0.12500000 </v>
    <v>       0.00000000       0.50000000       0.62500000 </v>
    <v>       0.00000000       0.50000000       0.87500000 </v>
    <v>       0.50000000       0.00000000       0.12500000 </v>
    <v>       0.50000000       0.00000000       0.37500000 </v>
    <v>       0.50000000       0.00000000       0.62500000 </v>
    <v>       0.50000000       0.00000000       0.87500000 </v>
   </varray>
  </structure>
  <varray name="forces" >
   <v>       0.00000000       0.00000000      -0.29976551 </v>
   <v>       0.00000000       0.00000000      -1.51473657 </v>
   <v>       0.00000000       0.00000000       1.45888913 </v>
   <v>       0.00000000       0.00000000       0.01464979 </v>
   <v>       0.00000000       0.00000000       0.09055611 </v>
   <v>       0.00000000       0.00000000       0.57307326 </v>
   <v>       0.00000000       0.00000000       0.27768299 </v>
   <v>       0.00000000       0.00000000      -0.73536150 </v>
   <v>       0.00000000       0.00000000      -0.16455683 </v>
   <v>       0.00000000       0.00000000      -1.14618445 </v>
   <v>       0.00000000       0.00000000       0.42842476 </v>
   <v>       0.00000000       0.00000000      -0.19147090 </v>
   <v>       0.00000000       0.00000000       1.28032465 </v>
   <v>       0.00000000       0.00000000       0.21827225 </v>
   <v>       0.00000000       0.00000000      -1.48049963 </v>
   <v>       0.00000000       0.00000000      -0.05824553 </v>
   <v>       0.00000000       0.00000000       1.24894799 </v>
  </varray>
  <varray name="stress" >
   <v>     -88.79681029       0.00000000       0.00000000 </v>
   <v>       0.00000000     -82.28795798       0.00000000 </v>
   <v>       0.00000000       0.00000000    -111.51820764 </v>
  </varray>
  <energy>
   <i name="e_fr_energy">    -84.42433358 </i>
   <i name="e_wo_entrp">    -84.41849420 </i>
   <i name="e_0_energy">     -0.01167875 </i>
  </energy>
  <time name="totalsc">  104.24  104.89</time>
  <eigenvalues>
   <array>
    <dimension dim="1">band</dimension>
    <dimension dim="2">kpoint</dimension>
    <dimension dim="3">spin</dimension>
    <field>eigene</field>
    <field>occ</field>
    <set>
     <set comment="spin 1">
      <set comment="kpoint 1">
       <r>  -32.3602    1.0000 </r>
       <r>  -31.3862    1.0000 </r>
       <r>  -30.6769    1.0000 </r>
       <r>  -29.8173    1.0000 </r>
       <r>  -15.2917    1.0000 </r>
       <r>  -14.9231    1.0000 </r>
       <r>  -14.8273    1.0000 </r>
       <r>  -14.6815    1.0000 </r>
       <r>  -14.4042    1.0000 </r>
       <r>  -14.2573    1.0000 </r>
       <r>  -13.8284    1.0000 </r>
       <r>  -13.7723    1.0000 </r>
       <r>  -13.5827    1.0000 </r>
       <r>  -13.5514    1.0000 </r>
       <r>  -13.4738    1.0000 </r>
       <r>  -13.4567    1.0000 </r>
       <r>  -13.3899    1.0000 </r>
       <r>  -13.3840    1.0000 </r>
       <r>  -12.7994    1.0000 </r>
       <r>  -12.6222    1.0000 </r>
       <r>  -12.5321    1.0000 </r>
       <r>  -12.5051    1.0000 </r>
       <r>  -11.7579    1.0000 </r>
       <r>  -11.7516    1.0000 </r>
       <r>  -11.5801    1.0000 </r>
       <r>   -2.2585    1.0000 </r>
       <r>   -1.5013    1.0000 </r>
       <r>   -1.3719    1.0000 </r>
       <r>   -1.3651    1.0000 </r>
       <r>   -1.1056    1.0000 </r>
       <r>   -1.1030    1.0000 </r>
       <r>   -1.0706    1.0000 </r>
       <r>   -1.0507    1.0000 </r>
       <r>   -1.0038    1.0000 </r>
       <r>   -0.9191    1.0000 </r>
       <r>   -0.9068    1.0000 </r>
       <r>   -0.8442    1.0000 </r>
       <r>   -0.7962    1.0000 </r>
       <r>   -0.7603    1.0000 </r>
       <r>   -0.7458    1.0000 </r>
       <r>   -0.7350    1.0000 </r>
       <r>   -0.7260    1.0000 </r>
       <r>   -0.7192    1.0000 </r>
       <r>   -0.7035    1.0000 </r>
       <r>   -0.6992    1.0000 </r>
       <r>   -0.4975    1.0000 </r>
       <r>   -0.4554    1.0000 </r>
       <r>   -0.4308    1.0000 </r>
       <r>   -0.4243    1.0000 </r>
       <r>   -0.1634    1.0000 </r>
       <r>   -0.0901    1.0000 </r>
       <r>   -0.0505    1.0000 </r>
       <r>    0.0842    1.0000 </r>
       <r>    0.3638    1.0000 </r>
       <r>    0.3972    1.0000 </r>
       <r>    0.4552    1.0000 </r>
       <r>    0.4982    1.0000 </r>
       <r>    0.6335    1.0000 </r>
       <r>    1.1603    1.0000 </r>
       <r>    1.4534    1.0000 </r>
       <r>    1.5520    1.0000 </r>
       <r>    1.5955    1.0000 </r>
       <r>    1.6452    1.0000 </r>
       <r>    1.7133    1.0000 </r>
       <r>    1.7689    1.0000 </r>
       <r>    1.8387    1.0000 </r>
       <r>    1.8532    1.0000 </r>
       <r>    1.9560    1.0000 </r>
       <r>    2.0846    1.0000 </r>
       <r>    2.1958    1.0000 </r>
       <r>    2.2584    1.0000 </r>
       <r>    2.2661    1.0000 </r>
       <r>    2.7653    0.0000 </r>
       <r>    4.4563    0.0000 </r>
       <r>    5.4253    0.0000 </r>
       <r>    6.6027    0.0000 </r>
       <r>    7.4174    0.0000 </r>
       <r>    7.7150    0.0000 </r>
       <r>    8.0250    0.0000 </r>
       <r>    8.3456    0.0000 </r>
       <r>    8.5167    0.0000 </r>
       <r>    8.6703    0.0000 </r>
       <r>    8.7855    0.0000 </r>
       <r>    9.1138    0.0000 </r>
       <r>    9.2758    0.0000 </r>
       <r>    9.4651    0.0000 </r>
       <r>    9.6349    0.0000 </r>
       <r>    9.6511    0.0000 </r>
       <r>    9.9692    0.0000 </r>
       <r>   10.1122    0.0000 </r>
       <r>   10.3314    0.0000 </r>
       <r>   10.3572    0.0000 </r>
      </set>
      <set comment="kpoint 2">
       <r>  -32.3559    1.0000 </r>
       <r>  -31.3817    1.0000 </r>
       <r>  -30.6721    1.0000 </r>
       <r>  -29.8122    1.0000 </r>
       <r>  -15.1714    1.0000 </r>
       <r>  -14.9832    1.0000 </r>
       <r>  -14.7518    1.0000 </r>
       <r>  -14.6232    1.0000 </r>
       <r>  -14.3975    1.0000 </r>
       <r>  -14.2645    1.0000 </r>
       <r>  -13.9375    1.0000 </r>
       <r>  -13.8315    1.0000 </r>
       <r>  -13.6627    1.0000 </r>
       <r>  -13.6520    1.0000 </r>
       <r>  -13.5910    1.0000 </r>
       <r>  -13.5248    1.0000 </r>
       <r>  -13.3829    1.0000 </r>
       <r>  -13.2221    1.0000 </r>
       <r>  -12.8313    1.0000 </r>
       <r>  -12.6097    1.0000 </r>
       <r>  -12.5458    1.0000 </r>
       <r>  -12.3612    1.0000 </r>
       <r>  -11.7379    1.0000 </r>
       <r>  -11.6423    1.0000 </r>
       <r>  -11.6116    1.0000 </r>
       <r>   -2.2771    1.0000 </r>
       <r>   -1.8369    1.0000 </r>
       <r>   -1.7739    1.0000 </r>
       <r>   -1.7039    1.0000 </r>
       <r>   -1.5765    1.0000 </r>
       <r>   -1.4241    1.0000 </r>
       <r>   -1.3975    1.0000 </r>
       <r>   -1.3294    1.0000 </r>
       <r>   -1.3182    1.0000 </r>
       <r>   -1.2263    1.0000 </r>
       <r>   -1.1073    1.0000 </r>
       <r>   -1.0422    1.0000 </r>
       <r>   -0.9991    1.0000 </r>
       <r>   -0.8356    1.0000 </r>
       <r>   -0.7086    1.0000 </r>
       <r>   -0.6727    1.0000 </r>
       <r>   -0.6562    1.0000 </r>
       <r>   -0.6194    1.0000 </r>
       <r>   -0.5503    1.0000 </r>
       <r>   -0.4926    1.0000 </r>
       <r>   -0.4916    1.0000 </r>
       <r>   -0.4568    1.0000 </r>
       <r>   -0.4400    1.0000 </r>
       <r>   -0.3711    1.0000 </r>
       <r>   -0.1059    1.0000 </r>
       <r>   -0.0906    1.0000 </r>
       <r>    0.1261    1.0000 </r>
       <r>    0.3245    1.0000 </r>
       <r>    0.5829    1.0000 </r>
       <r>    0.6190    1.0000 </r>
       <r>    0.7188    1.0000 </r>
       <r>    0.7987    1.0000 </r>
       <r>    0.8842    1.0000 </r>
       <r>    1.1865    1.0000 </r>
       <r>    1.3728    1.0000 </r>
       <r>    1.4590    1.0000 </r>
       <r>    1.5538    1.0000 </r>
       <r>    1.5666    1.0000 </r>
       <r>    1.6208    1.0000 </r>
       <r>    1.6942    1.0000 </r>
       <r>    1.7903    1.0000 </r>
       <r>    1.8259    1.0000 </r>
       <r>    1.9709    1.0000 </r>
       <r>    1.9783    1.0000 </r>
       <r>    2.1134    1.0000 </r>
       <r>    2.3318    1.0000 </r>
       <r>    2.8655    0.0000 </r>
       <r>    3.2373    0.0000 </r>
       <r>    4.9961    0.0000 </r>
       <r>    5.8218    0.0000 </r>
       <r>    6.5896    0.0000 </r>
       <r>    7.7897    0.0000 </r>
       <r>    8.0455    0.0000 </r>
       <r>    8.1235    0.0000 </r>
       <r>    8.2172    0.0000 </r>
       <r>    8.5023    0.0000 </r>
       <r>    8.7794    0.0000 </r>
       <r>    8.9870    0.0000 </r>
       <r>    9.0382    0.0000 </r>
       <r>    9.3233    0.0000 </r>
       <r>    9.5201    0.0000 </r>
       <r>    9.7104    0.0000 </r>
       <r>    9.8993    0.0000 </r>
       <r>   10.0097    0.0000 </r>
       <r>   10.0711    0.0000 </r>
       <r>   10.3939    0.0000 </r>
       <r>   10.4868    0.0000 </r>
      </set>
      <set comment="kpoint 3">
       <r>  -32.3490    1.0000 </r>
       <r>  -31.3745    1.0000 </r>
       <r>  -30.6642    1.0000 </r>
       <r>  -29.8040    1.0000 </r>
       <r>  -15.1689    1.0000 </r>
       <r>  -14.8260    1.0000 </r>
       <r>  -14.6349    1.0000 </r>
       <r>  -14.5250    1.0000 </r>
       <r>  -14.3867    1.0000 </r>
       <r>  -14.2760    1.0000 </r>
       <r>  -14.0574    1.0000 </r>
       <r>  -13.9689    1.0000 </r>
       <r>  -13.8827    1.0000 </r>
       <r>  -13.7716    1.0000 </r>
       <r>  -13.6707    1.0000 </r>
       <r>  -13.5263    1.0000 </r>
       <r>  -13.3714    1.0000 </r>
       <r>  -13.1267    1.0000 </r>
       <r>  -12.8601    1.0000 </r>
       <r>  -12.6036    1.0000 </r>
       <r>  -12.5893    1.0000 </r>
       <r>  -12.1587    1.0000 </r>
       <r>  -11.7156    1.0000 </r>
       <r>  -11.6548    1.0000 </r>
       <r>  -11.4898    1.0000 </r>
       <r>   -2.6694    1.0000 </r>
       <r>   -2.6537    1.0000 </r>
       <r>   -2.4627    1.0000 </r>
       <r>   -2.2154    1.0000 </r>
       <r>   -1.9894    1.0000 </r>
       <r>   -1.5782    1.0000 </r>
       <r>   -1.5150    1.0000 </r>
       <r>   -1.4498    1.0000 </r>
       <r>   -1.4412    1.0000 </r>
       <r>   -1.3931    1.0000 </r>
       <r>   -1.3336    1.0000 </r>
       <r>   -1.2921    1.0000 </r>
       <r>   -1.0258    1.0000 </r>
       <r>   -0.8289    1.0000 </r>
       <r>   -0.7181    1.0000 </r>
       <r>   -0.7098    1.0000 </r>
       <r>   -0.6072    1.0000 </r>
       <r>   -0.6049    1.0000 </r>
       <r>   -0.4917    1.0000 </r>
       <r>   -0.4740    1.0000 </r>
       <r>   -0.4695    1.0000 </r>
       <r>   -0.3969    1.0000 </r>
       <r>   -0.2418    1.0000 </r>
       <r>   -0.1907    1.0000 </r>
       <r>   -0.0478    1.0000 </r>
       <r>    0.0588    1.0000 </r>
       <r>    0.1497    1.0000 </r>
       <r>    0.4395    1.0000 </r>
       <r>    0.6222    1.0000 </r>
       <r>    0.7288    1.0000 </r>
       <r>    0.8862    1.0000 </r>
       <r>    0.9894    1.0000 </r>
       <r>    1.0750    1.0000 </r>
       <r>    1.1093    1.0000 </r>
       <r>    1.2143    1.0000 </r>
       <r>    1.2647    1.0000 </r>
       <r>    1.5540    1.0000 </r>
       <r>    1.5881    1.0000 </r>
       <r>    1.6925    1.0000 </r>
       <r>    1.7116    1.0000 </r>
       <r>    1.8060    1.0000 </r>
       <r>    1.8463    1.0000 </r>
       <r>    1.8575    1.0000 </r>
       <r>    1.9587    1.0000 </r>
       <r>    2.3222    1.0000 </r>
       <r>    2.5127    0.9994 </r>
       <r>    3.5340    0.0000 </r>
       <r>    4.0183    0.0000 </r>
       <r>    5.2974    0.0000 </r>
       <r>    6.2196    0.0000 </r>
       <r>    6.6959    0.0000 </r>
       <r>    7.5792    0.0000 </r>
       <r>    7.5929    0.0000 </r>
       <r>    7.8916    0.0000 </r>
       <r>    8.3772    0.0000 </r>
       <r>    8.4869    0.0000 </r>
       <r>    8.9247    0.0000 </r>
       <r>    9.1719    0.0000 </r>
       <r>    9.5807    0.0000 </r>
       <r>    9.9227    0.0000 </r>
       <r>   10.0848    0.0000 </r>
       <r>   10.1733    0.0000 </r>
       <r>   10.3827    0.0000 </r>
       <r>   10.4414    0.0000 </r>
       <r>   10.4792    0.0000 </r>
       <r>   10.6007    0.0000 </r>
       <r>   11.1171    0.0000 </r>
      </set>
      <set comment="kpoint 4">
       <r>  -32.3559    1.0000 </r>
       <r>  -31.3817    1.0000 </r>
       <r>  -30.6722    1.0000 </r>
       <r>  -29.8123    1.0000 </r>
       <r>  -15.1975    1.0000 </r>
       <r>  -14.8575    1.0000 </r>
       <r>  -14.7369    1.0000 </r>
       <r>  -14.6282    1.0000 </r>
       <r>  -14.4627    1.0000 </r>
       <r>  -14.2505    1.0000 </r>
       <r>  -13.9349    1.0000 </r>
       <r>  -13.8276    1.0000 </r>
       <r>  -13.7314    1.0000 </r>
       <r>  -13.6554    1.0000 </r>
       <r>  -13.5997    1.0000 </r>
       <r>  -13.4825    1.0000 </r>
       <r>  -13.3770    1.0000 </r>
       <r>  -13.2294    1.0000 </r>
       <r>  -12.8254    1.0000 </r>
       <r>  -12.5217    1.0000 </r>
       <r>  -12.5194    1.0000 </r>
       <r>  -12.4426    1.0000 </r>
       <r>  -11.7444    1.0000 </r>
       <r>  -11.6356    1.0000 </r>
       <r>  -11.6133    1.0000 </r>
       <r>   -2.3006    1.0000 </r>
       <r>   -1.9737    1.0000 </r>
       <r>   -1.8534    1.0000 </r>
       <r>   -1.7940    1.0000 </r>
       <r>   -1.7086    1.0000 </r>
       <r>   -1.6091    1.0000 </r>
       <r>   -1.4270    1.0000 </r>
       <r>   -1.3873    1.0000 </r>
       <r>   -1.3346    1.0000 </r>
       <r>   -1.3151    1.0000 </r>
       <r>   -1.2307    1.0000 </r>
       <r>   -1.1412    1.0000 </r>
       <r>   -1.1071    1.0000 </r>
       <r>   -0.9454    1.0000 </r>
       <r>   -0.9363    1.0000 </r>
       <r>   -0.8515    1.0000 </r>
       <r>   -0.7112    1.0000 </r>
       <r>   -0.6578    1.0000 </r>
       <r>   -0.6378    1.0000 </r>
       <r>   -0.5370    1.0000 </r>
       <r>   -0.4708    1.0000 </r>
       <r>   -0.4620    1.0000 </r>
       <r>   -0.4058    1.0000 </r>
       <r>   -0.3170    1.0000 </r>
       <r>    0.0312    1.0000 </r>
       <r>    0.3473    1.0000 </r>
       <r>    0.4418    1.0000 </r>
       <r>    0.5814    1.0000 </r>
       <r>    0.5917    1.0000 </r>
       <r>    0.6647    1.0000 </r>
       <r>    0.7606    1.0000 </r>
       <r>    0.8696    1.0000 </r>
       <r>    0.9130    1.0000 </r>
       <r>    1.2140    1.0000 </r>
       <r>    1.4600    1.0000 </r>
       <r>    1.5065    1.0000 </r>
       <r>    1.5814    1.0000 </r>
       <r>    1.6005    1.0000 </r>
       <r>    1.6165    1.0000 </r>
       <r>    1.6301    1.0000 </r>
       <r>    1.8352    1.0000 </r>
       <r>    1.8543    1.0000 </r>
       <r>    1.8943    1.0000 </r>
       <r>    1.9799    1.0000 </r>
       <r>    2.1743    1.0000 </r>
       <r>    2.4813    1.0000 </r>
       <r>    2.9783    0.0000 </r>
       <r>    3.4961    0.0000 </r>
       <r>    4.9732    0.0000 </r>
       <r>    5.7660    0.0000 </r>
       <r>    6.8873    0.0000 </r>
       <r>    7.4991    0.0000 </r>
       <r>    7.8765    0.0000 </r>
       <r>    8.0065    0.0000 </r>
       <r>    8.2671    0.0000 </r>
       <r>    8.6789    0.0000 </r>
       <r>    8.8648    0.0000 </r>
       <r>    9.0231    0.0000 </r>
       <r>    9.0616    0.0000 </r>
       <r>    9.2537    0.0000 </r>
       <r>    9.6096    0.0000 </r>
       <r>    9.8041    0.0000 </r>
       <r>    9.9318    0.0000 </r>
       <r>   10.0300    0.0000 </r>
       <r>   10.2860    0.0000 </r>
       <r>   10.3348    0.0000 </r>
       <r>   10.4122    0.0000 </r>
      </set>
      <set comment="kpoint 5">
       <r>  -32.3517    1.0000 </r>
       <r>  -31.3773    1.0000 </r>
       <r>  -30.6675    1.0000 </r>
       <r>  -29.8073    1.0000 </r>
       <r>  -15.0883    1.0000 </r>
       <r>  -14.9183    1.0000 </r>
       <r>  -14.6606    1.0000 </r>
       <r>  -14.5361    1.0000 </r>
       <r>  -14.5110    1.0000 </r>
       <r>  -14.2184    1.0000 </r>
       <r>  -13.9276    1.0000 </r>
       <r>  -13.9074    1.0000 </r>
       <r>  -13.7607    1.0000 </r>
       <r>  -13.7026    1.0000 </r>
       <r>  -13.6548    1.0000 </r>
       <r>  -13.5625    1.0000 </r>
       <r>  -13.2969    1.0000 </r>
       <r>  -13.1869    1.0000 </r>
       <r>  -12.8775    1.0000 </r>
       <r>  -12.6102    1.0000 </r>
       <r>  -12.5330    1.0000 </r>
       <r>  -12.3439    1.0000 </r>
       <r>  -11.7462    1.0000 </r>
       <r>  -11.6529    1.0000 </r>
       <r>  -11.5939    1.0000 </r>
       <r>   -2.3079    1.0000 </r>
       <r>   -1.9693    1.0000 </r>
       <r>   -1.9354    1.0000 </r>
       <r>   -1.8556    1.0000 </r>
       <r>   -1.7920    1.0000 </r>
       <r>   -1.7661    1.0000 </r>
       <r>   -1.6808    1.0000 </r>
       <r>   -1.6270    1.0000 </r>
       <r>   -1.5882    1.0000 </r>
       <r>   -1.5199    1.0000 </r>
       <r>   -1.3991    1.0000 </r>
       <r>   -1.3584    1.0000 </r>
       <r>   -1.3080    1.0000 </r>
       <r>   -1.2335    1.0000 </r>
       <r>   -1.1391    1.0000 </r>
       <r>   -1.1083    1.0000 </r>
       <r>   -1.0517    1.0000 </r>
       <r>   -1.0225    1.0000 </r>
       <r>   -1.0106    1.0000 </r>
       <r>   -0.9554    1.0000 </r>
       <r>   -0.5317    1.0000 </r>
       <r>   -0.4079    1.0000 </r>
       <r>   -0.2934    1.0000 </r>
       <r>    0.0743    1.0000 </r>
       <r>    0.2728    1.0000 </r>
       <r>    0.4801    1.0000 </r>
       <r>    0.5676    1.0000 </r>
       <r>    0.8540    1.0000 </r>
       <r>    0.9186    1.0000 </r>
       <r>    0.9828    1.0000 </r>
       <r>    1.0466    1.0000 </r>
       <r>    1.0816    1.0000 </r>
       <r>    1.1541    1.0000 </r>
       <r>    1.1947    1.0000 </r>
       <r>    1.2720    1.0000 </r>
       <r>    1.3288    1.0000 </r>
       <r>    1.3388    1.0000 </r>
       <r>    1.4749    1.0000 </r>
       <r>    1.5204    1.0000 </r>
       <r>    1.7602    1.0000 </r>
       <r>    1.8399    1.0000 </r>
       <r>    2.1802    1.0000 </r>
       <r>    2.4074    1.0000 </r>
       <r>    2.5265    0.9977 </r>
       <r>    2.5723    0.9385 </r>
       <r>    2.7826    0.0000 </r>
       <r>    3.0740    0.0000 </r>
       <r>    3.6894    0.0000 </r>
       <r>    5.3352    0.0000 </r>
       <r>    5.8353    0.0000 </r>
       <r>    6.9016    0.0000 </r>
       <r>    7.4051    0.0000 </r>
       <r>    7.7647    0.0000 </r>
       <r>    8.1351    0.0000 </r>
       <r>    8.2835    0.0000 </r>
       <r>    8.4528    0.0000 </r>
       <r>    8.7668    0.0000 </r>
       <r>    8.9805    0.0000 </r>
       <r>    9.3292    0.0000 </r>
       <r>    9.6243    0.0000 </r>
       <r>    9.7197    0.0000 </r>
       <r>    9.9443    0.0000 </r>
       <r>   10.0929    0.0000 </r>
       <r>   10.1779    0.0000 </r>
       <r>   10.4876    0.0000 </r>
       <r>   10.5345    0.0000 </r>
       <r>   10.6219    0.0000 </r>
      </set>
      <set comment="kpoint 6">
       <r>  -32.3449    1.0000 </r>
       <r>  -31.3702    1.0000 </r>
       <r>  -30.6599    1.0000 </r>
       <r>  -29.7994    1.0000 </r>
       <r>  -15.1014    1.0000 </r>
       <r>  -14.7836    1.0000 </r>
       <r>  -14.5652    1.0000 </r>
       <r>  -14.5041    1.0000 </r>
       <r>  -14.3628    1.0000 </r>
       <r>  -14.2114    1.0000 </r>
       <r>  -14.0348    1.0000 </r>
       <r>  -13.9166    1.0000 </r>
       <r>  -13.8905    1.0000 </r>
       <r>  -13.8786    1.0000 </r>
       <r>  -13.6567    1.0000 </r>
       <r>  -13.5518    1.0000 </r>
       <r>  -13.2530    1.0000 </r>
       <r>  -13.1134    1.0000 </r>
       <r>  -12.9490    1.0000 </r>
       <r>  -12.6961    1.0000 </r>
       <r>  -12.5676    1.0000 </r>
       <r>  -12.2635    1.0000 </r>
       <r>  -11.7264    1.0000 </r>
       <r>  -11.7109    1.0000 </r>
       <r>  -11.5675    1.0000 </r>
       <r>   -2.7410    1.0000 </r>
       <r>   -2.6663    1.0000 </r>
       <r>   -2.5014    1.0000 </r>
       <r>   -2.2275    1.0000 </r>
       <r>   -1.9513    1.0000 </r>
       <r>   -1.9097    1.0000 </r>
       <r>   -1.8246    1.0000 </r>
       <r>   -1.7543    1.0000 </r>
       <r>   -1.6777    1.0000 </r>
       <r>   -1.6393    1.0000 </r>
       <r>   -1.5970    1.0000 </r>
       <r>   -1.5747    1.0000 </r>
       <r>   -1.5096    1.0000 </r>
       <r>   -1.4572    1.0000 </r>
       <r>   -1.3595    1.0000 </r>
       <r>   -1.3073    1.0000 </r>
       <r>   -1.1648    1.0000 </r>
       <r>   -1.0603    1.0000 </r>
       <r>   -1.0576    1.0000 </r>
       <r>   -0.9794    1.0000 </r>
       <r>   -0.6057    1.0000 </r>
       <r>   -0.3588    1.0000 </r>
       <r>   -0.0398    1.0000 </r>
       <r>    0.2340    1.0000 </r>
       <r>    0.4797    1.0000 </r>
       <r>    0.5032    1.0000 </r>
       <r>    0.6490    1.0000 </r>
       <r>    0.8776    1.0000 </r>
       <r>    0.9229    1.0000 </r>
       <r>    1.0366    1.0000 </r>
       <r>    1.0944    1.0000 </r>
       <r>    1.1812    1.0000 </r>
       <r>    1.2291    1.0000 </r>
       <r>    1.2475    1.0000 </r>
       <r>    1.3400    1.0000 </r>
       <r>    1.5459    1.0000 </r>
       <r>    1.6414    1.0000 </r>
       <r>    1.7258    1.0000 </r>
       <r>    1.7719    1.0000 </r>
       <r>    1.9221    1.0000 </r>
       <r>    2.0025    1.0000 </r>
       <r>    2.2742    1.0000 </r>
       <r>    2.3902    1.0000 </r>
       <r>    2.6430    0.3238 </r>
       <r>    2.9448    0.0000 </r>
       <r>    3.1812    0.0000 </r>
       <r>    3.6583    0.0000 </r>
       <r>    4.2186    0.0000 </r>
       <r>    5.0510    0.0000 </r>
       <r>    6.0093    0.0000 </r>
       <r>    6.8433    0.0000 </r>
       <r>    7.5986    0.0000 </r>
       <r>    7.8246    0.0000 </r>
       <r>    8.1390    0.0000 </r>
       <r>    8.3623    0.0000 </r>
       <r>    9.0247    0.0000 </r>
       <r>    9.1027    0.0000 </r>
       <r>    9.4681    0.0000 </r>
       <r>    9.8193    0.0000 </r>
       <r>    9.8793    0.0000 </r>
       <r>   10.0520    0.0000 </r>
       <r>   10.1960    0.0000 </r>
       <r>   10.3157    0.0000 </r>
       <r>   10.5397    0.0000 </r>
       <r>   10.5857    0.0000 </r>
       <r>   10.7559    0.0000 </r>
       <r>   10.9941    0.0000 </r>
      </set>
      <set comment="kpoint 7">
       <r>  -32.3490    1.0000 </r>
       <r>  -31.3745    1.0000 </r>
       <r>  -30.6645    1.0000 </r>
       <r>  -29.8040    1.0000 </r>
       <r>  -15.0122    1.0000 </r>
       <r>  -14.8794    1.0000 </r>
       <r>  -14.6101    1.0000 </r>
       <r>  -14.4533    1.0000 </r>
       <r>  -14.4011    1.0000 </r>
       <r>  -14.2394    1.0000 </r>
       <r>  -14.1174    1.0000 </r>
       <r>  -14.0413    1.0000 </r>
       <r>  -13.9243    1.0000 </r>
       <r>  -13.7766    1.0000 </r>
       <r>  -13.6624    1.0000 </r>
       <r>  -13.4817    1.0000 </r>
       <r>  -13.3655    1.0000 </r>
       <r>  -13.1389    1.0000 </r>
       <r>  -12.8494    1.0000 </r>
       <r>  -12.5261    1.0000 </r>
       <r>  -12.4988    1.0000 </r>
       <r>  -12.2553    1.0000 </r>
       <r>  -11.7223    1.0000 </r>
       <r>  -11.6609    1.0000 </r>
       <r>  -11.4821    1.0000 </r>
       <r>   -3.0168    1.0000 </r>
       <r>   -2.7049    1.0000 </r>
       <r>   -2.6205    1.0000 </r>
       <r>   -2.4944    1.0000 </r>
       <r>   -2.2055    1.0000 </r>
       <r>   -2.0688    1.0000 </r>
       <r>   -1.5795    1.0000 </r>
       <r>   -1.5335    1.0000 </r>
       <r>   -1.5039    1.0000 </r>
       <r>   -1.4246    1.0000 </r>
       <r>   -1.4239    1.0000 </r>
       <r>   -1.3967    1.0000 </r>
       <r>   -1.3079    1.0000 </r>
       <r>   -1.2695    1.0000 </r>
       <r>   -1.2285    1.0000 </r>
       <r>   -0.8761    1.0000 </r>
       <r>   -0.7204    1.0000 </r>
       <r>   -0.6067    1.0000 </r>
       <r>   -0.5494    1.0000 </r>
       <r>   -0.4554    1.0000 </r>
       <r>   -0.3959    1.0000 </r>
       <r>   -0.3570    1.0000 </r>
       <r>   -0.1992    1.0000 </r>
       <r>   -0.0047    1.0000 </r>
       <r>    0.1037    1.0000 </r>
       <r>    0.4971    1.0000 </r>
       <r>    0.5340    1.0000 </r>
       <r>    0.7310    1.0000 </r>
       <r>    0.8924    1.0000 </r>
       <r>    1.0275    1.0000 </r>
       <r>    1.0974    1.0000 </r>
       <r>    1.1378    1.0000 </r>
       <r>    1.1828    1.0000 </r>
       <r>    1.2126    1.0000 </r>
       <r>    1.3069    1.0000 </r>
       <r>    1.4704    1.0000 </r>
       <r>    1.5618    1.0000 </r>
       <r>    1.6267    1.0000 </r>
       <r>    1.6630    1.0000 </r>
       <r>    1.6679    1.0000 </r>
       <r>    1.7858    1.0000 </r>
       <r>    1.8715    1.0000 </r>
       <r>    1.8859    1.0000 </r>
       <r>    2.0051    1.0000 </r>
       <r>    2.2603    1.0000 </r>
       <r>    2.5542    0.9800 </r>
       <r>    3.6278    0.0000 </r>
       <r>    4.8994    0.0000 </r>
       <r>    6.0255    0.0000 </r>
       <r>    6.4476    0.0000 </r>
       <r>    6.9899    0.0000 </r>
       <r>    7.0486    0.0000 </r>
       <r>    7.2623    0.0000 </r>
       <r>    7.7063    0.0000 </r>
       <r>    8.3722    0.0000 </r>
       <r>    8.3770    0.0000 </r>
       <r>    9.1430    0.0000 </r>
       <r>    9.3599    0.0000 </r>
       <r>    9.3719    0.0000 </r>
       <r>    9.8332    0.0000 </r>
       <r>    9.9183    0.0000 </r>
       <r>   10.4068    0.0000 </r>
       <r>   10.4225    0.0000 </r>
       <r>   10.5373    0.0000 </r>
       <r>   10.5802    0.0000 </r>
       <r>   10.6417    0.0000 </r>
       <r>   10.9628    0.0000 </r>
      </set>
      <set comment="kpoint 8">
       <r>  -32.3448    1.0000 </r>
       <r>  -31.3702    1.0000 </r>
       <r>  -30.6600    1.0000 </r>
       <r>  -29.7994    1.0000 </r>
       <r>  -14.9397    1.0000 </r>
       <r>  -14.8714    1.0000 </r>
       <r>  -14.6014    1.0000 </r>
       <r>  -14.4881    1.0000 </r>
       <r>  -14.3267    1.0000 </r>
       <r>  -14.1590    1.0000 </r>
       <r>  -14.0443    1.0000 </r>
       <r>  -13.9973    1.0000 </r>
       <r>  -13.9059    1.0000 </r>
       <r>  -13.8372    1.0000 </r>
       <r>  -13.7370    1.0000 </r>
       <r>  -13.5067    1.0000 </r>
       <r>  -13.2383    1.0000 </r>
       <r>  -13.1275    1.0000 </r>
       <r>  -12.9426    1.0000 </r>
       <r>  -12.5944    1.0000 </r>
       <r>  -12.5177    1.0000 </r>
       <r>  -12.3557    1.0000 </r>
       <r>  -11.7344    1.0000 </r>
       <r>  -11.7150    1.0000 </r>
       <r>  -11.5597    1.0000 </r>
       <r>   -2.9903    1.0000 </r>
       <r>   -2.7161    1.0000 </r>
       <r>   -2.6944    1.0000 </r>
       <r>   -2.5335    1.0000 </r>
       <r>   -2.2034    1.0000 </r>
       <r>   -1.9804    1.0000 </r>
       <r>   -1.8103    1.0000 </r>
       <r>   -1.7625    1.0000 </r>
       <r>   -1.6482    1.0000 </r>
       <r>   -1.6200    1.0000 </r>
       <r>   -1.6188    1.0000 </r>
       <r>   -1.5893    1.0000 </r>
       <r>   -1.5068    1.0000 </r>
       <r>   -1.4499    1.0000 </r>
       <r>   -1.4309    1.0000 </r>
       <r>   -1.3578    1.0000 </r>
       <r>   -1.3328    1.0000 </r>
       <r>   -1.2470    1.0000 </r>
       <r>   -1.0947    1.0000 </r>
       <r>   -1.0202    1.0000 </r>
       <r>   -0.5329    1.0000 </r>
       <r>   -0.3565    1.0000 </r>
       <r>   -0.2513    1.0000 </r>
       <r>    0.4869    1.0000 </r>
       <r>    0.5390    1.0000 </r>
       <r>    0.8072    1.0000 </r>
       <r>    0.9325    1.0000 </r>
       <r>    0.9518    1.0000 </r>
       <r>    1.0115    1.0000 </r>
       <r>    1.1504    1.0000 </r>
       <r>    1.2249    1.0000 </r>
       <r>    1.2346    1.0000 </r>
       <r>    1.2864    1.0000 </r>
       <r>    1.3035    1.0000 </r>
       <r>    1.4194    1.0000 </r>
       <r>    1.4570    1.0000 </r>
       <r>    1.6596    1.0000 </r>
       <r>    1.7574    1.0000 </r>
       <r>    1.7856    1.0000 </r>
       <r>    1.9157    1.0000 </r>
       <r>    2.0040    1.0000 </r>
       <r>    2.2736    1.0000 </r>
       <r>    2.3201    1.0000 </r>
       <r>    2.6985    0.0212 </r>
       <r>    2.9415    0.0000 </r>
       <r>    3.1714    0.0000 </r>
       <r>    3.6123    0.0000 </r>
       <r>    4.8048    0.0000 </r>
       <r>    5.4639    0.0000 </r>
       <r>    6.0551    0.0000 </r>
       <r>    6.9456    0.0000 </r>
       <r>    7.4517    0.0000 </r>
       <r>    7.8935    0.0000 </r>
       <r>    7.9873    0.0000 </r>
       <r>    8.3447    0.0000 </r>
       <r>    8.9740    0.0000 </r>
       <r>    9.1572    0.0000 </r>
       <r>    9.3814    0.0000 </r>
       <r>    9.8144    0.0000 </r>
       <r>    9.8602    0.0000 </r>
       <r>   10.0193    0.0000 </r>
       <r>   10.2661    0.0000 </r>
       <r>   10.3145    0.0000 </r>
       <r>   10.3948    0.0000 </r>
       <r>   10.7482    0.0000 </r>
       <r>   10.8155    0.0000 </r>
       <r>   11.0573    0.0000 </r>
      </set>
      <set comment="kpoint 9">
       <r>  -32.3381    1.0000 </r>
       <r>  -31.3631    1.0000 </r>
       <r>  -30.6528    1.0000 </r>
       <r>  -29.7919    1.0000 </r>
       <r>  -14.9947    1.0000 </r>
       <r>  -14.8268    1.0000 </r>
       <r>  -14.5216    1.0000 </r>
       <r>  -14.2652    1.0000 </r>
       <r>  -14.2094    1.0000 </r>
       <r>  -14.1696    1.0000 </r>
       <r>  -14.0529    1.0000 </r>
       <r>  -13.9574    1.0000 </r>
       <r>  -13.9032    1.0000 </r>
       <r>  -13.7630    1.0000 </r>
       <r>  -13.6769    1.0000 </r>
       <r>  -13.5963    1.0000 </r>
       <r>  -13.1447    1.0000 </r>
       <r>  -13.1121    1.0000 </r>
       <r>  -13.0999    1.0000 </r>
       <r>  -12.7266    1.0000 </r>
       <r>  -12.6186    1.0000 </r>
       <r>  -12.4629    1.0000 </r>
       <r>  -11.8073    1.0000 </r>
       <r>  -11.7420    1.0000 </r>
       <r>  -11.6912    1.0000 </r>
       <r>   -3.1372    1.0000 </r>
       <r>   -2.9705    1.0000 </r>
       <r>   -2.8630    1.0000 </r>
       <r>   -2.7870    1.0000 </r>
       <r>   -2.5091    1.0000 </r>
       <r>   -2.3111    1.0000 </r>
       <r>   -2.2235    1.0000 </r>
       <r>   -2.1655    1.0000 </r>
       <r>   -2.1412    1.0000 </r>
       <r>   -2.0628    1.0000 </r>
       <r>   -1.8835    1.0000 </r>
       <r>   -1.8262    1.0000 </r>
       <r>   -1.7940    1.0000 </r>
       <r>   -1.5070    1.0000 </r>
       <r>   -1.4358    1.0000 </r>
       <r>   -1.4241    1.0000 </r>
       <r>   -1.3787    1.0000 </r>
       <r>   -1.3595    1.0000 </r>
       <r>   -1.3118    1.0000 </r>
       <r>   -1.2348    1.0000 </r>
       <r>   -0.5700    1.0000 </r>
       <r>   -0.3739    1.0000 </r>
       <r>    0.0157    1.0000 </r>
       <r>    0.7843    1.0000 </r>
       <r>    0.8617    1.0000 </r>
       <r>    1.0300    1.0000 </r>
       <r>    1.0465    1.0000 </r>
       <r>    1.1455    1.0000 </r>
       <r>    1.2084    1.0000 </r>
       <r>    1.2905    1.0000 </r>
       <r>    1.3140    1.0000 </r>
       <r>    1.3340    1.0000 </r>
       <r>    1.3409    1.0000 </r>
       <r>    1.4440    1.0000 </r>
       <r>    1.4904    1.0000 </r>
       <r>    1.5689    1.0000 </r>
       <r>    1.7636    1.0000 </r>
       <r>    2.0148    1.0000 </r>
       <r>    2.1635    1.0000 </r>
       <r>    2.2435    1.0000 </r>
       <r>    2.2879    1.0000 </r>
       <r>    2.3543    1.0000 </r>
       <r>    2.4880    1.0000 </r>
       <r>    3.4570    0.0000 </r>
       <r>    3.8975    0.0000 </r>
       <r>    4.0680    0.0000 </r>
       <r>    4.1598    0.0000 </r>
       <r>    4.4021    0.0000 </r>
       <r>    4.5195    0.0000 </r>
       <r>    5.7508    0.0000 </r>
       <r>    8.0750    0.0000 </r>
       <r>    8.2017    0.0000 </r>
       <r>    8.3441    0.0000 </r>
       <r>    8.5385    0.0000 </r>
       <r>    8.7489    0.0000 </r>
       <r>    9.2024    0.0000 </r>
       <r>    9.4682    0.0000 </r>
       <r>    9.5702    0.0000 </r>
       <r>    9.7356    0.0000 </r>
       <r>   10.0216    0.0000 </r>
       <r>   10.0642    0.0000 </r>
       <r>   10.2176    0.0000 </r>
       <r>   10.4990    0.0000 </r>
       <r>   10.5146    0.0000 </r>
       <r>   10.8218    0.0000 </r>
       <r>   10.9109    0.0000 </r>
       <r>   11.2047    0.0000 </r>
      </set>
     </set>
     <set comment="spin 2">
      <set comment="kpoint 1">
       <r>  -32.3607    1.0000 </r>
       <r>  -31.3872    1.0000 </r>
       <r>  -30.6795    1.0000 </r>
       <r>  -29.8200    1.0000 </r>
       <r>  -15.2856    1.0000 </r>
       <r>  -14.8996    1.0000 </r>
       <r>  -14.6191    1.0000 </r>
       <r>  -14.5252    1.0000 </r>
       <r>  -14.4050    1.0000 </r>
       <r>  -14.2582    1.0000 </r>
       <r>  -13.8117    1.0000 </r>
       <r>  -13.7669    1.0000 </r>
       <r>  -13.4123    1.0000 </r>
       <r>  -13.3910    1.0000 </r>
       <r>  -13.3851    1.0000 </r>
       <r>  -13.3626    1.0000 </r>
       <r>  -13.2826    1.0000 </r>
       <r>  -13.1586    1.0000 </r>
       <r>  -12.7845    1.0000 </r>
       <r>  -12.6251    1.0000 </r>
       <r>  -12.5353    1.0000 </r>
       <r>  -12.4728    1.0000 </r>
       <r>  -11.7617    1.0000 </r>
       <r>  -11.7539    1.0000 </r>
       <r>  -11.5577    1.0000 </r>
       <r>   -2.1607    1.0000 </r>
       <r>   -1.3570    1.0000 </r>
       <r>   -1.3290    1.0000 </r>
       <r>   -1.3289    1.0000 </r>
       <r>   -1.0913    1.0000 </r>
       <r>   -1.0813    1.0000 </r>
       <r>   -1.0696    1.0000 </r>
       <r>   -1.0413    1.0000 </r>
       <r>   -0.9482    1.0000 </r>
       <r>   -0.8086    1.0000 </r>
       <r>   -0.7965    1.0000 </r>
       <r>   -0.7957    1.0000 </r>
       <r>   -0.7753    1.0000 </r>
       <r>   -0.7203    1.0000 </r>
       <r>   -0.7061    1.0000 </r>
       <r>   -0.7009    1.0000 </r>
       <r>   -0.6820    1.0000 </r>
       <r>   -0.6675    1.0000 </r>
       <r>   -0.6140    1.0000 </r>
       <r>   -0.6032    1.0000 </r>
       <r>   -0.4294    1.0000 </r>
       <r>   -0.4117    1.0000 </r>
       <r>   -0.4039    1.0000 </r>
       <r>   -0.4023    1.0000 </r>
       <r>   -0.1236    1.0000 </r>
       <r>   -0.0411    1.0000 </r>
       <r>    0.1277    1.0000 </r>
       <r>    0.1926    1.0000 </r>
       <r>    0.4569    1.0000 </r>
       <r>    0.4611    1.0000 </r>
       <r>    0.5821    1.0000 </r>
       <r>    0.6415    1.0000 </r>
       <r>    0.7624    1.0000 </r>
       <r>    1.2910    1.0000 </r>
       <r>    1.5554    1.0000 </r>
       <r>    1.6005    1.0000 </r>
       <r>    1.7080    1.0000 </r>
       <r>    1.9048    1.0000 </r>
       <r>    1.9205    1.0000 </r>
       <r>    1.9634    1.0000 </r>
       <r>    1.9641    1.0000 </r>
       <r>    2.0426    1.0000 </r>
       <r>    2.1647    1.0000 </r>
       <r>    2.2811    1.0000 </r>
       <r>    2.4107    1.0000 </r>
       <r>    2.4431    1.0000 </r>
       <r>    2.4666    1.0000 </r>
       <r>    2.8063    0.0000 </r>
       <r>    4.4774    0.0000 </r>
       <r>    5.4363    0.0000 </r>
       <r>    6.6055    0.0000 </r>
       <r>    7.4200    0.0000 </r>
       <r>    7.7203    0.0000 </r>
       <r>    8.0329    0.0000 </r>
       <r>    8.3656    0.0000 </r>
       <r>    8.5158    0.0000 </r>
       <r>    8.6733    0.0000 </r>
       <r>    8.7826    0.0000 </r>
       <r>    9.1136    0.0000 </r>
       <r>    9.3024    0.0000 </r>
       <r>    9.4938    0.0000 </r>
       <r>    9.6481    0.0000 </r>
       <r>    9.6744    0.0000 </r>
       <r>    9.9710    0.0000 </r>
       <r>   10.1122    0.0000 </r>
       <r>   10.3281    0.0000 </r>
       <r>   10.3664    0.0000 </r>
      </set>
      <set comment="kpoint 2">
       <r>  -32.3564    1.0000 </r>
       <r>  -31.3827    1.0000 </r>
       <r>  -30.6746    1.0000 </r>
       <r>  -29.8149    1.0000 </r>
       <r>  -15.1630    1.0000 </r>
       <r>  -14.9707    1.0000 </r>
       <r>  -14.5540    1.0000 </r>
       <r>  -14.4559    1.0000 </r>
       <r>  -14.3983    1.0000 </r>
       <r>  -14.2553    1.0000 </r>
       <r>  -13.9279    1.0000 </r>
       <r>  -13.8037    1.0000 </r>
       <r>  -13.5495    1.0000 </r>
       <r>  -13.5182    1.0000 </r>
       <r>  -13.4088    1.0000 </r>
       <r>  -13.3839    1.0000 </r>
       <r>  -13.2185    1.0000 </r>
       <r>  -13.1698    1.0000 </r>
       <r>  -12.8181    1.0000 </r>
       <r>  -12.6127    1.0000 </r>
       <r>  -12.5136    1.0000 </r>
       <r>  -12.3345    1.0000 </r>
       <r>  -11.7405    1.0000 </r>
       <r>  -11.6280    1.0000 </r>
       <r>  -11.5918    1.0000 </r>
       <r>   -2.1698    1.0000 </r>
       <r>   -1.8366    1.0000 </r>
       <r>   -1.6319    1.0000 </r>
       <r>   -1.6034    1.0000 </r>
       <r>   -1.5035    1.0000 </r>
       <r>   -1.3530    1.0000 </r>
       <r>   -1.3194    1.0000 </r>
       <r>   -1.2812    1.0000 </r>
       <r>   -1.2659    1.0000 </r>
       <r>   -1.2226    1.0000 </r>
       <r>   -1.0632    1.0000 </r>
       <r>   -1.0007    1.0000 </r>
       <r>   -0.9546    1.0000 </r>
       <r>   -0.7608    1.0000 </r>
       <r>   -0.7052    1.0000 </r>
       <r>   -0.6644    1.0000 </r>
       <r>   -0.6187    1.0000 </r>
       <r>   -0.5472    1.0000 </r>
       <r>   -0.5216    1.0000 </r>
       <r>   -0.4766    1.0000 </r>
       <r>   -0.4245    1.0000 </r>
       <r>   -0.4200    1.0000 </r>
       <r>   -0.3533    1.0000 </r>
       <r>   -0.3099    1.0000 </r>
       <r>   -0.0804    1.0000 </r>
       <r>   -0.0385    1.0000 </r>
       <r>    0.2299    1.0000 </r>
       <r>    0.4792    1.0000 </r>
       <r>    0.6748    1.0000 </r>
       <r>    0.7951    1.0000 </r>
       <r>    0.8150    1.0000 </r>
       <r>    0.8745    1.0000 </r>
       <r>    1.0494    1.0000 </r>
       <r>    1.3416    1.0000 </r>
       <r>    1.5291    1.0000 </r>
       <r>    1.5582    1.0000 </r>
       <r>    1.6107    1.0000 </r>
       <r>    1.6955    1.0000 </r>
       <r>    1.8055    1.0000 </r>
       <r>    1.9413    1.0000 </r>
       <r>    1.9428    1.0000 </r>
       <r>    1.9986    1.0000 </r>
       <r>    2.1514    1.0000 </r>
       <r>    2.1737    1.0000 </r>
       <r>    2.3783    1.0000 </r>
       <r>    2.4897    0.9999 </r>
       <r>    2.9761    0.0000 </r>
       <r>    3.3173    0.0000 </r>
       <r>    5.0111    0.0000 </r>
       <r>    5.8315    0.0000 </r>
       <r>    6.5921    0.0000 </r>
       <r>    7.7922    0.0000 </r>
       <r>    8.0493    0.0000 </r>
       <r>    8.1348    0.0000 </r>
       <r>    8.2143    0.0000 </r>
       <r>    8.5010    0.0000 </r>
       <r>    8.7989    0.0000 </r>
       <r>    8.9877    0.0000 </r>
       <r>    9.0369    0.0000 </r>
       <r>    9.3251    0.0000 </r>
       <r>    9.5398    0.0000 </r>
       <r>    9.7219    0.0000 </r>
       <r>    9.9380    0.0000 </r>
       <r>   10.0113    0.0000 </r>
       <r>   10.0910    0.0000 </r>
       <r>   10.4006    0.0000 </r>
       <r>   10.5036    0.0000 </r>
      </set>
      <set comment="kpoint 3">
       <r>  -32.3496    1.0000 </r>
       <r>  -31.3755    1.0000 </r>
       <r>  -30.6668    1.0000 </r>
       <r>  -29.8067    1.0000 </r>
       <r>  -15.1487    1.0000 </r>
       <r>  -14.8206    1.0000 </r>
       <r>  -14.4981    1.0000 </r>
       <r>  -14.4335    1.0000 </r>
       <r>  -14.3874    1.0000 </r>
       <r>  -14.1474    1.0000 </r>
       <r>  -14.0316    1.0000 </r>
       <r>  -13.8974    1.0000 </r>
       <r>  -13.7493    1.0000 </r>
       <r>  -13.6327    1.0000 </r>
       <r>  -13.5583    1.0000 </r>
       <r>  -13.3725    1.0000 </r>
       <r>  -13.2593    1.0000 </r>
       <r>  -13.0672    1.0000 </r>
       <r>  -12.8492    1.0000 </r>
       <r>  -12.5925    1.0000 </r>
       <r>  -12.5693    1.0000 </r>
       <r>  -12.1147    1.0000 </r>
       <r>  -11.7186    1.0000 </r>
       <r>  -11.6374    1.0000 </r>
       <r>  -11.4583    1.0000 </r>
       <r>   -2.6673    1.0000 </r>
       <r>   -2.4710    1.0000 </r>
       <r>   -2.3743    1.0000 </r>
       <r>   -2.1354    1.0000 </r>
       <r>   -1.9255    1.0000 </r>
       <r>   -1.5710    1.0000 </r>
       <r>   -1.4509    1.0000 </r>
       <r>   -1.3947    1.0000 </r>
       <r>   -1.3890    1.0000 </r>
       <r>   -1.3229    1.0000 </r>
       <r>   -1.2717    1.0000 </r>
       <r>   -1.2514    1.0000 </r>
       <r>   -0.9664    1.0000 </r>
       <r>   -0.7704    1.0000 </r>
       <r>   -0.7131    1.0000 </r>
       <r>   -0.6906    1.0000 </r>
       <r>   -0.5829    1.0000 </r>
       <r>   -0.5420    1.0000 </r>
       <r>   -0.4754    1.0000 </r>
       <r>   -0.4670    1.0000 </r>
       <r>   -0.4491    1.0000 </r>
       <r>   -0.2864    1.0000 </r>
       <r>   -0.1563    1.0000 </r>
       <r>   -0.0750    1.0000 </r>
       <r>   -0.0011    1.0000 </r>
       <r>    0.1209    1.0000 </r>
       <r>    0.2285    1.0000 </r>
       <r>    0.5613    1.0000 </r>
       <r>    0.6761    1.0000 </r>
       <r>    0.9117    1.0000 </r>
       <r>    1.0389    1.0000 </r>
       <r>    1.1114    1.0000 </r>
       <r>    1.2071    1.0000 </r>
       <r>    1.2512    1.0000 </r>
       <r>    1.3881    1.0000 </r>
       <r>    1.4598    1.0000 </r>
       <r>    1.5603    1.0000 </r>
       <r>    1.7105    1.0000 </r>
       <r>    1.8679    1.0000 </r>
       <r>    1.9038    1.0000 </r>
       <r>    1.9502    1.0000 </r>
       <r>    1.9696    1.0000 </r>
       <r>    2.0515    1.0000 </r>
       <r>    2.1978    1.0000 </r>
       <r>    2.5120    0.9994 </r>
       <r>    2.6927    0.0311 </r>
       <r>    3.6381    0.0000 </r>
       <r>    4.0614    0.0000 </r>
       <r>    5.3007    0.0000 </r>
       <r>    6.2299    0.0000 </r>
       <r>    6.7020    0.0000 </r>
       <r>    7.5833    0.0000 </r>
       <r>    7.5901    0.0000 </r>
       <r>    7.8943    0.0000 </r>
       <r>    8.3771    0.0000 </r>
       <r>    8.4854    0.0000 </r>
       <r>    8.9364    0.0000 </r>
       <r>    9.1851    0.0000 </r>
       <r>    9.5887    0.0000 </r>
       <r>    9.9324    0.0000 </r>
       <r>   10.0862    0.0000 </r>
       <r>   10.1993    0.0000 </r>
       <r>   10.3925    0.0000 </r>
       <r>   10.4473    0.0000 </r>
       <r>   10.5013    0.0000 </r>
       <r>   10.6379    0.0000 </r>
       <r>   11.1253    0.0000 </r>
      </set>
      <set comment="kpoint 4">
       <r>  -32.3564    1.0000 </r>
       <r>  -31.3827    1.0000 </r>
       <r>  -30.6747    1.0000 </r>
       <r>  -29.8149    1.0000 </r>
       <r>  -15.1917    1.0000 </r>
       <r>  -14.8408    1.0000 </r>
       <r>  -14.5675    1.0000 </r>
       <r>  -14.4563    1.0000 </r>
       <r>  -14.4523    1.0000 </r>
       <r>  -14.2513    1.0000 </r>
       <r>  -13.9217    1.0000 </r>
       <r>  -13.7594    1.0000 </r>
       <r>  -13.5897    1.0000 </r>
       <r>  -13.5494    1.0000 </r>
       <r>  -13.4150    1.0000 </r>
       <r>  -13.3780    1.0000 </r>
       <r>  -13.2150    1.0000 </r>
       <r>  -13.1770    1.0000 </r>
       <r>  -12.8099    1.0000 </r>
       <r>  -12.5228    1.0000 </r>
       <r>  -12.4849    1.0000 </r>
       <r>  -12.4125    1.0000 </r>
       <r>  -11.7483    1.0000 </r>
       <r>  -11.6208    1.0000 </r>
       <r>  -11.5913    1.0000 </r>
       <r>   -2.2163    1.0000 </r>
       <r>   -1.9182    1.0000 </r>
       <r>   -1.7922    1.0000 </r>
       <r>   -1.6171    1.0000 </r>
       <r>   -1.5857    1.0000 </r>
       <r>   -1.4796    1.0000 </r>
       <r>   -1.3501    1.0000 </r>
       <r>   -1.3058    1.0000 </r>
       <r>   -1.2926    1.0000 </r>
       <r>   -1.2715    1.0000 </r>
       <r>   -1.2274    1.0000 </r>
       <r>   -1.0854    1.0000 </r>
       <r>   -1.0652    1.0000 </r>
       <r>   -0.9205    1.0000 </r>
       <r>   -0.9148    1.0000 </r>
       <r>   -0.7843    1.0000 </r>
       <r>   -0.7097    1.0000 </r>
       <r>   -0.6569    1.0000 </r>
       <r>   -0.5538    1.0000 </r>
       <r>   -0.5323    1.0000 </r>
       <r>   -0.4485    1.0000 </r>
       <r>   -0.4293    1.0000 </r>
       <r>   -0.3029    1.0000 </r>
       <r>   -0.3005    1.0000 </r>
       <r>    0.0885    1.0000 </r>
       <r>    0.4641    1.0000 </r>
       <r>    0.4863    1.0000 </r>
       <r>    0.5983    1.0000 </r>
       <r>    0.6318    1.0000 </r>
       <r>    0.8054    1.0000 </r>
       <r>    0.9079    1.0000 </r>
       <r>    0.9640    1.0000 </r>
       <r>    1.0748    1.0000 </r>
       <r>    1.3676    1.0000 </r>
       <r>    1.5944    1.0000 </r>
       <r>    1.6134    1.0000 </r>
       <r>    1.6628    1.0000 </r>
       <r>    1.7038    1.0000 </r>
       <r>    1.8179    1.0000 </r>
       <r>    1.8525    1.0000 </r>
       <r>    1.9549    1.0000 </r>
       <r>    2.0763    1.0000 </r>
       <r>    2.0827    1.0000 </r>
       <r>    2.2125    1.0000 </r>
       <r>    2.3529    1.0000 </r>
       <r>    2.7184    0.0048 </r>
       <r>    3.1764    0.0000 </r>
       <r>    3.5253    0.0000 </r>
       <r>    4.9895    0.0000 </r>
       <r>    5.7778    0.0000 </r>
       <r>    6.8915    0.0000 </r>
       <r>    7.5001    0.0000 </r>
       <r>    7.8723    0.0000 </r>
       <r>    8.0105    0.0000 </r>
       <r>    8.2749    0.0000 </r>
       <r>    8.6885    0.0000 </r>
       <r>    8.8757    0.0000 </r>
       <r>    9.0204    0.0000 </r>
       <r>    9.0758    0.0000 </r>
       <r>    9.2538    0.0000 </r>
       <r>    9.6271    0.0000 </r>
       <r>    9.8285    0.0000 </r>
       <r>    9.9744    0.0000 </r>
       <r>   10.0542    0.0000 </r>
       <r>   10.2874    0.0000 </r>
       <r>   10.3510    0.0000 </r>
       <r>   10.4213    0.0000 </r>
      </set>
      <set comment="kpoint 5">
       <r>  -32.3522    1.0000 </r>
       <r>  -31.3783    1.0000 </r>
       <r>  -30.6701    1.0000 </r>
       <r>  -29.8100    1.0000 </r>
       <r>  -15.0801    1.0000 </r>
       <r>  -14.9088    1.0000 </r>
       <r>  -14.5200    1.0000 </r>
       <r>  -14.4697    1.0000 </r>
       <r>  -14.3662    1.0000 </r>
       <r>  -14.2107    1.0000 </r>
       <r>  -13.9148    1.0000 </r>
       <r>  -13.8855    1.0000 </r>
       <r>  -13.6161    1.0000 </r>
       <r>  -13.5888    1.0000 </r>
       <r>  -13.4093    1.0000 </r>
       <r>  -13.3614    1.0000 </r>
       <r>  -13.2610    1.0000 </r>
       <r>  -13.1584    1.0000 </r>
       <r>  -12.8618    1.0000 </r>
       <r>  -12.5784    1.0000 </r>
       <r>  -12.5087    1.0000 </r>
       <r>  -12.3183    1.0000 </r>
       <r>  -11.7375    1.0000 </r>
       <r>  -11.6358    1.0000 </r>
       <r>  -11.5787    1.0000 </r>
       <r>   -2.2145    1.0000 </r>
       <r>   -1.9362    1.0000 </r>
       <r>   -1.9112    1.0000 </r>
       <r>   -1.7146    1.0000 </r>
       <r>   -1.6802    1.0000 </r>
       <r>   -1.6655    1.0000 </r>
       <r>   -1.5561    1.0000 </r>
       <r>   -1.5512    1.0000 </r>
       <r>   -1.5105    1.0000 </r>
       <r>   -1.4049    1.0000 </r>
       <r>   -1.3168    1.0000 </r>
       <r>   -1.2817    1.0000 </r>
       <r>   -1.2632    1.0000 </r>
       <r>   -1.2299    1.0000 </r>
       <r>   -1.0889    1.0000 </r>
       <r>   -1.0572    1.0000 </r>
       <r>   -1.0387    1.0000 </r>
       <r>   -1.0070    1.0000 </r>
       <r>   -0.9660    1.0000 </r>
       <r>   -0.9188    1.0000 </r>
       <r>   -0.4997    1.0000 </r>
       <r>   -0.4029    1.0000 </r>
       <r>   -0.2729    1.0000 </r>
       <r>    0.0921    1.0000 </r>
       <r>    0.3395    1.0000 </r>
       <r>    0.5067    1.0000 </r>
       <r>    0.6071    1.0000 </r>
       <r>    0.9247    1.0000 </r>
       <r>    0.9713    1.0000 </r>
       <r>    1.0851    1.0000 </r>
       <r>    1.1497    1.0000 </r>
       <r>    1.1718    1.0000 </r>
       <r>    1.3252    1.0000 </r>
       <r>    1.4109    1.0000 </r>
       <r>    1.4194    1.0000 </r>
       <r>    1.4884    1.0000 </r>
[...]
       <r>     2.3666     8.0127    68.3620 </r>
       <r>     2.5264     4.5840    69.0944 </r>
       <r>     2.6862     3.4231    69.6413 </r>
       <r>     2.8459     2.1067    69.9778 </r>
       <r>     3.0057     2.7321    70.4143 </r>
       <r>     3.1655     1.9300    70.7227 </r>
       <r>     3.3252     1.7326    70.9995 </r>
       <r>     3.4850     1.0203    71.1625 </r>
       <r>     3.6448     2.6046    71.5786 </r>
       <r>     3.8045     1.8899    71.8806 </r>
       <r>     3.9643     1.0016    72.0406 </r>
       <r>     4.1241     1.6011    72.2964 </r>
       <r>     4.2838     1.8677    72.5948 </r>
       <r>     4.4436     1.0197    72.7577 </r>
       <r>     4.6034     1.2572    72.9586 </r>
       <r>     4.7631     0.1281    72.9790 </r>
       <r>     4.9229     1.3043    73.1874 </r>
       <r>     5.0827     1.8921    73.4897 </r>
       <r>     5.2424     0.2239    73.5255 </r>
       <r>     5.4022     1.5427    73.7720 </r>
       <r>     5.5620     1.1742    73.9596 </r>
       <r>     5.7217     0.2634    74.0016 </r>
       <r>     5.8815     2.6250    74.4210 </r>
       <r>     6.0413     1.6215    74.6801 </r>
       <r>     6.2010     1.1510    74.8640 </r>
       <r>     6.3608     0.3542    74.9206 </r>
       <r>     6.5206     0.5027    75.0009 </r>
       <r>     6.6803     0.9044    75.1454 </r>
       <r>     6.8401     0.8944    75.2882 </r>
       <r>     6.9998     3.2351    75.8051 </r>
       <r>     7.1596     0.7196    75.9201 </r>
       <r>     7.3194     0.4820    75.9971 </r>
       <r>     7.4791     2.1695    76.3437 </r>
       <r>     7.6389     2.4252    76.7312 </r>
       <r>     7.7987     2.3055    77.0995 </r>
       <r>     7.9584     3.3422    77.6335 </r>
       <r>     8.1182     3.7497    78.2325 </r>
       <r>     8.2780     4.0948    78.8867 </r>
       <r>     8.4377     5.7802    79.8102 </r>
       <r>     8.5975     2.8982    80.2732 </r>
       <r>     8.7573     1.9598    80.5863 </r>
       <r>     8.9170     2.3649    80.9642 </r>
       <r>     9.0768     5.1833    81.7923 </r>
       <r>     9.2366     4.3044    82.4800 </r>
       <r>     9.3963     3.7317    83.0762 </r>
       <r>     9.5561     3.7187    83.6703 </r>
       <r>     9.7159     4.0841    84.3228 </r>
       <r>     9.8756     5.7360    85.2392 </r>
       <r>    10.0354     6.6934    86.3086 </r>
       <r>    10.1952     6.4083    87.3324 </r>
       <r>    10.3549     5.9502    88.2831 </r>
       <r>    10.5147     7.6950    89.5125 </r>
       <r>    10.6745     6.4110    90.5367 </r>
       <r>    10.8342     3.4843    91.0934 </r>
       <r>    10.9940     2.6021    91.5091 </r>
       <r>    11.1538     2.0678    91.8395 </r>
       <r>    11.3135     1.0035    91.9998 </r>
       <r>    11.4733     0.0010    92.0000 </r>
       <r>    11.6331     0.0000    92.0000 </r>
       <r>    11.7928     0.0000    92.0000 </r>
       <r>    11.9526     0.0000    92.0000 </r>
       <r>    12.1124     0.0000    92.0000 </r>
       <r>    12.2721     0.0000    92.0000 </r>
       <r>    12.4319     0.0000    92.0000 </r>
       <r>    12.5917     0.0000    92.0000 </r>
       <r>    12.7514     0.0000    92.0000 </r>
       <r>    12.9112     0.0000    92.0000 </r>
       <r>    13.0710     0.0000    92.0000 </r>
       <r>    13.2307     0.0000    92.0000 </r>
       <r>    13.3905     0.0000    92.0000 </r>
      </set>
      <set comment="spin 2">
       <r>   -34.5393     0.0000     0.0000 </r>
       <r>   -34.3796     0.0000     0.0000 </r>
       <r>   -34.2198     0.0000     0.0000 </r>
       <r>   -34.0600     0.0000     0.0000 </r>
       <r>   -33.9003     0.0000     0.0000 </r>
       <r>   -33.7405     0.0000     0.0000 </r>
       <r>   -33.5807     0.0000     0.0000 </r>
       <r>   -33.4210     0.0000     0.0000 </r>
       <r>   -33.2612     0.0000     0.0000 </r>
       <r>   -33.1014     0.0000     0.0000 </r>
       <r>   -32.9417     0.0000     0.0000 </r>
       <r>   -32.7819     0.0000     0.0000 </r>
       <r>   -32.6221     0.0000     0.0000 </r>
       <r>   -32.4624     0.0047     0.0007 </r>
       <r>   -32.3026     5.6243     0.8993 </r>
       <r>   -32.1428     0.6302     1.0000 </r>
       <r>   -31.9831     0.0000     1.0000 </r>
       <r>   -31.8233     0.0000     1.0000 </r>
       <r>   -31.6635     0.0000     1.0000 </r>
       <r>   -31.5038     0.0010     1.0002 </r>
       <r>   -31.3440     5.0116     1.8008 </r>
       <r>   -31.1842     1.2466     2.0000 </r>
       <r>   -31.0245     0.0000     2.0000 </r>
       <r>   -30.8647     0.0000     2.0000 </r>
       <r>   -30.7049     0.8705     2.1391 </r>
       <r>   -30.5452     5.3862     2.9996 </r>
       <r>   -30.3854     0.0024     3.0000 </r>
       <r>   -30.2256     0.0000     3.0000 </r>
       <r>   -30.0659     0.0000     3.0000 </r>
       <r>   -29.9061     0.0167     3.0027 </r>
       <r>   -29.7463     5.9307     3.9502 </r>
       <r>   -29.5866     0.3118     4.0000 </r>
       <r>   -29.4268     0.0000     4.0000 </r>
       <r>   -29.2670     0.0000     4.0000 </r>
       <r>   -29.1073     0.0000     4.0000 </r>
       <r>   -28.9475     0.0000     4.0000 </r>
       <r>   -28.7877     0.0000     4.0000 </r>
       <r>   -28.6280     0.0000     4.0000 </r>
       <r>   -28.4682     0.0000     4.0000 </r>
       <r>   -28.3084     0.0000     4.0000 </r>
       <r>   -28.1487     0.0000     4.0000 </r>
       <r>   -27.9889     0.0000     4.0000 </r>
       <r>   -27.8291     0.0000     4.0000 </r>
       <r>   -27.6694     0.0000     4.0000 </r>
       <r>   -27.5096     0.0000     4.0000 </r>
       <r>   -27.3498     0.0000     4.0000 </r>
       <r>   -27.1901     0.0000     4.0000 </r>
       <r>   -27.0303     0.0000     4.0000 </r>
       <r>   -26.8706     0.0000     4.0000 </r>
       <r>   -26.7108     0.0000     4.0000 </r>
       <r>   -26.5510     0.0000     4.0000 </r>
       <r>   -26.3913     0.0000     4.0000 </r>
       <r>   -26.2315     0.0000     4.0000 </r>
       <r>   -26.0717     0.0000     4.0000 </r>
       <r>   -25.9120     0.0000     4.0000 </r>
       <r>   -25.7522     0.0000     4.0000 </r>
       <r>   -25.5924     0.0000     4.0000 </r>
       <r>   -25.4327     0.0000     4.0000 </r>
       <r>   -25.2729     0.0000     4.0000 </r>
       <r>   -25.1131     0.0000     4.0000 </r>
       <r>   -24.9534     0.0000     4.0000 </r>
       <r>   -24.7936     0.0000     4.0000 </r>
       <r>   -24.6338     0.0000     4.0000 </r>
       <r>   -24.4741     0.0000     4.0000 </r>
       <r>   -24.3143     0.0000     4.0000 </r>
       <r>   -24.1545     0.0000     4.0000 </r>
       <r>   -23.9948     0.0000     4.0000 </r>
       <r>   -23.8350     0.0000     4.0000 </r>
       <r>   -23.6752     0.0000     4.0000 </r>
       <r>   -23.5155     0.0000     4.0000 </r>
       <r>   -23.3557     0.0000     4.0000 </r>
       <r>   -23.1959     0.0000     4.0000 </r>
       <r>   -23.0362     0.0000     4.0000 </r>
       <r>   -22.8764     0.0000     4.0000 </r>
       <r>   -22.7166     0.0000     4.0000 </r>
       <r>   -22.5569     0.0000     4.0000 </r>
       <r>   -22.3971     0.0000     4.0000 </r>
       <r>   -22.2373     0.0000     4.0000 </r>
       <r>   -22.0776     0.0000     4.0000 </r>
       <r>   -21.9178     0.0000     4.0000 </r>
       <r>   -21.7580     0.0000     4.0000 </r>
       <r>   -21.5983     0.0000     4.0000 </r>
       <r>   -21.4385     0.0000     4.0000 </r>
       <r>   -21.2787     0.0000     4.0000 </r>
       <r>   -21.1190     0.0000     4.0000 </r>
       <r>   -20.9592     0.0000     4.0000 </r>
       <r>   -20.7994     0.0000     4.0000 </r>
       <r>   -20.6397     0.0000     4.0000 </r>
       <r>   -20.4799     0.0000     4.0000 </r>
       <r>   -20.3201     0.0000     4.0000 </r>
       <r>   -20.1604     0.0000     4.0000 </r>
       <r>   -20.0006     0.0000     4.0000 </r>
       <r>   -19.8408     0.0000     4.0000 </r>
       <r>   -19.6811     0.0000     4.0000 </r>
       <r>   -19.5213     0.0000     4.0000 </r>
       <r>   -19.3615     0.0000     4.0000 </r>
       <r>   -19.2018     0.0000     4.0000 </r>
       <r>   -19.0420     0.0000     4.0000 </r>
       <r>   -18.8822     0.0000     4.0000 </r>
       <r>   -18.7225     0.0000     4.0000 </r>
       <r>   -18.5627     0.0000     4.0000 </r>
       <r>   -18.4030     0.0000     4.0000 </r>
       <r>   -18.2432     0.0000     4.0000 </r>
       <r>   -18.0834     0.0000     4.0000 </r>
       <r>   -17.9237     0.0000     4.0000 </r>
       <r>   -17.7639     0.0000     4.0000 </r>
       <r>   -17.6041     0.0000     4.0000 </r>
       <r>   -17.4444     0.0000     4.0000 </r>
       <r>   -17.2846     0.0000     4.0000 </r>
       <r>   -17.1248     0.0000     4.0000 </r>
       <r>   -16.9651     0.0000     4.0000 </r>
       <r>   -16.8053     0.0000     4.0000 </r>
       <r>   -16.6455     0.0000     4.0000 </r>
       <r>   -16.4858     0.0000     4.0000 </r>
       <r>   -16.3260     0.0000     4.0000 </r>
       <r>   -16.1662     0.0000     4.0000 </r>
       <r>   -16.0065     0.0000     4.0000 </r>
       <r>   -15.8467     0.0000     4.0000 </r>
       <r>   -15.6869     0.0000     4.0000 </r>
       <r>   -15.5272     0.0000     4.0000 </r>
       <r>   -15.3674     0.0026     4.0004 </r>
       <r>   -15.2076     0.4841     4.0778 </r>
       <r>   -15.0479     3.0510     4.5652 </r>
       <r>   -14.8881     4.5218     5.2876 </r>
       <r>   -14.7283     4.3858     5.9883 </r>
       <r>   -14.5686     1.9722     6.3034 </r>
       <r>   -14.4088     8.2307     7.6184 </r>
       <r>   -14.2490     6.9557     8.7297 </r>
       <r>   -14.0893     6.7470     9.8077 </r>
       <r>   -13.9295     5.8741    10.7461 </r>
       <r>   -13.7697     9.4276    12.2524 </r>
       <r>   -13.6100     6.7956    13.3381 </r>
       <r>   -13.4502     7.8983    14.5999 </r>
       <r>   -13.2904     8.5084    15.9593 </r>
       <r>   -13.1307     8.3901    17.2997 </r>
       <r>   -12.9709     5.6559    18.2034 </r>
       <r>   -12.8111     4.0543    18.8511 </r>
       <r>   -12.6514     2.9727    19.3260 </r>
       <r>   -12.4916     8.7463    20.7234 </r>
       <r>   -12.3318     4.4050    21.4272 </r>
       <r>   -12.1721     2.9547    21.8992 </r>
       <r>   -12.0123     0.6298    21.9998 </r>
       <r>   -11.8525     0.0936    22.0148 </r>
       <r>   -11.6928     7.8926    23.2758 </r>
       <r>   -11.5330     8.6876    24.6638 </r>
       <r>   -11.3732     2.0938    24.9983 </r>
       <r>   -11.2135     0.0107    25.0000 </r>
       <r>   -11.0537     0.0000    25.0000 </r>
       <r>   -10.8939     0.0000    25.0000 </r>
       <r>   -10.7342     0.0000    25.0000 </r>
       <r>   -10.5744     0.0000    25.0000 </r>
       <r>   -10.4146     0.0000    25.0000 </r>
       <r>   -10.2549     0.0000    25.0000 </r>
       <r>   -10.0951     0.0000    25.0000 </r>
       <r>    -9.9354     0.0000    25.0000 </r>
       <r>    -9.7756     0.0000    25.0000 </r>
       <r>    -9.6158     0.0000    25.0000 </r>
       <r>    -9.4561     0.0000    25.0000 </r>
       <r>    -9.2963     0.0000    25.0000 </r>
       <r>    -9.1365     0.0000    25.0000 </r>
       <r>    -8.9768     0.0000    25.0000 </r>
       <r>    -8.8170     0.0000    25.0000 </r>
       <r>    -8.6572     0.0000    25.0000 </r>
       <r>    -8.4975     0.0000    25.0000 </r>
       <r>    -8.3377     0.0000    25.0000 </r>
       <r>    -8.1779     0.0000    25.0000 </r>
       <r>    -8.0182     0.0000    25.0000 </r>
       <r>    -7.8584     0.0000    25.0000 </r>
       <r>    -7.6986     0.0000    25.0000 </r>
       <r>    -7.5389     0.0000    25.0000 </r>
       <r>    -7.3791     0.0000    25.0000 </r>
       <r>    -7.2193     0.0000    25.0000 </r>
       <r>    -7.0596     0.0000    25.0000 </r>
       <r>    -6.8998     0.0000    25.0000 </r>
       <r>    -6.7400     0.0000    25.0000 </r>
       <r>    -6.5803     0.0000    25.0000 </r>
       <r>    -6.4205     0.0000    25.0000 </r>
       <r>    -6.2607     0.0000    25.0000 </r>
       <r>    -6.1010     0.0000    25.0000 </r>
       <r>    -5.9412     0.0000    25.0000 </r>
       <r>    -5.7814     0.0000    25.0000 </r>
       <r>    -5.6217     0.0000    25.0000 </r>
       <r>    -5.4619     0.0000    25.0000 </r>
       <r>    -5.3021     0.0000    25.0000 </r>
       <r>    -5.1424     0.0000    25.0000 </r>
       <r>    -4.9826     0.0000    25.0000 </r>
       <r>    -4.8228     0.0000    25.0000 </r>
       <r>    -4.6631     0.0000    25.0000 </r>
       <r>    -4.5033     0.0000    25.0000 </r>
       <r>    -4.3435     0.0000    25.0000 </r>
       <r>    -4.1838     0.0000    25.0000 </r>
       <r>    -4.0240     0.0000    25.0000 </r>
       <r>    -3.8642     0.0000    25.0000 </r>
       <r>    -3.7045     0.0000    25.0000 </r>
       <r>    -3.5447     0.0000    25.0000 </r>
       <r>    -3.3849     0.0000    25.0000 </r>
       <r>    -3.2252     0.0046    25.0007 </r>
       <r>    -3.0654     0.9713    25.1559 </r>
       <r>    -2.9056     1.8414    25.4501 </r>
       <r>    -2.7459     2.0643    25.7799 </r>
       <r>    -2.5861     3.5355    26.3448 </r>
       <r>    -2.4263     3.5317    26.9090 </r>
       <r>    -2.2666     3.8256    27.5202 </r>
       <r>    -2.1068     5.5433    28.4058 </r>
       <r>    -1.9470     5.5206    29.2878 </r>
       <r>    -1.7873     7.6392    30.5083 </r>
       <r>    -1.6275     9.9267    32.0943 </r>
       <r>    -1.4678    15.3239    34.5425 </r>
       <r>    -1.3080    17.4656    37.3329 </r>
       <r>    -1.1482    15.4001    39.7933 </r>
       <r>    -0.9885    11.4080    41.6159 </r>
       <r>    -0.8287     6.8258    42.7064 </r>
       <r>    -0.6689     6.1324    43.6862 </r>
       <r>    -0.5092     8.4341    45.0337 </r>
       <r>    -0.3494    10.8994    46.7750 </r>
       <r>    -0.1896     5.8688    47.7127 </r>
       <r>    -0.0299     3.1308    48.2129 </r>
       <r>     0.1299     4.7277    48.9682 </r>
       <r>     0.2897     3.0314    49.4525 </r>
       <r>     0.4494     1.8495    49.7480 </r>
       <r>     0.6092     8.2114    51.0599 </r>
       <r>     0.7690     4.5404    51.7853 </r>
       <r>     0.9287     6.9649    52.8981 </r>
       <r>     1.0885     8.3231    54.2278 </r>
       <r>     1.2483    13.3951    56.3679 </r>
       <r>     1.4080    10.8626    58.1034 </r>
       <r>     1.5678    13.1583    60.2056 </r>
       <r>     1.7276    12.8721    62.2621 </r>
       <r>     1.8873     5.7789    63.1854 </r>
       <r>     2.0471    11.2107    64.9765 </r>
       <r>     2.2069     8.0694    66.2657 </r>
       <r>     2.3666     3.7929    66.8717 </r>
       <r>     2.5264     6.2506    67.8703 </r>
       <r>     2.6862     6.2630    68.8709 </r>
       <r>     2.8459     3.4784    69.4267 </r>
       <r>     3.0057     5.3036    70.2740 </r>
       <r>     3.1655     0.7908    70.4003 </r>
       <r>     3.3252     1.9456    70.7112 </r>
       <r>     3.4850     1.8721    71.0103 </r>
       <r>     3.6448     1.6849    71.2795 </r>
       <r>     3.8045     1.8782    71.5796 </r>
       <r>     3.9643     1.8829    71.8804 </r>
       <r>     4.1241     1.4268    72.1084 </r>
       <r>     4.2838     2.2017    72.4601 </r>
       <r>     4.4436     1.7414    72.7383 </r>
       <r>     4.6034     1.3111    72.9478 </r>
       <r>     4.7631     0.0932    72.9627 </r>
       <r>     4.9229     1.1856    73.1521 </r>
       <r>     5.0827     2.0823    73.4848 </r>
       <r>     5.2424     0.2466    73.5242 </r>
       <r>     5.4022     1.4847    73.7614 </r>
       <r>     5.5620     1.2396    73.9594 </r>
       <r>     5.7217     0.0952    73.9746 </r>
       <r>     5.8815     2.7469    74.4135 </r>
       <r>     6.0413     1.3222    74.6247 </r>
       <r>     6.2010     1.4508    74.8565 </r>
       <r>     6.3608     0.3984    74.9202 </r>
       <r>     6.5206     0.4899    74.9985 </r>
       <r>     6.6803     0.8883    75.1404 </r>
       <r>     6.8401     0.8945    75.2833 </r>
       <r>     6.9998     3.2307    75.7994 </r>
       <r>     7.1596     0.7553    75.9201 </r>
       <r>     7.3194     0.4825    75.9972 </r>
       <r>     7.4791     2.1364    76.3385 </r>
       <r>     7.6389     2.4196    76.7251 </r>
       <r>     7.7987     2.2970    77.0921 </r>
       <r>     7.9584     3.3769    77.6316 </r>
       <r>     8.1182     3.7080    78.2240 </r>
       <r>     8.2780     4.0552    78.8719 </r>
       <r>     8.4377     5.8378    79.8046 </r>
       <r>     8.5975     2.9237    80.2717 </r>
       <r>     8.7573     1.8224    80.5628 </r>
       <r>     8.9170     2.3833    80.9436 </r>
       <r>     9.0768     5.1159    81.7609 </r>
       <r>     9.2366     4.3550    82.4567 </r>
       <r>     9.3963     3.7853    83.0615 </r>
       <r>     9.5561     3.5397    83.6270 </r>
       <r>     9.7159     4.1351    84.2876 </r>
       <r>     9.8756     5.3381    85.1405 </r>
       <r>    10.0354     6.7093    86.2124 </r>
       <r>    10.1952     6.3917    87.2336 </r>
       <r>    10.3549     5.9396    88.1825 </r>
       <r>    10.5147     7.3423    89.3556 </r>
       <r>    10.6745     6.8928    90.4568 </r>
       <r>    10.8342     3.5712    91.0274 </r>
       <r>    10.9940     2.6174    91.4455 </r>
       <r>    11.1538     2.3835    91.8264 </r>
       <r>    11.3135     1.0849    91.9997 </r>
       <r>    11.4733     0.0020    92.0000 </r>
       <r>    11.6331     0.0000    92.0000 </r>
       <r>    11.7928     0.0000    92.0000 </r>
       <r>    11.9526     0.0000    92.0000 </r>
       <r>    12.1124     0.0000    92.0000 </r>
       <r>    12.2721     0.0000    92.0000 </r>
       <r>    12.4319     0.0000    92.0000 </r>
       <r>    12.5917     0.0000    92.0000 </r>
       <r>    12.7514     0.0000    92.0000 </r>
       <r>    12.9112     0.0000    92.0000 </r>
       <r>    13.0710     0.0000    92.0000 </r>
       <r>    13.2307     0.0000    92.0000 </r>
       <r>    13.3905     0.0000    92.0000 </r>
      </set>
     </set>
    </array>
   </total>
  </dos>
 </calculation>
 <structure name="finalpos" >
  <crystal>
   <varray name="basis" >
    <v>       4.00000000       0.00000000       0.00000000 </v>
    <v>       0.00000000       4.00000000       0.00000000 </v>
    <v>       0.00000000       0.00000000      16.00000000 </v>
   </varray>
   <i name="volume">    256.00000000 </i>
   <varray name="rec_basis" >
    <v>       0.25000000       0.00000000       0.00000000 </v>
    <v>       0.00000000       0.25000000       0.00000000 </v>
    <v>       0.00000000       0.00000000       0.06250000 </v>
   </varray>
  </crystal>
  <varray name="positions" >
   <v>       0.00000000       0.00000000       0.00000000 </v>
   <v>       0.00000000       0.00000000       0.25000000 </v>
   <v>       0.00000000       0.00000000       0.50000000 </v>
   <v>       0.00000000       0.00000000       0.75000000 </v>
   <v>       0.50000000       0.50000000       0.12500000 </v>
   <v>       0.50000000       0.50000000       0.37500000 </v>
   <v>       0.50000000       0.50000000       0.62500000 </v>
   <v>       0.50000000       0.50000000       0.87500000 </v>
   <v>       0.50000000       0.50000000       0.50000000 </v>
   <v>       0.50000000       0.50000000       0.75000000 </v>
   <v>       0.00000000       0.50000000       0.12500000 </v>
   <v>       0.00000000       0.50000000       0.62500000 </v>
   <v>       0.00000000       0.50000000       0.87500000 </v>
   <v>       0.50000000       0.00000000       0.12500000 </v>
   <v>       0.50000000       0.00000000       0.37500000 </v>
   <v>       0.50000000       0.00000000       0.62500000 </v>
   <v>       0.50000000       0.00000000       0.87500000 </v>
  </varray>
 </structure>
</modeling>
