<?xml version="1.0" encoding="ISO-8859-1"?>
<modeling>
 <generator>
  <i name="program" type="string">vasp </i>
  <i name="version" type="string">5.3.5  </i>
  <i name="subversion" type="string">31Mar14 (build Jun 20 2014 13:15:13) complex                          parallel </i>
  <i name="platform" type="string">LinuxIFC </i>
  <i name="date" type="string">2025 11 27 </i>
  <i name="time" type="string">18:17:31 </i>
 </generator>
 <incar>
  <i type="string" name="PREC">accurate</i>
  <i type="int" name="IALGO">    68</i>
  <i type="logical" name="ADDGRID"> T  </i>
  <i type="int" name="NELM">   200</i>
  <i type="int" name="NELMIN">     4</i>
  <i type="int" name="IBRION">     2</i>
  <i name="EDIFF">      0.00000100</i>
  <i name="EDIFFG">     -0.02000000</i>
  <i type="int" name="NSW">    30</i>
  <i type="int" name="ISIF">     3</i>
  <i name="ENCUT">    500.00000000</i>
  <i type="logical" name="LREAL"> F  </i>
  <i type="int" name="ISMEAR">     1</i>
  <i name="SIGMA">      0.30000000</i>
  <i type="logical" name="LWAVE"> F  </i>
  <i type="logical" name="LCHARG"> F  </i>
  <i type="int" name="NELM">   200</i>
 </incar>
 <kpoints>
  <generation param="Auto">
   <i name="subdivisionlength">     70.00000000 </i>
   <v type="int" name="divisions">      25       12       12 </v>
   <v name="usershift">      0.00000000       0.00000000       0.00000000 </v>
   <v name="genvec1">      0.04000000       0.00000000       0.00000000 </v>
   <v name="genvec2">      0.00000000       0.08333333       0.00000000 </v>
   <v name="genvec3">      0.00000000       0.00000000       0.08333333 </v>
   <v name="shift">      0.00000000       0.00000000       0.00000000 </v>
  </generation>
  <varray name="kpointlist" >
   <v>       0.00000000       0.00000000       0.00000000 </v>
   <v>       0.04000000       0.00000000       0.00000000 </v>
   <v>       0.08000000       0.00000000       0.00000000 </v>
   <v>       0.12000000       0.00000000       0.00000000 </v>
   <v>       0.16000000       0.00000000       0.00000000 </v>
   <v>       0.20000000       0.00000000       0.00000000 </v>
   <v>       0.24000000       0.00000000       0.00000000 </v>
   <v>       0.28000000       0.00000000       0.00000000 </v>
   <v>       0.32000000       0.00000000       0.00000000 </v>
   <v>       0.36000000       0.00000000       0.00000000 </v>
   <v>       0.40000000       0.00000000       0.00000000 </v>
   <v>       0.44000000       0.00000000       0.00000000 </v>
   <v>       0.48000000       0.00000000       0.00000000 </v>
   <v>       0.00000000       0.08333333       0.00000000 </v>
   <v>       0.04000000       0.08333333       0.00000000 </v>
   <v>       0.08000000       0.08333333       0.00000000 </v>
   <v>       0.12000000       0.08333333       0.00000000 </v>
   <v>       0.16000000       0.08333333       0.00000000 </v>
   <v>       0.20000000       0.08333333       0.00000000 </v>
   <v>       0.24000000       0.08333333       0.00000000 </v>
   <v>       0.28000000       0.08333333       0.00000000 </v>
   <v>       0.32000000       0.08333333       0.00000000 </v>
   <v>       0.36000000       0.08333333       0.00000000 </v>
   <v>       0.40000000       0.08333333       0.00000000 </v>
   <v>       0.44000000       0.08333333       0.00000000 </v>
   <v>       0.48000000       0.08333333       0.00000000 </v>
   <v>      -0.48000000       0.08333333       0.00000000 </v>
   <v>      -0.44000000       0.08333333       0.00000000 </v>
   <v>      -0.40000000       0.08333333       0.00000000 </v>
   <v>      -0.36000000       0.08333333       0.00000000 </v>
   <v>      -0.32000000       0.08333333       0.00000000 </v>
   <v>      -0.28000000       0.08333333       0.00000000 </v>
   <v>      -0.24000000       0.08333333       0.00000000 </v>
   <v>      -0.20000000       0.08333333       0.00000000 </v>
   <v>      -0.16000000       0.08333333       0.00000000 </v>
   <v>      -0.12000000       0.08333333       0.00000000 </v>
   <v>      -0.08000000       0.08333333       0.00000000 </v>
   <v>      -0.04000000       0.08333333       0.00000000 </v>
   <v>       0.00000000       0.16666667       0.00000000 </v>
   <v>       0.04000000       0.16666667       0.00000000 </v>
   <v>       0.08000000       0.16666667       0.00000000 </v>
   <v>       0.12000000       0.16666667       0.00000000 </v>
   <v>       0.16000000       0.16666667       0.00000000 </v>
   <v>       0.20000000       0.16666667       0.00000000 </v>
   <v>       0.24000000       0.16666667       0.00000000 </v>
   <v>       0.28000000       0.16666667       0.00000000 </v>
   <v>       0.32000000       0.16666667       0.00000000 </v>
   <v>       0.36000000       0.16666667       0.00000000 </v>
   <v>       0.40000000       0.16666667       0.00000000 </v>
   <v>       0.44000000       0.16666667       0.00000000 </v>
   <v>       0.48000000       0.16666667       0.00000000 </v>
   <v>      -0.48000000       0.16666667       0.00000000 </v>
   <v>      -0.44000000       0.16666667       0.00000000 </v>
   <v>      -0.40000000       0.16666667       0.00000000 </v>
   <v>      -0.36000000       0.16666667       0.00000000 </v>
   <v>      -0.32000000       0.16666667       0.00000000 </v>
   <v>      -0.28000000       0.16666667       0.00000000 </v>
   <v>      -0.24000000       0.16666667       0.00000000 </v>
   <v>      -0.20000000       0.16666667       0.00000000 </v>
   <v>      -0.16000000       0.16666667       0.00000000 </v>
   <v>      -0.12000000       0.16666667       0.00000000 </v>
   <v>      -0.08000000       0.16666667       0.00000000 </v>
   <v>      -0.04000000       0.16666667       0.00000000 </v>
   <v>       0.00000000       0.25000000       0.00000000 </v>
   <v>       0.04000000       0.25000000       0.00000000 </v>
   <v>       0.08000000       0.25000000       0.00000000 </v>
   <v>       0.12000000       0.25000000       0.00000000 </v>
   <v>       0.16000000       0.25000000       0.00000000 </v>
   <v>       0.20000000       0.25000000       0.00000000 </v>
   <v>       0.24000000       0.25000000       0.00000000 </v>
   <v>       0.28000000       0.25000000       0.00000000 </v>
   <v>       0.32000000       0.25000000       0.00000000 </v>
   <v>       0.36000000       0.25000000       0.00000000 </v>
   <v>       0.40000000       0.25000000       0.00000000 </v>
   <v>       0.44000000       0.25000000       0.00000000 </v>
   <v>       0.48000000       0.25000000       0.00000000 </v>
   <v>      -0.48000000       0.25000000       0.00000000 </v>
   <v>      -0.44000000       0.25000000       0.00000000 </v>
   <v>      -0.40000000       0.25000000       0.00000000 </v>
   <v>      -0.36000000       0.25000000       0.00000000 </v>
   <v>      -0.32000000       0.25000000       0.00000000 </v>
   <v>      -0.28000000       0.25000000       0.00000000 </v>
   <v>      -0.24000000       0.25000000       0.00000000 </v>
   <v>      -0.20000000       0.25000000       0.00000000 </v>
   <v>      -0.16000000       0.25000000       0.00000000 </v>
   <v>      -0.12000000       0.25000000       0.00000000 </v>
   <v>      -0.08000000       0.25000000       0.00000000 </v>
   <v>      -0.04000000       0.25000000       0.00000000 </v>
   <v>       0.00000000       0.33333333       0.00000000 </v>
   <v>       0.04000000       0.33333333       0.00000000 </v>
   <v>       0.08000000       0.33333333       0.00000000 </v>
   <v>       0.12000000       0.33333333       0.00000000 </v>
   <v>       0.16000000       0.33333333       0.00000000 </v>
   <v>       0.20000000       0.33333333       0.00000000 </v>
   <v>       0.24000000       0.33333333       0.00000000 </v>
   <v>       0.28000000       0.33333333       0.00000000 </v>
   <v>       0.32000000       0.33333333       0.00000000 </v>
   <v>       0.36000000       0.33333333       0.00000000 </v>
   <v>       0.40000000       0.33333333       0.00000000 </v>
   <v>       0.44000000       0.33333333       0.00000000 </v>
   <v>       0.48000000       0.33333333       0.00000000 </v>
   <v>      -0.48000000       0.33333333       0.00000000 </v>
   <v>      -0.44000000       0.33333333       0.00000000 </v>
   <v>      -0.40000000       0.33333333       0.00000000 </v>
   <v>      -0.36000000       0.33333333       0.00000000 </v>
   <v>      -0.32000000       0.33333333       0.00000000 </v>
   <v>      -0.28000000       0.33333333       0.00000000 </v>
   <v>      -0.24000000       0.33333333       0.00000000 </v>
   <v>      -0.20000000       0.33333333       0.00000000 </v>
   <v>      -0.16000000       0.33333333       0.00000000 </v>
   <v>      -0.12000000       0.33333333       0.00000000 </v>
   <v>      -0.08000000       0.33333333       0.00000000 </v>
   <v>      -0.04000000       0.33333333       0.00000000 </v>
   <v>       0.00000000       0.41666667       0.00000000 </v>
   <v>       0.04000000       0.41666667       0.00000000 </v>
   <v>       0.08000000       0.41666667       0.00000000 </v>
   <v>       0.12000000       0.41666667       0.00000000 </v>
   <v>       0.16000000       0.41666667       0.00000000 </v>
   <v>       0.20000000       0.41666667       0.00000000 </v>
   <v>       0.24000000       0.41666667       0.00000000 </v>
   <v>       0.28000000       0.41666667       0.00000000 </v>
   <v>       0.32000000       0.41666667       0.00000000 </v>
   <v>       0.36000000       0.41666667       0.00000000 </v>
   <v>       0.40000000       0.41666667       0.00000000 </v>
   <v>       0.44000000       0.41666667       0.00000000 </v>
   <v>       0.48000000       0.41666667       0.00000000 </v>
   <v>      -0.48000000       0.41666667       0.00000000 </v>
   <v>      -0.44000000       0.41666667       0.00000000 </v>
   <v>      -0.40000000       0.41666667       0.00000000 </v>
   <v>      -0.36000000       0.41666667       0.00000000 </v>
   <v>      -0.32000000       0.41666667       0.00000000 </v>
   <v>      -0.28000000       0.41666667       0.00000000 </v>
   <v>      -0.24000000       0.41666667       0.00000000 </v>
   <v>      -0.20000000       0.41666667       0.00000000 </v>
   <v>      -0.16000000       0.41666667       0.00000000 </v>
   <v>      -0.12000000       0.41666667       0.00000000 </v>
   <v>      -0.08000000       0.41666667       0.00000000 </v>
   <v>      -0.04000000       0.41666667       0.00000000 </v>
   <v>       0.00000000       0.50000000       0.00000000 </v>
   <v>       0.04000000       0.50000000       0.00000000 </v>
   <v>       0.08000000       0.50000000       0.00000000 </v>
   <v>       0.12000000       0.50000000       0.00000000 </v>
   <v>       0.16000000       0.50000000       0.00000000 </v>
   <v>       0.20000000       0.50000000       0.00000000 </v>
   <v>       0.24000000       0.50000000       0.00000000 </v>
   <v>       0.28000000       0.50000000       0.00000000 </v>
   <v>       0.32000000       0.50000000       0.00000000 </v>
   <v>       0.36000000       0.50000000       0.00000000 </v>
   <v>       0.40000000       0.50000000       0.00000000 </v>
   <v>       0.44000000       0.50000000       0.00000000 </v>
   <v>       0.48000000       0.50000000       0.00000000 </v>
   <v>       0.00000000       0.00000000       0.08333333 </v>
   <v>       0.04000000       0.00000000       0.08333333 </v>
   <v>       0.08000000       0.00000000       0.08333333 </v>
   <v>       0.12000000       0.00000000       0.08333333 </v>
   <v>       0.16000000       0.00000000       0.08333333 </v>
   <v>       0.20000000       0.00000000       0.08333333 </v>
   <v>       0.24000000       0.00000000       0.08333333 </v>
   <v>       0.28000000       0.00000000       0.08333333 </v>
   <v>       0.32000000       0.00000000       0.08333333 </v>
   <v>       0.36000000       0.00000000       0.08333333 </v>
   <v>       0.40000000       0.00000000       0.08333333 </v>
   <v>       0.44000000       0.00000000       0.08333333 </v>
   <v>       0.48000000       0.00000000       0.08333333 </v>
   <v>      -0.48000000       0.00000000       0.08333333 </v>
   <v>      -0.44000000       0.00000000       0.08333333 </v>
   <v>      -0.40000000       0.00000000       0.08333333 </v>
   <v>      -0.36000000       0.00000000       0.08333333 </v>
   <v>      -0.32000000       0.00000000       0.08333333 </v>
   <v>      -0.28000000       0.00000000       0.08333333 </v>
   <v>      -0.24000000       0.00000000       0.08333333 </v>
   <v>      -0.20000000       0.00000000       0.08333333 </v>
   <v>      -0.16000000       0.00000000       0.08333333 </v>
   <v>      -0.12000000       0.00000000       0.08333333 </v>
   <v>      -0.08000000       0.00000000       0.08333333 </v>
   <v>      -0.04000000       0.00000000       0.08333333 </v>
   <v>       0.00000000       0.08333333       0.08333333 </v>
   <v>       0.04000000       0.08333333       0.08333333 </v>
   <v>       0.08000000       0.08333333       0.08333333 </v>
   <v>       0.12000000       0.08333333       0.08333333 </v>
   <v>       0.16000000       0.08333333       0.08333333 </v>
   <v>       0.20000000       0.08333333       0.08333333 </v>
   <v>       0.24000000       0.08333333       0.08333333 </v>
   <v>       0.28000000       0.08333333       0.08333333 </v>
   <v>       0.32000000       0.08333333       0.08333333 </v>
   <v>       0.36000000       0.08333333       0.08333333 </v>
   <v>       0.40000000       0.08333333       0.08333333 </v>
   <v>       0.44000000       0.08333333       0.08333333 </v>
   <v>       0.48000000       0.08333333       0.08333333 </v>
   <v>      -0.48000000       0.08333333       0.08333333 </v>
   <v>      -0.44000000       0.08333333       0.08333333 </v>
   <v>      -0.40000000       0.08333333       0.08333333 </v>
   <v>      -0.36000000       0.08333333       0.08333333 </v>
   <v>      -0.32000000       0.08333333       0.08333333 </v>
   <v>      -0.28000000       0.08333333       0.08333333 </v>
   <v>      -0.24000000       0.08333333       0.08333333 </v>
   <v>      -0.20000000       0.08333333       0.08333333 </v>
   <v>      -0.16000000       0.08333333       0.08333333 </v>
   <v>      -0.12000000       0.08333333       0.08333333 </v>
   <v>      -0.08000000       0.08333333       0.08333333 </v>
   <v>      -0.04000000       0.08333333       0.08333333 </v>
   <v>       0.00000000       0.16666667       0.08333333 </v>
   <v>       0.04000000       0.16666667       0.08333333 </v>
   <v>       0.08000000       0.16666667       0.08333333 </v>
   <v>       0.12000000       0.16666667       0.08333333 </v>
   <v>       0.16000000       0.16666667       0.08333333 </v>
   <v>       0.20000000       0.16666667       0.08333333 </v>
   <v>       0.24000000       0.16666667       0.08333333 </v>
   <v>       0.28000000       0.16666667       0.08333333 </v>
   <v>       0.32000000       0.16666667       0.08333333 </v>
   <v>       0.36000000       0.16666667       0.08333333 </v>
   <v>       0.40000000       0.16666667       0.08333333 </v>
   <v>       0.44000000       0.16666667       0.08333333 </v>
   <v>       0.48000000       0.16666667       0.08333333 </v>
   <v>      -0.48000000       0.16666667       0.08333333 </v>
   <v>      -0.44000000       0.16666667       0.08333333 </v>
   <v>      -0.40000000       0.16666667       0.08333333 </v>
   <v>      -0.36000000       0.16666667       0.08333333 </v>
   <v>      -0.32000000       0.16666667       0.08333333 </v>
   <v>      -0.28000000       0.16666667       0.08333333 </v>
   <v>      -0.24000000       0.16666667       0.08333333 </v>
   <v>      -0.20000000       0.16666667       0.08333333 </v>
   <v>      -0.16000000       0.16666667       0.08333333 </v>
   <v>      -0.12000000       0.16666667       0.08333333 </v>
   <v>      -0.08000000       0.16666667       0.08333333 </v>
   <v>      -0.04000000       0.16666667       0.08333333 </v>
   <v>       0.00000000       0.25000000       0.08333333 </v>
   <v>       0.04000000       0.25000000       0.08333333 </v>
   <v>       0.08000000       0.25000000       0.08333333 </v>
   <v>       0.12000000       0.25000000       0.08333333 </v>
   <v>       0.16000000       0.25000000       0.08333333 </v>
   <v>       0.20000000       0.25000000       0.08333333 </v>
   <v>       0.24000000       0.25000000       0.08333333 </v>
   <v>       0.28000000       0.25000000       0.08333333 </v>
   <v>       0.32000000       0.25000000       0.08333333 </v>
   <v>       0.36000000       0.25000000       0.08333333 </v>
   <v>       0.40000000       0.25000000       0.08333333 </v>
   <v>       0.44000000       0.25000000       0.08333333 </v>
   <v>       0.48000000       0.25000000       0.08333333 </v>
   <v>      -0.48000000       0.25000000       0.08333333 </v>
   <v>      -0.44000000       0.25000000       0.08333333 </v>
   <v>      -0.40000000       0.25000000       0.08333333 </v>
   <v>      -0.36000000       0.25000000       0.08333333 </v>
   <v>      -0.32000000       0.25000000       0.08333333 </v>
   <v>      -0.28000000       0.25000000       0.08333333 </v>
   <v>      -0.24000000       0.25000000       0.08333333 </v>
   <v>      -0.20000000       0.25000000       0.08333333 </v>
   <v>      -0.16000000       0.25000000       0.08333333 </v>
   <v>      -0.12000000       0.25000000       0.08333333 </v>
   <v>      -0.08000000       0.25000000       0.08333333 </v>
   <v>      -0.04000000       0.25000000       0.08333333 </v>
   <v>       0.00000000       0.33333333       0.08333333 </v>
   <v>       0.04000000       0.33333333       0.08333333 </v>
   <v>       0.08000000       0.33333333       0.08333333 </v>
   <v>       0.12000000       0.33333333       0.08333333 </v>
   <v>       0.16000000       0.33333333       0.08333333 </v>
   <v>       0.20000000       0.33333333       0.08333333 </v>
   <v>       0.24000000       0.33333333       0.08333333 </v>
   <v>       0.28000000       0.33333333       0.08333333 </v>
   <v>       0.32000000       0.33333333       0.08333333 </v>
   <v>       0.36000000       0.33333333       0.08333333 </v>
   <v>       0.40000000       0.33333333       0.08333333 </v>
   <v>       0.44000000       0.33333333       0.08333333 </v>
   <v>       0.48000000       0.33333333       0.08333333 </v>
   <v>      -0.48000000       0.33333333       0.08333333 </v>
   <v>      -0.44000000       0.33333333       0.08333333 </v>
   <v>      -0.40000000       0.33333333       0.08333333 </v>
   <v>      -0.36000000       0.33333333       0.08333333 </v>
   <v>      -0.32000000       0.33333333       0.08333333 </v>
   <v>      -0.28000000       0.33333333       0.08333333 </v>
   <v>      -0.24000000       0.33333333       0.08333333 </v>
   <v>      -0.20000000       0.33333333       0.08333333 </v>
   <v>      -0.16000000       0.33333333       0.08333333 </v>
   <v>      -0.12000000       0.33333333       0.08333333 </v>
   <v>      -0.08000000       0.33333333       0.08333333 </v>
   <v>      -0.04000000       0.33333333       0.08333333 </v>
   <v>       0.00000000       0.41666667       0.08333333 </v>
   <v>       0.04000000       0.41666667       0.08333333 </v>
   <v>       0.08000000       0.41666667       0.08333333 </v>
   <v>       0.12000000       0.41666667       0.08333333 </v>
   <v>       0.16000000       0.41666667       0.08333333 </v>
   <v>       0.20000000       0.41666667       0.08333333 </v>
   <v>       0.24000000       0.41666667       0.08333333 </v>
   <v>       0.28000000       0.41666667       0.08333333 </v>
   <v>       0.32000000       0.41666667       0.08333333 </v>
   <v>       0.36000000       0.41666667       0.08333333 </v>
   <v>       0.40000000       0.41666667       0.08333333 </v>
   <v>       0.44000000       0.41666667       0.08333333 </v>
   <v>       0.48000000       0.41666667       0.08333333 </v>
   <v>      -0.48000000       0.41666667       0.08333333 </v>
   <v>      -0.44000000       0.41666667       0.08333333 </v>
   <v>      -0.40000000       0.41666667       0.08333333 </v>
   <v>      -0.36000000       0.41666667       0.08333333 </v>
   <v>      -0.32000000       0.41666667       0.08333333 </v>
   <v>      -0.28000000       0.41666667       0.08333333 </v>
   <v>      -0.24000000       0.41666667       0.08333333 </v>
   <v>      -0.20000000       0.41666667       0.08333333 </v>
   <v>      -0.16000000       0.41666667       0.08333333 </v>
   <v>      -0.12000000       0.41666667       0.08333333 </v>
   <v>      -0.08000000       0.41666667       0.08333333 </v>
   <v>      -0.04000000       0.41666667       0.08333333 </v>
   <v>       0.00000000       0.50000000       0.08333333 </v>
   <v>       0.04000000       0.50000000       0.08333333 </v>
   <v>       0.08000000       0.50000000       0.08333333 </v>
   <v>       0.12000000       0.50000000       0.08333333 </v>
   <v>       0.16000000       0.50000000       0.08333333 </v>
   <v>       0.20000000       0.50000000       0.08333333 </v>
   <v>       0.24000000       0.50000000       0.08333333 </v>
   <v>       0.28000000       0.50000000       0.08333333 </v>
   <v>       0.32000000       0.50000000       0.08333333 </v>
   <v>       0.36000000       0.50000000       0.08333333 </v>
   <v>       0.40000000       0.50000000       0.08333333 </v>
   <v>       0.44000000       0.50000000       0.08333333 </v>
   <v>       0.48000000       0.50000000       0.08333333 </v>
   <v>      -0.48000000       0.50000000       0.08333333 </v>
   <v>      -0.44000000       0.50000000       0.08333333 </v>
   <v>      -0.40000000       0.50000000       0.08333333 </v>
   <v>      -0.36000000       0.50000000       0.08333333 </v>
   <v>      -0.32000000       0.50000000       0.08333333 </v>
   <v>      -0.28000000       0.50000000       0.08333333 </v>
   <v>      -0.24000000       0.50000000       0.08333333 </v>
   <v>      -0.20000000       0.50000000       0.08333333 </v>
   <v>      -0.16000000       0.50000000       0.08333333 </v>
   <v>      -0.12000000       0.50000000       0.08333333 </v>
   <v>      -0.08000000       0.50000000       0.08333333 </v>
   <v>      -0.04000000       0.50000000       0.08333333 </v>
   <v>       0.00000000      -0.41666667       0.08333333 </v>
   <v>       0.04000000      -0.41666667       0.08333333 </v>
   <v>       0.08000000      -0.41666667       0.08333333 </v>
   <v>       0.12000000      -0.41666667       0.08333333 </v>
   <v>       0.16000000      -0.41666667       0.08333333 </v>
   <v>       0.20000000      -0.41666667       0.08333333 </v>
   <v>       0.24000000      -0.41666667       0.08333333 </v>
   <v>       0.28000000      -0.41666667       0.08333333 </v>
   <v>       0.32000000      -0.41666667       0.08333333 </v>
   <v>       0.36000000      -0.41666667       0.08333333 </v>
   <v>       0.40000000      -0.41666667       0.08333333 </v>
   <v>       0.44000000      -0.41666667       0.08333333 </v>
   <v>       0.48000000      -0.41666667       0.08333333 </v>
   <v>      -0.48000000      -0.41666667       0.08333333 </v>
   <v>      -0.44000000      -0.41666667       0.08333333 </v>
   <v>      -0.40000000      -0.41666667       0.08333333 </v>
   <v>      -0.36000000      -0.41666667       0.08333333 </v>
   <v>      -0.32000000      -0.41666667       0.08333333 </v>
   <v>      -0.28000000      -0.41666667       0.08333333 </v>
   <v>      -0.24000000      -0.41666667       0.08333333 </v>
   <v>      -0.20000000      -0.41666667       0.08333333 </v>
   <v>      -0.16000000      -0.41666667       0.08333333 </v>
   <v>      -0.12000000      -0.41666667       0.08333333 </v>
   <v>      -0.08000000      -0.41666667       0.08333333 </v>
   <v>      -0.04000000      -0.41666667       0.08333333 </v>
   <v>       0.00000000      -0.33333333       0.08333333 </v>
   <v>       0.04000000      -0.33333333       0.08333333 </v>
   <v>       0.08000000      -0.33333333       0.08333333 </v>
   <v>       0.12000000      -0.33333333       0.08333333 </v>
   <v>       0.16000000      -0.33333333       0.08333333 </v>
   <v>       0.20000000      -0.33333333       0.08333333 </v>
   <v>       0.24000000      -0.33333333       0.08333333 </v>
   <v>       0.28000000      -0.33333333       0.08333333 </v>
   <v>       0.32000000      -0.33333333       0.08333333 </v>
   <v>       0.36000000      -0.33333333       0.08333333 </v>
   <v>       0.40000000      -0.33333333       0.08333333 </v>
   <v>       0.44000000      -0.33333333       0.08333333 </v>
   <v>       0.48000000      -0.33333333       0.08333333 </v>
   <v>      -0.48000000      -0.33333333       0.08333333 </v>
   <v>      -0.44000000      -0.33333333       0.08333333 </v>
   <v>      -0.40000000      -0.33333333       0.08333333 </v>
   <v>      -0.36000000      -0.33333333       0.08333333 </v>
   <v>      -0.32000000      -0.33333333       0.08333333 </v>
   <v>      -0.28000000      -0.33333333       0.08333333 </v>
   <v>      -0.24000000      -0.33333333       0.08333333 </v>
   <v>      -0.20000000      -0.33333333       0.08333333 </v>
   <v>      -0.16000000      -0.33333333       0.08333333 </v>
   <v>      -0.12000000      -0.33333333       0.08333333 </v>
   <v>      -0.08000000      -0.33333333       0.08333333 </v>
   <v>      -0.04000000      -0.33333333       0.08333333 </v>
   <v>       0.00000000      -0.25000000       0.08333333 </v>
   <v>       0.04000000      -0.25000000       0.08333333 </v>
   <v>       0.08000000      -0.25000000       0.08333333 </v>
   <v>       0.12000000      -0.25000000       0.08333333 </v>
   <v>       0.16000000      -0.25000000       0.08333333 </v>
   <v>       0.20000000      -0.25000000       0.08333333 </v>
   <v>       0.24000000      -0.25000000       0.08333333 </v>
   <v>       0.28000000      -0.25000000       0.08333333 </v>
   <v>       0.32000000      -0.25000000       0.08333333 </v>
   <v>       0.36000000      -0.25000000       0.08333333 </v>
   <v>       0.40000000      -0.25000000       0.08333333 </v>
   <v>       0.44000000      -0.25000000       0.08333333 </v>
   <v>       0.48000000      -0.25000000       0.08333333 </v>
   <v>      -0.48000000      -0.25000000       0.08333333 </v>
   <v>      -0.44000000      -0.25000000       0.08333333 </v>
   <v>      -0.40000000      -0.25000000       0.08333333 </v>
   <v>      -0.36000000      -0.25000000       0.08333333 </v>
   <v>      -0.32000000      -0.25000000       0.08333333 </v>
   <v>      -0.28000000      -0.25000000       0.08333333 </v>
   <v>      -0.24000000      -0.25000000       0.08333333 </v>
   <v>      -0.20000000      -0.25000000       0.08333333 </v>
   <v>      -0.16000000      -0.25000000       0.08333333 </v>
   <v>      -0.12000000      -0.25000000       0.08333333 </v>
   <v>      -0.08000000      -0.25000000       0.08333333 </v>
   <v>      -0.04000000      -0.25000000       0.08333333 </v>
   <v>       0.00000000      -0.16666667       0.08333333 </v>
   <v>       0.04000000      -0.16666667       0.08333333 </v>
   <v>       0.08000000      -0.16666667       0.08333333 </v>
   <v>       0.12000000      -0.16666667       0.08333333 </v>
   <v>       0.16000000      -0.16666667       0.08333333 </v>
   <v>       0.20000000      -0.16666667       0.08333333 </v>
   <v>       0.24000000      -0.16666667       0.08333333 </v>
   <v>       0.28000000      -0.16666667       0.08333333 </v>
   <v>       0.32000000      -0.16666667       0.08333333 </v>
   <v>       0.36000000      -0.16666667       0.08333333 </v>
   <v>       0.40000000      -0.16666667       0.08333333 </v>
   <v>       0.44000000      -0.16666667       0.08333333 </v>
   <v>       0.48000000      -0.16666667       0.08333333 </v>
   <v>      -0.48000000      -0.16666667       0.08333333 </v>
   <v>      -0.44000000      -0.16666667       0.08333333 </v>
   <v>      -0.40000000      -0.16666667       0.08333333 </v>
   <v>      -0.36000000      -0.16666667       0.08333333 </v>
   <v>      -0.32000000      -0.16666667       0.08333333 </v>
   <v>      -0.28000000      -0.16666667       0.08333333 </v>
   <v>      -0.24000000      -0.16666667       0.08333333 </v>
   <v>      -0.20000000      -0.16666667       0.08333333 </v>
   <v>      -0.16000000      -0.16666667       0.08333333 </v>
   <v>      -0.12000000      -0.16666667       0.08333333 </v>
   <v>      -0.08000000      -0.16666667       0.08333333 </v>
   <v>      -0.04000000      -0.16666667       0.08333333 </v>
   <v>       0.00000000      -0.08333333       0.08333333 </v>
   <v>       0.04000000      -0.08333333       0.08333333 </v>
   <v>       0.08000000      -0.08333333       0.08333333 </v>
   <v>       0.12000000      -0.08333333       0.08333333 </v>
   <v>       0.16000000      -0.08333333       0.08333333 </v>
   <v>       0.20000000      -0.08333333       0.08333333 </v>
   <v>       0.24000000      -0.08333333       0.08333333 </v>
   <v>       0.28000000      -0.08333333       0.08333333 </v>
   <v>       0.32000000      -0.08333333       0.08333333 </v>
   <v>       0.36000000      -0.08333333       0.08333333 </v>
   <v>       0.40000000      -0.08333333       0.08333333 </v>
   <v>       0.44000000      -0.08333333       0.08333333 </v>
   <v>       0.48000000      -0.08333333       0.08333333 </v>
   <v>      -0.48000000      -0.08333333       0.08333333 </v>
   <v>      -0.44000000      -0.08333333       0.08333333 </v>
   <v>      -0.40000000      -0.08333333       0.08333333 </v>
   <v>      -0.36000000      -0.08333333       0.08333333 </v>
   <v>      -0.32000000      -0.08333333       0.08333333 </v>
   <v>      -0.28000000      -0.08333333       0.08333333 </v>
   <v>      -0.24000000      -0.08333333       0.08333333 </v>
   <v>      -0.20000000      -0.08333333       0.08333333 </v>
   <v>      -0.16000000      -0.08333333       0.08333333 </v>
   <v>      -0.12000000      -0.08333333       0.08333333 </v>
   <v>      -0.08000000      -0.08333333       0.08333333 </v>
   <v>      -0.04000000      -0.08333333       0.08333333 </v>
   <v>       0.00000000       0.00000000       0.16666667 </v>
   <v>       0.04000000       0.00000000       0.16666667 </v>
   <v>       0.08000000       0.00000000       0.16666667 </v>
   <v>       0.12000000       0.00000000       0.16666667 </v>
   <v>       0.16000000       0.00000000       0.16666667 </v>
   <v>       0.20000000       0.00000000       0.16666667 </v>
   <v>       0.24000000       0.00000000       0.16666667 </v>
   <v>       0.28000000       0.00000000       0.16666667 </v>
   <v>       0.32000000       0.00000000       0.16666667 </v>
   <v>       0.36000000       0.00000000       0.16666667 </v>
   <v>       0.40000000       0.00000000       0.16666667 </v>
   <v>       0.44000000       0.00000000       0.16666667 </v>
   <v>       0.48000000       0.00000000       0.16666667 </v>
   <v>      -0.48000000       0.00000000       0.16666667 </v>
   <v>      -0.44000000       0.00000000       0.16666667 </v>
   <v>      -0.40000000       0.00000000       0.16666667 </v>
   <v>      -0.36000000       0.00000000       0.16666667 </v>
   <v>      -0.32000000       0.00000000       0.16666667 </v>
   <v>      -0.28000000       0.00000000       0.16666667 </v>
   <v>      -0.24000000       0.00000000       0.16666667 </v>
   <v>      -0.20000000       0.00000000       0.16666667 </v>
   <v>      -0.16000000       0.00000000       0.16666667 </v>
   <v>      -0.12000000       0.00000000       0.16666667 </v>
   <v>      -0.08000000       0.00000000       0.16666667 </v>
   <v>      -0.04000000       0.00000000       0.16666667 </v>
   <v>       0.00000000       0.08333333       0.16666667 </v>
   <v>       0.04000000       0.08333333       0.16666667 </v>
   <v>       0.08000000       0.08333333       0.16666667 </v>
   <v>       0.12000000       0.08333333       0.16666667 </v>
   <v>       0.16000000       0.08333333       0.16666667 </v>
   <v>       0.20000000       0.08333333       0.16666667 </v>
   <v>       0.24000000       0.08333333       0.16666667 </v>
   <v>       0.28000000       0.08333333       0.16666667 </v>
   <v>       0.32000000       0.08333333       0.16666667 </v>
   <v>       0.36000000       0.08333333       0.16666667 </v>
   <v>       0.40000000       0.08333333       0.16666667 </v>
   <v>       0.44000000       0.08333333       0.16666667 </v>
   <v>       0.48000000       0.08333333       0.16666667 </v>
   <v>      -0.48000000       0.08333333       0.16666667 </v>
   <v>      -0.44000000       0.08333333       0.16666667 </v>
   <v>      -0.40000000       0.08333333       0.16666667 </v>
   <v>      -0.36000000       0.08333333       0.16666667 </v>
   <v>      -0.32000000       0.08333333       0.16666667 </v>
   <v>      -0.28000000       0.08333333       0.16666667 </v>
   <v>      -0.24000000       0.08333333       0.16666667 </v>
   <v>      -0.20000000       0.08333333       0.16666667 </v>
   <v>      -0.16000000       0.08333333       0.16666667 </v>
   <v>      -0.12000000       0.08333333       0.16666667 </v>
   <v>      -0.08000000       0.08333333       0.16666667 </v>
   <v>      -0.04000000       0.08333333       0.16666667 </v>
   <v>       0.00000000       0.16666667       0.16666667 </v>
   <v>       0.04000000       0.16666667       0.16666667 </v>
   <v>       0.08000000       0.16666667       0.16666667 </v>
   <v>       0.12000000       0.16666667       0.16666667 </v>
   <v>       0.16000000       0.16666667       0.16666667 </v>
   <v>       0.20000000       0.16666667       0.16666667 </v>
   <v>       0.24000000       0.16666667       0.16666667 </v>
   <v>       0.28000000       0.16666667       0.16666667 </v>
   <v>       0.32000000       0.16666667       0.16666667 </v>
   <v>       0.36000000       0.16666667       0.16666667 </v>
   <v>       0.40000000       0.16666667       0.16666667 </v>
   <v>       0.44000000       0.16666667       0.16666667 </v>
   <v>       0.48000000       0.16666667       0.16666667 </v>
   <v>      -0.48000000       0.16666667       0.16666667 </v>
   <v>      -0.44000000       0.16666667       0.16666667 </v>
   <v>      -0.40000000       0.16666667       0.16666667 </v>
   <v>      -0.36000000       0.16666667       0.16666667 </v>
   <v>      -0.32000000       0.16666667       0.16666667 </v>
   <v>      -0.28000000       0.16666667       0.16666667 </v>
   <v>      -0.24000000       0.16666667       0.16666667 </v>
   <v>      -0.20000000       0.16666667       0.16666667 </v>
   <v>      -0.16000000       0.16666667       0.16666667 </v>
   <v>      -0.12000000       0.16666667       0.16666667 </v>
   <v>      -0.08000000       0.16666667       0.16666667 </v>
   <v>      -0.04000000       0.16666667       0.16666667 </v>
   <v>       0.00000000       0.25000000       0.16666667 </v>
   <v>       0.04000000       0.25000000       0.16666667 </v>
   <v>       0.08000000       0.25000000       0.16666667 </v>
   <v>       0.12000000       0.25000000       0.16666667 </v>
   <v>       0.16000000       0.25000000       0.16666667 </v>
   <v>       0.20000000       0.25000000       0.16666667 </v>
   <v>       0.24000000       0.25000000       0.16666667 </v>
   <v>       0.28000000       0.25000000       0.16666667 </v>
   <v>       0.32000000       0.25000000       0.16666667 </v>
   <v>       0.36000000       0.25000000       0.16666667 </v>
   <v>       0.40000000       0.25000000       0.16666667 </v>
   <v>       0.44000000       0.25000000       0.16666667 </v>
   <v>       0.48000000       0.25000000       0.16666667 </v>
   <v>      -0.48000000       0.25000000       0.16666667 </v>
   <v>      -0.44000000       0.25000000       0.16666667 </v>
   <v>      -0.40000000       0.25000000       0.16666667 </v>
   <v>      -0.36000000       0.25000000       0.16666667 </v>
   <v>      -0.32000000       0.25000000       0.16666667 </v>
   <v>      -0.28000000       0.25000000       0.16666667 </v>
   <v>      -0.24000000       0.25000000       0.16666667 </v>
   <v>      -0.20000000       0.25000000       0.16666667 </v>
   <v>      -0.16000000       0.25000000       0.16666667 </v>
   <v>      -0.12000000       0.25000000       0.16666667 </v>
   <v>      -0.08000000       0.25000000       0.16666667 </v>
   <v>      -0.04000000       0.25000000       0.16666667 </v>
   <v>       0.00000000       0.33333333       0.16666667 </v>
   <v>       0.04000000       0.33333333       0.16666667 </v>
   <v>       0.08000000       0.33333333       0.16666667 </v>
   <v>       0.12000000       0.33333333       0.16666667 </v>
   <v>       0.16000000       0.33333333       0.16666667 </v>
   <v>       0.20000000       0.33333333       0.16666667 </v>
   <v>       0.24000000       0.33333333       0.16666667 </v>
   <v>       0.28000000       0.33333333       0.16666667 </v>
   <v>       0.32000000       0.33333333       0.16666667 </v>
   <v>       0.36000000       0.33333333       0.16666667 </v>
   <v>       0.40000000       0.33333333       0.16666667 </v>
   <v>       0.44000000       0.33333333       0.16666667 </v>
   <v>       0.48000000       0.33333333       0.16666667 </v>
   <v>      -0.48000000       0.33333333       0.16666667 </v>
   <v>      -0.44000000       0.33333333       0.16666667 </v>
   <v>      -0.40000000       0.33333333       0.16666667 </v>
   <v>      -0.36000000       0.33333333       0.16666667 </v>
   <v>      -0.32000000       0.33333333       0.16666667 </v>
   <v>      -0.28000000       0.33333333       0.16666667 </v>
   <v>      -0.24000000       0.33333333       0.16666667 </v>
   <v>      -0.20000000       0.33333333       0.16666667 </v>
   <v>      -0.16000000       0.33333333       0.16666667 </v>
   <v>      -0.12000000       0.33333333       0.16666667 </v>
   <v>      -0.08000000       0.33333333       0.16666667 </v>
   <v>      -0.04000000       0.33333333       0.16666667 </v>
   <v>       0.00000000       0.41666667       0.16666667 </v>
   <v>       0.04000000       0.41666667       0.16666667 </v>
   <v>       0.08000000       0.41666667       0.16666667 </v>
   <v>       0.12000000       0.41666667       0.16666667 </v>
   <v>       0.16000000       0.41666667       0.16666667 </v>
   <v>       0.20000000       0.41666667       0.16666667 </v>
   <v>       0.24000000       0.41666667       0.16666667 </v>
   <v>       0.28000000       0.41666667       0.16666667 </v>
   <v>       0.32000000       0.41666667       0.16666667 </v>
   <v>       0.36000000       0.41666667       0.16666667 </v>
   <v>       0.40000000       0.41666667       0.16666667 </v>
   <v>       0.44000000       0.41666667       0.16666667 </v>
   <v>       0.48000000       0.41666667       0.16666667 </v>
   <v>      -0.48000000       0.41666667       0.16666667 </v>
   <v>      -0.44000000       0.41666667       0.16666667 </v>
   <v>      -0.40000000       0.41666667       0.16666667 </v>
   <v>      -0.36000000       0.41666667       0.16666667 </v>
   <v>      -0.32000000       0.41666667       0.16666667 </v>
   <v>      -0.28000000       0.41666667       0.16666667 </v>
   <v>      -0.24000000       0.41666667       0.16666667 </v>
   <v>      -0.20000000       0.41666667       0.16666667 </v>
   <v>      -0.16000000       0.41666667       0.16666667 </v>
   <v>      -0.12000000       0.41666667       0.16666667 </v>
   <v>      -0.08000000       0.41666667       0.16666667 </v>
   <v>      -0.04000000       0.41666667       0.16666667 </v>
   <v>       0.00000000       0.50000000       0.16666667 </v>
   <v>       0.04000000       0.50000000       0.16666667 </v>
   <v>       0.08000000       0.50000000       0.16666667 </v>
   <v>       0.12000000       0.50000000       0.16666667 </v>
   <v>       0.16000000       0.50000000       0.16666667 </v>
   <v>       0.20000000       0.50000000       0.16666667 </v>
   <v>       0.24000000       0.50000000       0.16666667 </v>
   <v>       0.28000000       0.50000000       0.16666667 </v>
   <v>       0.32000000       0.50000000       0.16666667 </v>
   <v>       0.36000000       0.50000000       0.16666667 </v>
   <v>       0.40000000       0.50000000       0.16666667 </v>
   <v>       0.44000000       0.50000000       0.16666667 </v>
   <v>       0.48000000       0.50000000       0.16666667 </v>
   <v>      -0.48000000       0.50000000       0.16666667 </v>
   <v>      -0.44000000       0.50000000       0.16666667 </v>
   <v>      -0.40000000       0.50000000       0.16666667 </v>
   <v>      -0.36000000       0.50000000       0.16666667 </v>
   <v>      -0.32000000       0.50000000       0.16666667 </v>
   <v>      -0.28000000       0.50000000       0.16666667 </v>
   <v>      -0.24000000       0.50000000       0.16666667 </v>
   <v>      -0.20000000       0.50000000       0.16666667 </v>
   <v>      -0.16000000       0.50000000       0.16666667 </v>
   <v>      -0.12000000       0.50000000       0.16666667 </v>
   <v>      -0.08000000       0.50000000       0.16666667 </v>
   <v>      -0.04000000       0.50000000       0.16666667 </v>
   <v>       0.00000000      -0.41666667       0.16666667 </v>
   <v>       0.04000000      -0.41666667       0.16666667 </v>
   <v>       0.08000000      -0.41666667       0.16666667 </v>
   <v>       0.12000000      -0.41666667       0.16666667 </v>
   <v>       0.16000000      -0.41666667       0.16666667 </v>
   <v>       0.20000000      -0.41666667       0.16666667 </v>
   <v>       0.24000000      -0.41666667       0.16666667 </v>
   <v>       0.28000000      -0.41666667       0.16666667 </v>
   <v>       0.32000000      -0.41666667       0.16666667 </v>
   <v>       0.36000000      -0.41666667       0.16666667 </v>
   <v>       0.40000000      -0.41666667       0.16666667 </v>
   <v>       0.44000000      -0.41666667       0.16666667 </v>
   <v>       0.48000000      -0.41666667       0.16666667 </v>
   <v>      -0.48000000      -0.41666667       0.16666667 </v>
   <v>      -0.44000000      -0.41666667       0.16666667 </v>
   <v>      -0.40000000      -0.41666667       0.16666667 </v>
   <v>      -0.36000000      -0.41666667       0.16666667 </v>
   <v>      -0.32000000      -0.41666667       0.16666667 </v>
   <v>      -0.28000000      -0.41666667       0.16666667 </v>
   <v>      -0.24000000      -0.41666667       0.16666667 </v>
   <v>      -0.20000000      -0.41666667       0.16666667 </v>
   <v>      -0.16000000      -0.41666667       0.16666667 </v>
   <v>      -0.12000000      -0.41666667       0.16666667 </v>
   <v>      -0.08000000      -0.41666667       0.16666667 </v>
   <v>      -0.04000000      -0.41666667       0.16666667 </v>
   <v>       0.00000000      -0.33333333       0.16666667 </v>
   <v>       0.04000000      -0.33333333       0.16666667 </v>
   <v>       0.08000000      -0.33333333       0.16666667 </v>
   <v>       0.12000000      -0.33333333       0.16666667 </v>
   <v>       0.16000000      -0.33333333       0.16666667 </v>
   <v>       0.20000000      -0.33333333       0.16666667 </v>
   <v>       0.24000000      -0.33333333       0.16666667 </v>
   <v>       0.28000000      -0.33333333       0.16666667 </v>
   <v>       0.32000000      -0.33333333       0.16666667 </v>
   <v>       0.36000000      -0.33333333       0.16666667 </v>
   <v>       0.40000000      -0.33333333       0.16666667 </v>
   <v>       0.44000000      -0.33333333       0.16666667 </v>
   <v>       0.48000000      -0.33333333       0.16666667 </v>
   <v>      -0.48000000      -0.33333333       0.16666667 </v>
   <v>      -0.44000000      -0.33333333       0.16666667 </v>
   <v>      -0.40000000      -0.33333333       0.16666667 </v>
   <v>      -0.36000000      -0.33333333       0.16666667 </v>
   <v>      -0.32000000      -0.33333333       0.16666667 </v>
   <v>      -0.28000000      -0.33333333       0.16666667 </v>
   <v>      -0.24000000      -0.33333333       0.16666667 </v>
   <v>      -0.20000000      -0.33333333       0.16666667 </v>
   <v>      -0.16000000      -0.33333333       0.16666667 </v>
   <v>      -0.12000000      -0.33333333       0.16666667 </v>
   <v>      -0.08000000      -0.33333333       0.16666667 </v>
   <v>      -0.04000000      -0.33333333       0.16666667 </v>
   <v>       0.00000000      -0.25000000       0.16666667 </v>
   <v>       0.04000000      -0.25000000       0.16666667 </v>
   <v>       0.08000000      -0.25000000       0.16666667 </v>
   <v>       0.12000000      -0.25000000       0.16666667 </v>
   <v>       0.16000000      -0.25000000       0.16666667 </v>
   <v>       0.20000000      -0.25000000       0.16666667 </v>
   <v>       0.24000000      -0.25000000       0.16666667 </v>
   <v>       0.28000000      -0.25000000       0.16666667 </v>
   <v>       0.32000000      -0.25000000       0.16666667 </v>
   <v>       0.36000000      -0.25000000       0.16666667 </v>
   <v>       0.40000000      -0.25000000       0.16666667 </v>
   <v>       0.44000000      -0.25000000       0.16666667 </v>
   <v>       0.48000000      -0.25000000       0.16666667 </v>
   <v>      -0.48000000      -0.25000000       0.16666667 </v>
   <v>      -0.44000000      -0.25000000       0.16666667 </v>
   <v>      -0.40000000      -0.25000000       0.16666667 </v>
   <v>      -0.36000000      -0.25000000       0.16666667 </v>
   <v>      -0.32000000      -0.25000000       0.16666667 </v>
   <v>      -0.28000000      -0.25000000       0.16666667 </v>
   <v>      -0.24000000      -0.25000000       0.16666667 </v>
   <v>      -0.20000000      -0.25000000       0.16666667 </v>
   <v>      -0.16000000      -0.25000000       0.16666667 </v>
   <v>      -0.12000000      -0.25000000       0.16666667 </v>
   <v>      -0.08000000      -0.25000000       0.16666667 </v>
   <v>      -0.04000000      -0.25000000       0.16666667 </v>
   <v>       0.00000000      -0.16666667       0.16666667 </v>
   <v>       0.04000000      -0.16666667       0.16666667 </v>
   <v>       0.08000000      -0.16666667       0.16666667 </v>
   <v>       0.12000000      -0.16666667       0.16666667 </v>
   <v>       0.16000000      -0.16666667       0.16666667 </v>
   <v>       0.20000000      -0.16666667       0.16666667 </v>
   <v>       0.24000000      -0.16666667       0.16666667 </v>
   <v>       0.28000000      -0.16666667       0.16666667 </v>
   <v>       0.32000000      -0.16666667       0.16666667 </v>
   <v>       0.36000000      -0.16666667       0.16666667 </v>
   <v>       0.40000000      -0.16666667       0.16666667 </v>
   <v>       0.44000000      -0.16666667       0.16666667 </v>
   <v>       0.48000000      -0.16666667       0.16666667 </v>
   <v>      -0.48000000      -0.16666667       0.16666667 </v>
   <v>      -0.44000000      -0.16666667       0.16666667 </v>
   <v>      -0.40000000      -0.16666667       0.16666667 </v>
   <v>      -0.36000000      -0.16666667       0.16666667 </v>
   <v>      -0.32000000      -0.16666667       0.16666667 </v>
   <v>      -0.28000000      -0.16666667       0.16666667 </v>
   <v>      -0.24000000      -0.16666667       0.16666667 </v>
   <v>      -0.20000000      -0.16666667       0.16666667 </v>
   <v>      -0.16000000      -0.16666667       0.16666667 </v>
   <v>      -0.12000000      -0.16666667       0.16666667 </v>
   <v>      -0.08000000      -0.16666667       0.16666667 </v>
   <v>      -0.04000000      -0.16666667       0.16666667 </v>
   <v>       0.00000000      -0.08333333       0.16666667 </v>
   <v>       0.04000000      -0.08333333       0.16666667 </v>
   <v>       0.08000000      -0.08333333       0.16666667 </v>
   <v>       0.12000000      -0.08333333       0.16666667 </v>
   <v>       0.16000000      -0.08333333       0.16666667 </v>
   <v>       0.20000000      -0.08333333       0.16666667 </v>
   <v>       0.24000000      -0.08333333       0.16666667 </v>
   <v>       0.28000000      -0.08333333       0.16666667 </v>
   <v>       0.32000000      -0.08333333       0.16666667 </v>
   <v>       0.36000000      -0.08333333       0.16666667 </v>
   <v>       0.40000000      -0.08333333       0.16666667 </v>
   <v>       0.44000000      -0.08333333       0.16666667 </v>
   <v>       0.48000000      -0.08333333       0.16666667 </v>
   <v>      -0.48000000      -0.08333333       0.16666667 </v>
   <v>      -0.44000000      -0.08333333       0.16666667 </v>
   <v>      -0.40000000      -0.08333333       0.16666667 </v>
   <v>      -0.36000000      -0.08333333       0.16666667 </v>
   <v>      -0.32000000      -0.08333333       0.16666667 </v>
   <v>      -0.28000000      -0.08333333       0.16666667 </v>
   <v>      -0.24000000      -0.08333333       0.16666667 </v>
   <v>      -0.20000000      -0.08333333       0.16666667 </v>
   <v>      -0.16000000      -0.08333333       0.16666667 </v>
   <v>      -0.12000000      -0.08333333       0.16666667 </v>
   <v>      -0.08000000      -0.08333333       0.16666667 </v>
   <v>      -0.04000000      -0.08333333       0.16666667 </v>
   <v>       0.00000000       0.00000000       0.25000000 </v>
   <v>       0.04000000       0.00000000       0.25000000 </v>
   <v>       0.08000000       0.00000000       0.25000000 </v>
   <v>       0.12000000       0.00000000       0.25000000 </v>
   <v>       0.16000000       0.00000000       0.25000000 </v>
   <v>       0.20000000       0.00000000       0.25000000 </v>
   <v>       0.24000000       0.00000000       0.25000000 </v>
   <v>       0.28000000       0.00000000       0.25000000 </v>
   <v>       0.32000000       0.00000000       0.25000000 </v>
   <v>       0.36000000       0.00000000       0.25000000 </v>
   <v>       0.40000000       0.00000000       0.25000000 </v>
   <v>       0.44000000       0.00000000       0.25000000 </v>
   <v>       0.48000000       0.00000000       0.25000000 </v>
   <v>      -0.48000000       0.00000000       0.25000000 </v>
   <v>      -0.44000000       0.00000000       0.25000000 </v>
   <v>      -0.40000000       0.00000000       0.25000000 </v>
   <v>      -0.36000000       0.00000000       0.25000000 </v>
   <v>      -0.32000000       0.00000000       0.25000000 </v>
   <v>      -0.28000000       0.00000000       0.25000000 </v>
   <v>      -0.24000000       0.00000000       0.25000000 </v>
   <v>      -0.20000000       0.00000000       0.25000000 </v>
   <v>      -0.16000000       0.00000000       0.25000000 </v>
   <v>      -0.12000000       0.00000000       0.25000000 </v>
   <v>      -0.08000000       0.00000000       0.25000000 </v>
   <v>      -0.04000000       0.00000000       0.25000000 </v>
   <v>       0.00000000       0.08333333       0.25000000 </v>
   <v>       0.04000000       0.08333333       0.25000000 </v>
   <v>       0.08000000       0.08333333       0.25000000 </v>
   <v>       0.12000000       0.08333333       0.25000000 </v>
   <v>       0.16000000       0.08333333       0.25000000 </v>
   <v>       0.20000000       0.08333333       0.25000000 </v>
   <v>       0.24000000       0.08333333       0.25000000 </v>
   <v>       0.28000000       0.08333333       0.25000000 </v>
   <v>       0.32000000       0.08333333       0.25000000 </v>
   <v>       0.36000000       0.08333333       0.25000000 </v>
   <v>       0.40000000       0.08333333       0.25000000 </v>
   <v>       0.44000000       0.08333333       0.25000000 </v>
   <v>       0.48000000       0.08333333       0.25000000 </v>
   <v>      -0.48000000       0.08333333       0.25000000 </v>
   <v>      -0.44000000       0.08333333       0.25000000 </v>
   <v>      -0.40000000       0.08333333       0.25000000 </v>
   <v>      -0.36000000       0.08333333       0.25000000 </v>
   <v>      -0.32000000       0.08333333       0.25000000 </v>
   <v>      -0.28000000       0.08333333       0.25000000 </v>
   <v>      -0.24000000       0.08333333       0.25000000 </v>
   <v>      -0.20000000       0.08333333       0.25000000 </v>
   <v>      -0.16000000       0.08333333       0.25000000 </v>
   <v>      -0.12000000       0.08333333       0.25000000 </v>
   <v>      -0.08000000       0.08333333       0.25000000 </v>
   <v>      -0.04000000       0.08333333       0.25000000 </v>
   <v>       0.00000000       0.16666667       0.25000000 </v>
   <v>       0.04000000       0.16666667       0.25000000 </v>
   <v>       0.08000000       0.16666667       0.25000000 </v>
   <v>       0.12000000       0.16666667       0.25000000 </v>
   <v>       0.16000000       0.16666667       0.25000000 </v>
   <v>       0.20000000       0.16666667       0.25000000 </v>
   <v>       0.24000000       0.16666667       0.25000000 </v>
   <v>       0.28000000       0.16666667       0.25000000 </v>
   <v>       0.32000000       0.16666667       0.25000000 </v>
   <v>       0.36000000       0.16666667       0.25000000 </v>
   <v>       0.40000000       0.16666667       0.25000000 </v>
   <v>       0.44000000       0.16666667       0.25000000 </v>
   <v>       0.48000000       0.16666667       0.25000000 </v>
   <v>      -0.48000000       0.16666667       0.25000000 </v>
   <v>      -0.44000000       0.16666667       0.25000000 </v>
   <v>      -0.40000000       0.16666667       0.25000000 </v>
   <v>      -0.36000000       0.16666667       0.25000000 </v>
   <v>      -0.32000000       0.16666667       0.25000000 </v>
   <v>      -0.28000000       0.16666667       0.25000000 </v>
   <v>      -0.24000000       0.16666667       0.25000000 </v>
   <v>      -0.20000000       0.16666667       0.25000000 </v>
   <v>      -0.16000000       0.16666667       0.25000000 </v>
   <v>      -0.12000000       0.16666667       0.25000000 </v>
   <v>      -0.08000000       0.16666667       0.25000000 </v>
   <v>      -0.04000000       0.16666667       0.25000000 </v>
   <v>       0.00000000       0.25000000       0.25000000 </v>
   <v>       0.04000000       0.25000000       0.25000000 </v>
   <v>       0.08000000       0.25000000       0.25000000 </v>
   <v>       0.12000000       0.25000000       0.25000000 </v>
   <v>       0.16000000       0.25000000       0.25000000 </v>
   <v>       0.20000000       0.25000000       0.25000000 </v>
   <v>       0.24000000       0.25000000       0.25000000 </v>
   <v>       0.28000000       0.25000000       0.25000000 </v>
   <v>       0.32000000       0.25000000       0.25000000 </v>
   <v>       0.36000000       0.25000000       0.25000000 </v>
   <v>       0.40000000       0.25000000       0.25000000 </v>
   <v>       0.44000000       0.25000000       0.25000000 </v>
   <v>       0.48000000       0.25000000       0.25000000 </v>
   <v>      -0.48000000       0.25000000       0.25000000 </v>
   <v>      -0.44000000       0.25000000       0.25000000 </v>
   <v>      -0.40000000       0.25000000       0.25000000 </v>
   <v>      -0.36000000       0.25000000       0.25000000 </v>
   <v>      -0.32000000       0.25000000       0.25000000 </v>
   <v>      -0.28000000       0.25000000       0.25000000 </v>
   <v>      -0.24000000       0.25000000       0.25000000 </v>
   <v>      -0.20000000       0.25000000       0.25000000 </v>
   <v>      -0.16000000       0.25000000       0.25000000 </v>
   <v>      -0.12000000       0.25000000       0.25000000 </v>
   <v>      -0.08000000       0.25000000       0.25000000 </v>
   <v>      -0.04000000       0.25000000       0.25000000 </v>
   <v>       0.00000000       0.33333333       0.25000000 </v>
   <v>       0.04000000       0.33333333       0.25000000 </v>
   <v>       0.08000000       0.33333333       0.25000000 </v>
   <v>       0.12000000       0.33333333       0.25000000 </v>
   <v>       0.16000000       0.33333333       0.25000000 </v>
   <v>       0.20000000       0.33333333       0.25000000 </v>
   <v>       0.24000000       0.33333333       0.25000000 </v>
   <v>       0.28000000       0.33333333       0.25000000 </v>
   <v>       0.32000000       0.33333333       0.25000000 </v>
   <v>       0.36000000       0.33333333       0.25000000 </v>
   <v>       0.40000000       0.33333333       0.25000000 </v>
   <v>       0.44000000       0.33333333       0.25000000 </v>
   <v>       0.48000000       0.33333333       0.25000000 </v>
   <v>      -0.48000000       0.33333333       0.25000000 </v>
   <v>      -0.44000000       0.33333333       0.25000000 </v>
   <v>      -0.40000000       0.33333333       0.25000000 </v>
   <v>      -0.36000000       0.33333333       0.25000000 </v>
   <v>      -0.32000000       0.33333333       0.25000000 </v>
   <v>      -0.28000000       0.33333333       0.25000000 </v>
   <v>      -0.24000000       0.33333333       0.25000000 </v>
   <v>      -0.20000000       0.33333333       0.25000000 </v>
   <v>      -0.16000000       0.33333333       0.25000000 </v>
   <v>      -0.12000000       0.33333333       0.25000000 </v>
   <v>      -0.08000000       0.33333333       0.25000000 </v>
   <v>      -0.04000000       0.33333333       0.25000000 </v>
   <v>       0.00000000       0.41666667       0.25000000 </v>
   <v>       0.04000000       0.41666667       0.25000000 </v>
   <v>       0.08000000       0.41666667       0.25000000 </v>
   <v>       0.12000000       0.41666667       0.25000000 </v>
   <v>       0.16000000       0.41666667       0.25000000 </v>
   <v>       0.20000000       0.41666667       0.25000000 </v>
   <v>       0.24000000       0.41666667       0.25000000 </v>
   <v>       0.28000000       0.41666667       0.25000000 </v>
   <v>       0.32000000       0.41666667       0.25000000 </v>
   <v>       0.36000000       0.41666667       0.25000000 </v>
   <v>       0.40000000       0.41666667       0.25000000 </v>
   <v>       0.44000000       0.41666667       0.25000000 </v>
   <v>       0.48000000       0.41666667       0.25000000 </v>
   <v>      -0.48000000       0.41666667       0.25000000 </v>
   <v>      -0.44000000       0.41666667       0.25000000 </v>
   <v>      -0.40000000       0.41666667       0.25000000 </v>
   <v>      -0.36000000       0.41666667       0.25000000 </v>
   <v>      -0.32000000       0.41666667       0.25000000 </v>
   <v>      -0.28000000       0.41666667       0.25000000 </v>
   <v>      -0.24000000       0.41666667       0.25000000 </v>
   <v>      -0.20000000       0.41666667       0.25000000 </v>
   <v>      -0.16000000       0.41666667       0.25000000 </v>
   <v>      -0.12000000       0.41666667       0.25000000 </v>
   <v>      -0.08000000       0.41666667       0.25000000 </v>
   <v>      -0.04000000       0.41666667       0.25000000 </v>
   <v>       0.00000000       0.50000000       0.25000000 </v>
   <v>       0.04000000       0.50000000       0.25000000 </v>
   <v>       0.08000000       0.50000000       0.25000000 </v>
   <v>       0.12000000       0.50000000       0.25000000 </v>
   <v>       0.16000000       0.50000000       0.25000000 </v>
   <v>       0.20000000       0.50000000       0.25000000 </v>
   <v>       0.24000000       0.50000000       0.25000000 </v>
   <v>       0.28000000       0.50000000       0.25000000 </v>
   <v>       0.32000000       0.50000000       0.25000000 </v>
   <v>       0.36000000       0.50000000       0.25000000 </v>
   <v>       0.40000000       0.50000000       0.25000000 </v>
   <v>       0.44000000       0.50000000       0.25000000 </v>
   <v>       0.48000000       0.50000000       0.25000000 </v>
   <v>      -0.48000000       0.50000000       0.25000000 </v>
   <v>      -0.44000000       0.50000000       0.25000000 </v>
   <v>      -0.40000000       0.50000000       0.25000000 </v>
   <v>      -0.36000000       0.50000000       0.25000000 </v>
   <v>      -0.32000000       0.50000000       0.25000000 </v>
   <v>      -0.28000000       0.50000000       0.25000000 </v>
   <v>      -0.24000000       0.50000000       0.25000000 </v>
   <v>      -0.20000000       0.50000000       0.25000000 </v>
   <v>      -0.16000000       0.50000000       0.25000000 </v>
   <v>      -0.12000000       0.50000000       0.25000000 </v>
   <v>      -0.08000000       0.50000000       0.25000000 </v>
   <v>      -0.04000000       0.50000000       0.25000000 </v>
   <v>       0.00000000      -0.41666667       0.25000000 </v>
   <v>       0.04000000      -0.41666667       0.25000000 </v>
   <v>       0.08000000      -0.41666667       0.25000000 </v>
   <v>       0.12000000      -0.41666667       0.25000000 </v>
   <v>       0.16000000      -0.41666667       0.25000000 </v>
   <v>       0.20000000      -0.41666667       0.25000000 </v>
   <v>       0.24000000      -0.41666667       0.25000000 </v>
   <v>       0.28000000      -0.41666667       0.25000000 </v>
   <v>       0.32000000      -0.41666667       0.25000000 </v>
   <v>       0.36000000      -0.41666667       0.25000000 </v>
   <v>       0.40000000      -0.41666667       0.25000000 </v>
   <v>       0.44000000      -0.41666667       0.25000000 </v>
   <v>       0.48000000      -0.41666667       0.25000000 </v>
   <v>      -0.48000000      -0.41666667       0.25000000 </v>
   <v>      -0.44000000      -0.41666667       0.25000000 </v>
   <v>      -0.40000000      -0.41666667       0.25000000 </v>
   <v>      -0.36000000      -0.41666667       0.25000000 </v>
   <v>      -0.32000000      -0.41666667       0.25000000 </v>
   <v>      -0.28000000      -0.41666667       0.25000000 </v>
   <v>      -0.24000000      -0.41666667       0.25000000 </v>
   <v>      -0.20000000      -0.41666667       0.25000000 </v>
   <v>      -0.16000000      -0.41666667       0.25000000 </v>
   <v>      -0.12000000      -0.41666667       0.25000000 </v>
   <v>      -0.08000000      -0.41666667       0.25000000 </v>
   <v>      -0.04000000      -0.41666667       0.25000000 </v>
   <v>       0.00000000      -0.33333333       0.25000000 </v>
   <v>       0.04000000      -0.33333333       0.25000000 </v>
   <v>       0.08000000      -0.33333333       0.25000000 </v>
   <v>       0.12000000      -0.33333333       0.25000000 </v>
   <v>       0.16000000      -0.33333333       0.25000000 </v>
   <v>       0.20000000      -0.33333333       0.25000000 </v>
   <v>       0.24000000      -0.33333333       0.25000000 </v>
   <v>       0.28000000      -0.33333333       0.25000000 </v>
   <v>       0.32000000      -0.33333333       0.25000000 </v>
   <v>       0.36000000      -0.33333333       0.25000000 </v>
   <v>       0.40000000      -0.33333333       0.25000000 </v>
   <v>       0.44000000      -0.33333333       0.25000000 </v>
   <v>       0.48000000      -0.33333333       0.25000000 </v>
   <v>      -0.48000000      -0.33333333       0.25000000 </v>
   <v>      -0.44000000      -0.33333333       0.25000000 </v>
   <v>      -0.40000000      -0.33333333       0.25000000 </v>
   <v>      -0.36000000      -0.33333333       0.25000000 </v>
   <v>      -0.32000000      -0.33333333       0.25000000 </v>
   <v>      -0.28000000      -0.33333333       0.25000000 </v>
   <v>      -0.24000000      -0.33333333       0.25000000 </v>
   <v>      -0.20000000      -0.33333333       0.25000000 </v>
   <v>      -0.16000000      -0.33333333       0.25000000 </v>
   <v>      -0.12000000      -0.33333333       0.25000000 </v>
   <v>      -0.08000000      -0.33333333       0.25000000 </v>
   <v>      -0.04000000      -0.33333333       0.25000000 </v>
   <v>       0.00000000      -0.25000000       0.25000000 </v>
   <v>       0.04000000      -0.25000000       0.25000000 </v>
   <v>       0.08000000      -0.25000000       0.25000000 </v>
   <v>       0.12000000      -0.25000000       0.25000000 </v>
   <v>       0.16000000      -0.25000000       0.25000000 </v>
   <v>       0.20000000      -0.25000000       0.25000000 </v>
   <v>       0.24000000      -0.25000000       0.25000000 </v>
   <v>       0.28000000      -0.25000000       0.25000000 </v>
   <v>       0.32000000      -0.25000000       0.25000000 </v>
   <v>       0.36000000      -0.25000000       0.25000000 </v>
   <v>       0.40000000      -0.25000000       0.25000000 </v>
   <v>       0.44000000      -0.25000000       0.25000000 </v>
   <v>       0.48000000      -0.25000000       0.25000000 </v>
   <v>      -0.48000000      -0.25000000       0.25000000 </v>
   <v>      -0.44000000      -0.25000000       0.25000000 </v>
   <v>      -0.40000000      -0.25000000       0.25000000 </v>
   <v>      -0.36000000      -0.25000000       0.25000000 </v>
   <v>      -0.32000000      -0.25000000       0.25000000 </v>
   <v>      -0.28000000      -0.25000000       0.25000000 </v>
   <v>      -0.24000000      -0.25000000       0.25000000 </v>
   <v>      -0.20000000      -0.25000000       0.25000000 </v>
   <v>      -0.16000000      -0.25000000       0.25000000 </v>
   <v>      -0.12000000      -0.25000000       0.25000000 </v>
   <v>      -0.08000000      -0.25000000       0.25000000 </v>
   <v>      -0.04000000      -0.25000000       0.25000000 </v>
   <v>       0.00000000      -0.16666667       0.25000000 </v>
   <v>       0.04000000      -0.16666667       0.25000000 </v>
   <v>       0.08000000      -0.16666667       0.25000000 </v>
   <v>       0.12000000      -0.16666667       0.25000000 </v>
   <v>       0.16000000      -0.16666667       0.25000000 </v>
   <v>       0.20000000      -0.16666667       0.25000000 </v>
   <v>       0.24000000      -0.16666667       0.25000000 </v>
   <v>       0.28000000      -0.16666667       0.25000000 </v>
   <v>       0.32000000      -0.16666667       0.25000000 </v>
   <v>       0.36000000      -0.16666667       0.25000000 </v>
   <v>       0.40000000      -0.16666667       0.25000000 </v>
   <v>       0.44000000      -0.16666667       0.25000000 </v>
   <v>       0.48000000      -0.16666667       0.25000000 </v>
   <v>      -0.48000000      -0.16666667       0.25000000 </v>
   <v>      -0.44000000      -0.16666667       0.25000000 </v>
   <v>      -0.40000000      -0.16666667       0.25000000 </v>
   <v>      -0.36000000      -0.16666667       0.25000000 </v>
   <v>      -0.32000000      -0.16666667       0.25000000 </v>
   <v>      -0.28000000      -0.16666667       0.25000000 </v>
   <v>      -0.24000000      -0.16666667       0.25000000 </v>
   <v>      -0.20000000      -0.16666667       0.25000000 </v>
   <v>      -0.16000000      -0.16666667       0.25000000 </v>
   <v>      -0.12000000      -0.16666667       0.25000000 </v>
   <v>      -0.08000000      -0.16666667       0.25000000 </v>
   <v>      -0.04000000      -0.16666667       0.25000000 </v>
   <v>       0.00000000      -0.08333333       0.25000000 </v>
   <v>       0.04000000      -0.08333333       0.25000000 </v>
   <v>       0.08000000      -0.08333333       0.25000000 </v>
   <v>       0.12000000      -0.08333333       0.25000000 </v>
   <v>       0.16000000      -0.08333333       0.25000000 </v>
   <v>       0.20000000      -0.08333333       0.25000000 </v>
   <v>       0.24000000      -0.08333333       0.25000000 </v>
   <v>       0.28000000      -0.08333333       0.25000000 </v>
   <v>       0.32000000      -0.08333333       0.25000000 </v>
   <v>       0.36000000      -0.08333333       0.25000000 </v>
   <v>       0.40000000      -0.08333333       0.25000000 </v>
   <v>       0.44000000      -0.08333333       0.25000000 </v>
   <v>       0.48000000      -0.08333333       0.25000000 </v>
   <v>      -0.48000000      -0.08333333       0.25000000 </v>
   <v>      -0.44000000      -0.08333333       0.25000000 </v>
   <v>      -0.40000000      -0.08333333       0.25000000 </v>
   <v>      -0.36000000      -0.08333333       0.25000000 </v>
   <v>      -0.32000000      -0.08333333       0.25000000 </v>
   <v>      -0.28000000      -0.08333333       0.25000000 </v>
   <v>      -0.24000000      -0.08333333       0.25000000 </v>
   <v>      -0.20000000      -0.08333333       0.25000000 </v>
   <v>      -0.16000000      -0.08333333       0.25000000 </v>
   <v>      -0.12000000      -0.08333333       0.25000000 </v>
   <v>      -0.08000000      -0.08333333       0.25000000 </v>
   <v>      -0.04000000      -0.08333333       0.25000000 </v>
   <v>       0.00000000       0.00000000       0.33333333 </v>
   <v>       0.04000000       0.00000000       0.33333333 </v>
   <v>       0.08000000       0.00000000       0.33333333 </v>
   <v>       0.12000000       0.00000000       0.33333333 </v>
   <v>       0.16000000       0.00000000       0.33333333 </v>
   <v>       0.20000000       0.00000000       0.33333333 </v>
   <v>       0.24000000       0.00000000       0.33333333 </v>
   <v>       0.28000000       0.00000000       0.33333333 </v>
   <v>       0.32000000       0.00000000       0.33333333 </v>
   <v>       0.36000000       0.00000000       0.33333333 </v>
   <v>       0.40000000       0.00000000       0.33333333 </v>
   <v>       0.44000000       0.00000000       0.33333333 </v>
   <v>       0.48000000       0.00000000       0.33333333 </v>
   <v>      -0.48000000       0.00000000       0.33333333 </v>
   <v>      -0.44000000       0.00000000       0.33333333 </v>
   <v>      -0.40000000       0.00000000       0.33333333 </v>
   <v>      -0.36000000       0.00000000       0.33333333 </v>
   <v>      -0.32000000       0.00000000       0.33333333 </v>
   <v>      -0.28000000       0.00000000       0.33333333 </v>
   <v>      -0.24000000       0.00000000       0.33333333 </v>
   <v>      -0.20000000       0.00000000       0.33333333 </v>
   <v>      -0.16000000       0.00000000       0.33333333 </v>
   <v>      -0.12000000       0.00000000       0.33333333 </v>
   <v>      -0.08000000       0.00000000       0.33333333 </v>
   <v>      -0.04000000       0.00000000       0.33333333 </v>
   <v>       0.00000000       0.08333333       0.33333333 </v>
   <v>       0.04000000       0.08333333       0.33333333 </v>
   <v>       0.08000000       0.08333333       0.33333333 </v>
   <v>       0.12000000       0.08333333       0.33333333 </v>
   <v>       0.16000000       0.08333333       0.33333333 </v>
   <v>       0.20000000       0.08333333       0.33333333 </v>
   <v>       0.24000000       0.08333333       0.33333333 </v>
   <v>       0.28000000       0.08333333       0.33333333 </v>
   <v>       0.32000000       0.08333333       0.33333333 </v>
   <v>       0.36000000       0.08333333       0.33333333 </v>
   <v>       0.40000000       0.08333333       0.33333333 </v>
   <v>       0.44000000       0.08333333       0.33333333 </v>
   <v>       0.48000000       0.08333333       0.33333333 </v>
   <v>      -0.48000000       0.08333333       0.33333333 </v>
   <v>      -0.44000000       0.08333333       0.33333333 </v>
   <v>      -0.40000000       0.08333333       0.33333333 </v>
   <v>      -0.36000000       0.08333333       0.33333333 </v>
   <v>      -0.32000000       0.08333333       0.33333333 </v>
   <v>      -0.28000000       0.08333333       0.33333333 </v>
   <v>      -0.24000000       0.08333333       0.33333333 </v>
   <v>      -0.20000000       0.08333333       0.33333333 </v>
   <v>      -0.16000000       0.08333333       0.33333333 </v>
   <v>      -0.12000000       0.08333333       0.33333333 </v>
   <v>      -0.08000000       0.08333333       0.33333333 </v>
   <v>      -0.04000000       0.08333333       0.33333333 </v>
   <v>       0.00000000       0.16666667       0.33333333 </v>
   <v>       0.04000000       0.16666667       0.33333333 </v>
   <v>       0.08000000       0.16666667       0.33333333 </v>
   <v>       0.12000000       0.16666667       0.33333333 </v>
   <v>       0.16000000       0.16666667       0.33333333 </v>
   <v>       0.20000000       0.16666667       0.33333333 </v>
   <v>       0.24000000       0.16666667       0.33333333 </v>
   <v>       0.28000000       0.16666667       0.33333333 </v>
   <v>       0.32000000       0.16666667       0.33333333 </v>
   <v>       0.36000000       0.16666667       0.33333333 </v>
   <v>       0.40000000       0.16666667       0.33333333 </v>
   <v>       0.44000000       0.16666667       0.33333333 </v>
   <v>       0.48000000       0.16666667       0.33333333 </v>
   <v>      -0.48000000       0.16666667       0.33333333 </v>
   <v>      -0.44000000       0.16666667       0.33333333 </v>
   <v>      -0.40000000       0.16666667       0.33333333 </v>
   <v>      -0.36000000       0.16666667       0.33333333 </v>
   <v>      -0.32000000       0.16666667       0.33333333 </v>
   <v>      -0.28000000       0.16666667       0.33333333 </v>
   <v>      -0.24000000       0.16666667       0.33333333 </v>
   <v>      -0.20000000       0.16666667       0.33333333 </v>
   <v>      -0.16000000       0.16666667       0.33333333 </v>
   <v>      -0.12000000       0.16666667       0.33333333 </v>
   <v>      -0.08000000       0.16666667       0.33333333 </v>
   <v>      -0.04000000       0.16666667       0.33333333 </v>
   <v>       0.00000000       0.25000000       0.33333333 </v>
   <v>       0.04000000       0.25000000       0.33333333 </v>
   <v>       0.08000000       0.25000000       0.33333333 </v>
   <v>       0.12000000       0.25000000       0.33333333 </v>
   <v>       0.16000000       0.25000000       0.33333333 </v>
   <v>       0.20000000       0.25000000       0.33333333 </v>
   <v>       0.24000000       0.25000000       0.33333333 </v>
   <v>       0.28000000       0.25000000       0.33333333 </v>
   <v>       0.32000000       0.25000000       0.33333333 </v>
   <v>       0.36000000       0.25000000       0.33333333 </v>
   <v>       0.40000000       0.25000000       0.33333333 </v>
   <v>       0.44000000       0.25000000       0.33333333 </v>
   <v>       0.48000000       0.25000000       0.33333333 </v>
   <v>      -0.48000000       0.25000000       0.33333333 </v>
   <v>      -0.44000000       0.25000000       0.33333333 </v>
   <v>      -0.40000000       0.25000000       0.33333333 </v>
   <v>      -0.36000000       0.25000000       0.33333333 </v>
   <v>      -0.32000000       0.25000000       0.33333333 </v>
   <v>      -0.28000000       0.25000000       0.33333333 </v>
   <v>      -0.24000000       0.25000000       0.33333333 </v>
   <v>      -0.20000000       0.25000000       0.33333333 </v>
   <v>      -0.16000000       0.25000000       0.33333333 </v>
   <v>      -0.12000000       0.25000000       0.33333333 </v>
   <v>      -0.08000000       0.25000000       0.33333333 </v>
   <v>      -0.04000000       0.25000000       0.33333333 </v>
   <v>       0.00000000       0.33333333       0.33333333 </v>
   <v>       0.04000000       0.33333333       0.33333333 </v>
   <v>       0.08000000       0.33333333       0.33333333 </v>
   <v>       0.12000000       0.33333333       0.33333333 </v>
   <v>       0.16000000       0.33333333       0.33333333 </v>
   <v>       0.20000000       0.33333333       0.33333333 </v>
   <v>       0.24000000       0.33333333       0.33333333 </v>
   <v>       0.28000000       0.33333333       0.33333333 </v>
   <v>       0.32000000       0.33333333       0.33333333 </v>
   <v>       0.36000000       0.33333333       0.33333333 </v>
   <v>       0.40000000       0.33333333       0.33333333 </v>
   <v>       0.44000000       0.33333333       0.33333333 </v>
   <v>       0.48000000       0.33333333       0.33333333 </v>
   <v>      -0.48000000       0.33333333       0.33333333 </v>
   <v>      -0.44000000       0.33333333       0.33333333 </v>
   <v>      -0.40000000       0.33333333       0.33333333 </v>
   <v>      -0.36000000       0.33333333       0.33333333 </v>
   <v>      -0.32000000       0.33333333       0.33333333 </v>
   <v>      -0.28000000       0.33333333       0.33333333 </v>
   <v>      -0.24000000       0.33333333       0.33333333 </v>
   <v>      -0.20000000       0.33333333       0.33333333 </v>
   <v>      -0.16000000       0.33333333       0.33333333 </v>
   <v>      -0.12000000       0.33333333       0.33333333 </v>
   <v>      -0.08000000       0.33333333       0.33333333 </v>
   <v>      -0.04000000       0.33333333       0.33333333 </v>
   <v>       0.00000000       0.41666667       0.33333333 </v>
   <v>       0.04000000       0.41666667       0.33333333 </v>
   <v>       0.08000000       0.41666667       0.33333333 </v>
   <v>       0.12000000       0.41666667       0.33333333 </v>
   <v>       0.16000000       0.41666667       0.33333333 </v>
   <v>       0.20000000       0.41666667       0.33333333 </v>
   <v>       0.24000000       0.41666667       0.33333333 </v>
   <v>       0.28000000       0.41666667       0.33333333 </v>
   <v>       0.32000000       0.41666667       0.33333333 </v>
   <v>       0.36000000       0.41666667       0.33333333 </v>
   <v>       0.40000000       0.41666667       0.33333333 </v>
   <v>       0.44000000       0.41666667       0.33333333 </v>
   <v>       0.48000000       0.41666667       0.33333333 </v>
   <v>      -0.48000000       0.41666667       0.33333333 </v>
   <v>      -0.44000000       0.41666667       0.33333333 </v>
   <v>      -0.40000000       0.41666667       0.33333333 </v>
   <v>      -0.36000000       0.41666667       0.33333333 </v>
   <v>      -0.32000000       0.41666667       0.33333333 </v>
   <v>      -0.28000000       0.41666667       0.33333333 </v>
   <v>      -0.24000000       0.41666667       0.33333333 </v>
   <v>      -0.20000000       0.41666667       0.33333333 </v>
   <v>      -0.16000000       0.41666667       0.33333333 </v>
   <v>      -0.12000000       0.41666667       0.33333333 </v>
   <v>      -0.08000000       0.41666667       0.33333333 </v>
   <v>      -0.04000000       0.41666667       0.33333333 </v>
   <v>       0.00000000       0.50000000       0.33333333 </v>
   <v>       0.04000000       0.50000000       0.33333333 </v>
   <v>       0.08000000       0.50000000       0.33333333 </v>
   <v>       0.12000000       0.50000000       0.33333333 </v>
   <v>       0.16000000       0.50000000       0.33333333 </v>
   <v>       0.20000000       0.50000000       0.33333333 </v>
   <v>       0.24000000       0.50000000       0.33333333 </v>
   <v>       0.28000000       0.50000000       0.33333333 </v>
   <v>       0.32000000       0.50000000       0.33333333 </v>
   <v>       0.36000000       0.50000000       0.33333333 </v>
   <v>       0.40000000       0.50000000       0.33333333 </v>
   <v>       0.44000000       0.50000000       0.33333333 </v>
   <v>       0.48000000       0.50000000       0.33333333 </v>
   <v>      -0.48000000       0.50000000       0.33333333 </v>
   <v>      -0.44000000       0.50000000       0.33333333 </v>
   <v>      -0.40000000       0.50000000       0.33333333 </v>
   <v>      -0.36000000       0.50000000       0.33333333 </v>
   <v>      -0.32000000       0.50000000       0.33333333 </v>
   <v>      -0.28000000       0.50000000       0.33333333 </v>
   <v>      -0.24000000       0.50000000       0.33333333 </v>
   <v>      -0.20000000       0.50000000       0.33333333 </v>
   <v>      -0.16000000       0.50000000       0.33333333 </v>
   <v>      -0.12000000       0.50000000       0.33333333 </v>
   <v>      -0.08000000       0.50000000       0.33333333 </v>
   <v>      -0.04000000       0.50000000       0.33333333 </v>
   <v>       0.00000000      -0.41666667       0.33333333 </v>
   <v>       0.04000000      -0.41666667       0.33333333 </v>
   <v>       0.08000000      -0.41666667       0.33333333 </v>
   <v>       0.12000000      -0.41666667       0.33333333 </v>
   <v>       0.16000000      -0.41666667       0.33333333 </v>
   <v>       0.20000000      -0.41666667       0.33333333 </v>
   <v>       0.24000000      -0.41666667       0.33333333 </v>
   <v>       0.28000000      -0.41666667       0.33333333 </v>
   <v>       0.32000000      -0.41666667       0.33333333 </v>
   <v>       0.36000000      -0.41666667       0.33333333 </v>
   <v>       0.40000000      -0.41666667       0.33333333 </v>
   <v>       0.44000000      -0.41666667       0.33333333 </v>
   <v>       0.48000000      -0.41666667       0.33333333 </v>
   <v>      -0.48000000      -0.41666667       0.33333333 </v>
   <v>      -0.44000000      -0.41666667       0.33333333 </v>
   <v>      -0.40000000      -0.41666667       0.33333333 </v>
[...]
       <r>    5.1242    1.0000 </r>
       <r>    5.4289    1.0000 </r>
       <r>    5.7356    1.0000 </r>
       <r>    5.8090    1.0000 </r>
       <r>    5.9495    1.0000 </r>
       <r>    6.0296    1.0000 </r>
       <r>    6.2574    1.0000 </r>
       <r>    6.2822    1.0000 </r>
       <r>    6.3724    1.0000 </r>
       <r>    6.7961    1.0000 </r>
       <r>    7.6136    1.0091 </r>
       <r>    8.2946    0.2496 </r>
       <r>    9.8841    0.0000 </r>
       <r>   10.4949    0.0000 </r>
       <r>   11.1510    0.0000 </r>
       <r>   12.4901    0.0000 </r>
       <r>   12.8440    0.0000 </r>
       <r>   14.6504    0.0000 </r>
       <r>   15.2112    0.0000 </r>
      </set>
      <set comment="kpoint 1801">
       <r>    2.0478    1.0000 </r>
       <r>    2.1222    1.0000 </r>
       <r>    2.1973    1.0000 </r>
       <r>    2.4676    1.0000 </r>
       <r>    2.5164    1.0000 </r>
       <r>    2.6358    1.0000 </r>
       <r>    2.6880    1.0000 </r>
       <r>    2.8536    1.0000 </r>
       <r>    2.9953    1.0000 </r>
       <r>    2.9982    1.0000 </r>
       <r>    3.6863    1.0000 </r>
       <r>    3.7323    1.0000 </r>
       <r>    3.9145    1.0000 </r>
       <r>    3.9945    1.0000 </r>
       <r>    4.0390    1.0000 </r>
       <r>    4.1475    1.0000 </r>
       <r>    4.2131    1.0000 </r>
       <r>    4.4651    1.0000 </r>
       <r>    4.6317    1.0000 </r>
       <r>    4.6562    1.0000 </r>
       <r>    4.8350    1.0000 </r>
       <r>    5.2062    1.0000 </r>
       <r>    5.5456    1.0000 </r>
       <r>    5.8462    1.0000 </r>
       <r>    5.9641    1.0000 </r>
       <r>    5.9955    1.0000 </r>
       <r>    6.0400    1.0000 </r>
       <r>    6.2135    1.0000 </r>
       <r>    6.3010    1.0000 </r>
       <r>    6.5177    1.0000 </r>
       <r>    7.3145    1.0001 </r>
       <r>    8.1153    0.7311 </r>
       <r>    8.9603   -0.0010 </r>
       <r>    9.6172    0.0000 </r>
       <r>   10.2877    0.0000 </r>
       <r>   10.5719    0.0000 </r>
       <r>   11.8804    0.0000 </r>
       <r>   12.7669    0.0000 </r>
       <r>   13.7490    0.0000 </r>
       <r>   14.9263    0.0000 </r>
      </set>
      <set comment="kpoint 1802">
       <r>    2.0444    1.0000 </r>
       <r>    2.0975    1.0000 </r>
       <r>    2.1660    1.0000 </r>
       <r>    2.4460    1.0000 </r>
       <r>    2.4867    1.0000 </r>
       <r>    2.6105    1.0000 </r>
       <r>    2.6714    1.0000 </r>
       <r>    2.8423    1.0000 </r>
       <r>    2.9687    1.0000 </r>
       <r>    2.9777    1.0000 </r>
       <r>    3.7124    1.0000 </r>
       <r>    3.8100    1.0000 </r>
       <r>    3.9704    1.0000 </r>
       <r>    4.0194    1.0000 </r>
       <r>    4.0668    1.0000 </r>
       <r>    4.1424    1.0000 </r>
       <r>    4.2619    1.0000 </r>
       <r>    4.4849    1.0000 </r>
       <r>    4.6215    1.0000 </r>
       <r>    4.6390    1.0000 </r>
       <r>    4.8483    1.0000 </r>
       <r>    5.2542    1.0000 </r>
       <r>    5.5993    1.0000 </r>
       <r>    5.8925    1.0000 </r>
       <r>    6.0034    1.0000 </r>
       <r>    6.0443    1.0000 </r>
       <r>    6.0900    1.0000 </r>
       <r>    6.1582    1.0000 </r>
       <r>    6.3140    1.0000 </r>
       <r>    6.5712    1.0000 </r>
       <r>    7.9690    0.9829 </r>
       <r>    8.7282   -0.0161 </r>
       <r>    8.8497   -0.0046 </r>
       <r>    9.4791    0.0000 </r>
       <r>    9.7102    0.0000 </r>
       <r>   10.6525    0.0000 </r>
       <r>   11.6540    0.0000 </r>
       <r>   12.3804    0.0000 </r>
       <r>   13.6563    0.0000 </r>
       <r>   14.2916    0.0000 </r>
      </set>
     </set>
    </set>
   </array>
  </eigenvalues>
  <separator name="orbital magnetization" >
   <v name="MAGDIPOLOUT">      0.00000000      0.00000000      0.00000000</v>
  </separator>
  <dos>
   <i name="efermi">      8.20100285 </i>
   <total>
    <array>
     <dimension dim="1">gridpoints</dimension>
     <dimension dim="2">spin</dimension>
     <field>energy</field>
     <field>total</field>
     <field>integrated</field>
     <set>
      <set comment="spin 1">
       <r>    -3.5979     0.0000     0.0000 </r>
       <r>    -3.5189     0.0000     0.0000 </r>
       <r>    -3.4399     0.0000     0.0000 </r>
       <r>    -3.3608     0.0000     0.0000 </r>
       <r>    -3.2818     0.0000     0.0000 </r>
       <r>    -3.2028     0.0000     0.0000 </r>
       <r>    -3.1238     0.0000     0.0000 </r>
       <r>    -3.0447     0.0000     0.0000 </r>
       <r>    -2.9657     0.0000     0.0000 </r>
       <r>    -2.8867     0.0000     0.0000 </r>
       <r>    -2.8076     0.0000     0.0000 </r>
       <r>    -2.7286     0.0000     0.0000 </r>
       <r>    -2.6496     0.0000     0.0000 </r>
       <r>    -2.5705     0.0000     0.0000 </r>
       <r>    -2.4915     0.0000     0.0000 </r>
       <r>    -2.4125     0.0000     0.0000 </r>
       <r>    -2.3335     0.0000     0.0000 </r>
       <r>    -2.2544     0.0000     0.0000 </r>
       <r>    -2.1754     0.0000     0.0000 </r>
       <r>    -2.0964     0.0000     0.0000 </r>
       <r>    -2.0173     0.0000     0.0000 </r>
       <r>    -1.9383     0.0000     0.0000 </r>
       <r>    -1.8593     0.0000     0.0000 </r>
       <r>    -1.7802     0.0000     0.0000 </r>
       <r>    -1.7012     0.0000     0.0000 </r>
       <r>    -1.6222     0.0000     0.0000 </r>
       <r>    -1.5432     0.0000     0.0000 </r>
       <r>    -1.4641     0.0000     0.0000 </r>
       <r>    -1.3851     0.0000     0.0000 </r>
       <r>    -1.3061    -0.0002     0.0000 </r>
       <r>    -1.2270    -0.0005    -0.0001 </r>
       <r>    -1.1480    -0.0013    -0.0002 </r>
       <r>    -1.0690    -0.0029    -0.0004 </r>
       <r>    -0.9900    -0.0055    -0.0008 </r>
       <r>    -0.9109    -0.0081    -0.0015 </r>
       <r>    -0.8319    -0.0080    -0.0021 </r>
       <r>    -0.7529    -0.0005    -0.0021 </r>
       <r>    -0.6738     0.0197    -0.0006 </r>
       <r>    -0.5948     0.0562     0.0039 </r>
       <r>    -0.5158     0.1078     0.0124 </r>
       <r>    -0.4367     0.1691     0.0257 </r>
       <r>    -0.3577     0.2324     0.0441 </r>
       <r>    -0.2787     0.2918     0.0672 </r>
       <r>    -0.1997     0.3452     0.0944 </r>
       <r>    -0.1206     0.3939     0.1256 </r>
       <r>    -0.0416     0.4415     0.1605 </r>
       <r>     0.0374     0.4914     0.1993 </r>
       <r>     0.1165     0.5453     0.2424 </r>
       <r>     0.1955     0.6018     0.2900 </r>
       <r>     0.2745     0.6558     0.3418 </r>
       <r>     0.3535     0.7005     0.3972 </r>
       <r>     0.4326     0.7307     0.4549 </r>
       <r>     0.5116     0.7461     0.5139 </r>
       <r>     0.5906     0.7510     0.5732 </r>
       <r>     0.6697     0.7525     0.6327 </r>
       <r>     0.7487     0.7577     0.6926 </r>
       <r>     0.8277     0.7739     0.7537 </r>
       <r>     0.9068     0.8076     0.8176 </r>
       <r>     0.9858     0.8623     0.8857 </r>
       <r>     1.0648     0.9350     0.9596 </r>
       <r>     1.1438     1.0185     1.0401 </r>
       <r>     1.2229     1.1123     1.1280 </r>
       <r>     1.3019     1.2374     1.2258 </r>
       <r>     1.3809     1.4453     1.3400 </r>
       <r>     1.4600     1.8049     1.4827 </r>
       <r>     1.5390     2.3653     1.6696 </r>
       <r>     1.6180     3.1161     1.9158 </r>
       <r>     1.6971     3.9840     2.2307 </r>
       <r>     1.7761     4.8809     2.6164 </r>
       <r>     1.8551     5.7649     3.0720 </r>
       <r>     1.9341     6.6565     3.5981 </r>
       <r>     2.0132     7.5956     4.1984 </r>
       <r>     2.0922     8.5870     4.8770 </r>
       <r>     2.1712     9.5927     5.6351 </r>
       <r>     2.2503    10.5646     6.4700 </r>
       <r>     2.3293    11.4672     7.3763 </r>
       <r>     2.4083    12.2594     8.3451 </r>
       <r>     2.4873    12.8660     9.3619 </r>
       <r>     2.5664    13.1900    10.4043 </r>
       <r>     2.6454    13.1735    11.4454 </r>
       <r>     2.7244    12.8559    12.4614 </r>
       <r>     2.8035    12.3732    13.4393 </r>
       <r>     2.8825    11.8945    14.3793 </r>
       <r>     2.9615    11.5424    15.2915 </r>
       <r>     3.0406    11.3541    16.1888 </r>
       <r>     3.1196    11.3049    17.0822 </r>
       <r>     3.1986    11.3706    17.9808 </r>
       <r>     3.2776    11.5710    18.8953 </r>
       <r>     3.3567    11.9509    19.8397 </r>
       <r>     3.4357    12.5107    20.8285 </r>
       <r>     3.5147    13.1691    21.8692 </r>
       <r>     3.5938    13.8115    22.9607 </r>
       <r>     3.6728    14.3807    24.0972 </r>
       <r>     3.7518    14.9056    25.2752 </r>
       <r>     3.8309    15.4306    26.4947 </r>
       <r>     3.9099    15.9225    27.7530 </r>
       <r>     3.9889    16.2524    29.0375 </r>
       <r>     4.0679    16.2643    30.3228 </r>
       <r>     4.1470    15.8743    31.5774 </r>
       <r>     4.2260    15.1344    32.7734 </r>
       <r>     4.3050    14.2308    33.8981 </r>
       <r>     4.3841    13.4119    34.9580 </r>
       <r>     4.4631    12.8779    35.9758 </r>
       <r>     4.5421    12.6984    36.9793 </r>
       <r>     4.6211    12.8072    37.9914 </r>
       <r>     4.7002    13.0644    39.0239 </r>
       <r>     4.7792    13.3256    40.0770 </r>
       <r>     4.8582    13.4783    41.1422 </r>
       <r>     4.9373    13.4530    42.2054 </r>
       <r>     5.0163    13.2332    43.2512 </r>
       <r>     5.0953    12.8586    44.2674 </r>
       <r>     5.1744    12.4001    45.2474 </r>
       <r>     5.2534    11.9166    46.1892 </r>
       <r>     5.3324    11.4331    47.0927 </r>
       <r>     5.4114    10.9559    47.9586 </r>
       <r>     5.4905    10.5007    48.7884 </r>
       <r>     5.5695    10.0996    49.5866 </r>
       <r>     5.6485     9.7959    50.3608 </r>
       <r>     5.7276     9.6555    51.1238 </r>
       <r>     5.8066     9.7949    51.8979 </r>
       <r>     5.8856    10.3786    52.7182 </r>
       <r>     5.9647    11.5461    53.6306 </r>
       <r>     6.0437    13.2792    54.6801 </r>
       <r>     6.1227    15.2874    55.8882 </r>
       <r>     6.2017    17.0074    57.2323 </r>
       <r>     6.2808    17.7708    58.6368 </r>
       <r>     6.3598    17.0979    59.9880 </r>
       <r>     6.4388    14.9599    61.1703 </r>
       <r>     6.5179    11.8293    62.1051 </r>
       <r>     6.5969     8.4605    62.7738 </r>
       <r>     6.6759     5.5457    63.2120 </r>
       <r>     6.7549     3.4663    63.4860 </r>
       <r>     6.8340     2.2574    63.6644 </r>
       <r>     6.9130     1.7258    63.8008 </r>
       <r>     6.9920     1.6020    63.9274 </r>
       <r>     7.0711     1.6473    64.0576 </r>
       <r>     7.1501     1.7068    64.1924 </r>
       <r>     7.2291     1.7207    64.3284 </r>
       <r>     7.3082     1.7020    64.4629 </r>
       <r>     7.3872     1.6907    64.5966 </r>
       <r>     7.4662     1.7108    64.7318 </r>
       <r>     7.5452     1.7534    64.8703 </r>
       <r>     7.6243     1.7894    65.0117 </r>
       <r>     7.7033     1.7943    65.1535 </r>
       <r>     7.7823     1.7643    65.2930 </r>
       <r>     7.8614     1.7159    65.4286 </r>
       <r>     7.9404     1.6751    65.5610 </r>
       <r>     8.0194     1.6613    65.6923 </r>
       <r>     8.0985     1.6768    65.8248 </r>
       <r>     8.1775     1.7053    65.9595 </r>
       <r>     8.2565     1.7235    66.0957 </r>
       <r>     8.3355     1.7169    66.2314 </r>
       <r>     8.4146     1.6886    66.3649 </r>
       <r>     8.4936     1.6546    66.4956 </r>
       <r>     8.5726     1.6315    66.6246 </r>
       <r>     8.6517     1.6270    66.7531 </r>
       <r>     8.7307     1.6377    66.8826 </r>
       <r>     8.8097     1.6536    67.0133 </r>
       <r>     8.8887     1.6635    67.1447 </r>
       <r>     8.9678     1.6613    67.2760 </r>
       <r>     9.0468     1.6494    67.4064 </r>
       <r>     9.1258     1.6374    67.5358 </r>
       <r>     9.2049     1.6344    67.6649 </r>
       <r>     9.2839     1.6423    67.7947 </r>
       <r>     9.3629     1.6542    67.9255 </r>
       <r>     9.4420     1.6612    68.0567 </r>
       <r>     9.5210     1.6590    68.1879 </r>
       <r>     9.6000     1.6489    68.3182 </r>
       <r>     9.6790     1.6331    68.4472 </r>
       <r>     9.7581     1.6120    68.5746 </r>
       <r>     9.8371     1.5866    68.7000 </r>
       <r>     9.9161     1.5628    68.8235 </r>
       <r>     9.9952     1.5489    68.9459 </r>
       <r>    10.0742     1.5484    69.0683 </r>
       <r>    10.1532     1.5550    69.1912 </r>
       <r>    10.2323     1.5567    69.3142 </r>
       <r>    10.3113     1.5445    69.4363 </r>
       <r>    10.3903     1.5174    69.5562 </r>
       <r>    10.4693     1.4805    69.6732 </r>
       <r>    10.5484     1.4416    69.7871 </r>
       <r>    10.6274     1.4079    69.8984 </r>
       <r>    10.7064     1.3860    70.0079 </r>
       <r>    10.7855     1.3799    70.1170 </r>
       <r>    10.8645     1.3887    70.2267 </r>
       <r>    10.9435     1.4070    70.3379 </r>
       <r>    11.0225     1.4298    70.4509 </r>
       <r>    11.1016     1.4590    70.5662 </r>
       <r>    11.1806     1.5055    70.6852 </r>
       <r>    11.2596     1.5809    70.8102 </r>
       <r>    11.3387     1.6862    70.9434 </r>
       <r>    11.4177     1.8061    71.0862 </r>
       <r>    11.4967     1.9172    71.2377 </r>
       <r>    11.5758     2.0014    71.3958 </r>
       <r>    11.6548     2.0540    71.5582 </r>
       <r>    11.7338     2.0790    71.7225 </r>
       <r>    11.8128     2.0804    71.8869 </r>
       <r>    11.8919     2.0586    72.0496 </r>
       <r>    11.9709     2.0164    72.2089 </r>
       <r>    12.0499     1.9650    72.3642 </r>
       <r>    12.1290     1.9211    72.5160 </r>
       <r>    12.2080     1.8966    72.6659 </r>
       <r>    12.2870     1.8884    72.8152 </r>
       <r>    12.3661     1.8794    72.9637 </r>
       <r>    12.4451     1.8528    73.1101 </r>
       <r>    12.5241     1.8060    73.2528 </r>
       <r>    12.6031     1.7532    73.3914 </r>
       <r>    12.6822     1.7161    73.5270 </r>
       <r>    12.7612     1.7095    73.6621 </r>
       <r>    12.8402     1.7340    73.7992 </r>
       <r>    12.9193     1.7775    73.9396 </r>
       <r>    12.9983     1.8210    74.0835 </r>
       <r>    13.0773     1.8468    74.2295 </r>
       <r>    13.1563     1.8462    74.3754 </r>
       <r>    13.2354     1.8247    74.5196 </r>
       <r>    13.3144     1.8003    74.6619 </r>
       <r>    13.3934     1.7942    74.8037 </r>
       <r>    13.4725     1.8193    74.9475 </r>
       <r>    13.5515     1.8722    75.0954 </r>
       <r>    13.6305     1.9357    75.2484 </r>
       <r>    13.7096     1.9872    75.4055 </r>
       <r>    13.7886     2.0091    75.5642 </r>
       <r>    13.8676     1.9956    75.7220 </r>
       <r>    13.9466     1.9560    75.8765 </r>
       <r>    14.0257     1.9124    76.0277 </r>
       <r>    14.1047     1.8904    76.1771 </r>
       <r>    14.1837     1.9056    76.3277 </r>
       <r>    14.2628     1.9545    76.4821 </r>
       <r>    14.3418     2.0168    76.6415 </r>
       <r>    14.4208     2.0661    76.8048 </r>
       <r>    14.4998     2.0816    76.9693 </r>
       <r>    14.5789     2.0547    77.1317 </r>
       <r>    14.6579     1.9908    77.2890 </r>
       <r>    14.7369     1.9044    77.4395 </r>
       <r>    14.8160     1.8128    77.5828 </r>
       <r>    14.8950     1.7301    77.7195 </r>
       <r>    14.9740     1.6654    77.8511 </r>
       <r>    15.0531     1.6228    77.9794 </r>
       <r>    15.1321     1.6004    78.1059 </r>
       <r>    15.2111     1.5889    78.2314 </r>
       <r>    15.2901     1.5735    78.3558 </r>
       <r>    15.3692     1.5403    78.4775 </r>
       <r>    15.4482     1.4840    78.5948 </r>
       <r>    15.5272     1.4099    78.7062 </r>
       <r>    15.6063     1.3287    78.8112 </r>
       <r>    15.6853     1.2499    78.9100 </r>
       <r>    15.7643     1.1792    79.0032 </r>
       <r>    15.8434     1.1220    79.0919 </r>
       <r>    15.9224     1.0840    79.1775 </r>
       <r>    16.0014     1.0675    79.2619 </r>
       <r>    16.0804     1.0669    79.3462 </r>
       <r>    16.1595     1.0708    79.4308 </r>
       <r>    16.2385     1.0709    79.5155 </r>
       <r>    16.3175     1.0657    79.5997 </r>
       <r>    16.3966     1.0519    79.6828 </r>
       <r>    16.4756     1.0146    79.7630 </r>
       <r>    16.5546     0.9299    79.8365 </r>
       <r>    16.6336     0.7835    79.8984 </r>
       <r>    16.7127     0.5886    79.9450 </r>
       <r>    16.7917     0.3833    79.9752 </r>
       <r>    16.8707     0.2098    79.9918 </r>
       <r>    16.9498     0.0921    79.9991 </r>
       <r>    17.0288     0.0290    80.0014 </r>
       <r>    17.1078     0.0035    80.0017 </r>
       <r>    17.1869    -0.0034    80.0014 </r>
       <r>    17.2659    -0.0041    80.0011 </r>
       <r>    17.3449    -0.0037    80.0008 </r>
       <r>    17.4239    -0.0033    80.0005 </r>
       <r>    17.5030    -0.0027    80.0003 </r>
       <r>    17.5820    -0.0018    80.0002 </r>
       <r>    17.6610    -0.0011    80.0001 </r>
       <r>    17.7401    -0.0005    80.0000 </r>
       <r>    17.8191    -0.0002    80.0000 </r>
       <r>    17.8981    -0.0001    80.0000 </r>
       <r>    17.9772     0.0000    80.0000 </r>
       <r>    18.0562     0.0000    80.0000 </r>
       <r>    18.1352     0.0000    80.0000 </r>
       <r>    18.2142     0.0000    80.0000 </r>
       <r>    18.2933     0.0000    80.0000 </r>
       <r>    18.3723     0.0000    80.0000 </r>
       <r>    18.4513     0.0000    80.0000 </r>
       <r>    18.5304     0.0000    80.0000 </r>
       <r>    18.6094     0.0000    80.0000 </r>
       <r>    18.6884     0.0000    80.0000 </r>
       <r>    18.7674     0.0000    80.0000 </r>
       <r>    18.8465     0.0000    80.0000 </r>
       <r>    18.9255     0.0000    80.0000 </r>
       <r>    19.0045     0.0000    80.0000 </r>
       <r>    19.0836     0.0000    80.0000 </r>
       <r>    19.1626     0.0000    80.0000 </r>
       <r>    19.2416     0.0000    80.0000 </r>
       <r>    19.3207     0.0000    80.0000 </r>
       <r>    19.3997     0.0000    80.0000 </r>
       <r>    19.4787     0.0000    80.0000 </r>
       <r>    19.5577     0.0000    80.0000 </r>
       <r>    19.6368     0.0000    80.0000 </r>
       <r>    19.7158     0.0000    80.0000 </r>
       <r>    19.7948     0.0000    80.0000 </r>
       <r>    19.8739     0.0000    80.0000 </r>
       <r>    19.9529     0.0000    80.0000 </r>
       <r>    20.0319     0.0000    80.0000 </r>
       <r>    20.1110     0.0000    80.0000 </r>
      </set>
     </set>
    </array>
   </total>
  </dos>
 </calculation>
 <structure name="finalpos" >
  <crystal>
   <varray name="basis" >
    <v>       0.00000000       2.04747209       2.04747209 </v>
    <v>      -0.04577318      -4.10445940       4.10445940 </v>
    <v>       6.07661404       0.03747901      -2.08495109 </v>
   </varray>
   <i name="volume">    101.93397289 </i>
   <varray name="rec_basis" >
    <v>       0.08244323       0.24374387       0.24466328 </v>
    <v>       0.04263168      -0.12205644       0.12205644 </v>
    <v>       0.16488646      -0.00091941       0.00091941 </v>
   </varray>
  </crystal>
  <varray name="positions" >
   <v>       0.33333333       0.16666667       0.66666667 </v>
   <v>       0.99786153       0.00074335       0.99572306 </v>
   <v>       0.66880514       0.33258998       0.33761027 </v>
   <v>       0.67306645       0.84901079       0.34613291 </v>
   <v>       0.33333333       0.66666667       0.66666667 </v>
   <v>       0.99360021       0.48432254       0.98720043 </v>
  </varray>
 </structure>
</modeling>
