<?xml version="1.0" encoding="ISO-8859-1"?>
<modeling>
 <generator>
  <i name="program" type="string">vasp </i>
  <i name="version" type="string">5.3.5  </i>
  <i name="subversion" type="string">31Mar14 (build Jun 20 2014 13:15:13) complex                          parallel </i>
  <i name="platform" type="string">LinuxIFC </i>
  <i name="date" type="string">2025 12 16 </i>
  <i name="time" type="string">17:20:50 </i>
 </generator>
 <incar>
  <i type="string" name="PREC">accurate</i>
  <i type="int" name="IALGO">    68</i>
  <i type="logical" name="ADDGRID"> T  </i>
  <i type="int" name="NELM">   100</i>
  <i type="int" name="NELMIN">     4</i>
  <i type="int" name="IBRION">     2</i>
  <i name="EDIFF">      0.00000100</i>
  <i name="EDIFFG">     -0.02000000</i>
  <i type="int" name="NSW">    30</i>
  <i type="int" name="ISIF">     3</i>
  <i name="ENCUT">    600.00000000</i>
  <i type="logical" name="LREAL"> F  </i>
  <i type="int" name="ISMEAR">     0</i>
  <i name="SIGMA">      0.10000000</i>
  <i type="logical" name="LWAVE"> F  </i>
  <i type="logical" name="LCHARG"> F  </i>
  <i type="int" name="NELM">   100</i>
 </incar>
 <kpoints>
  <generation param="Auto">
   <i name="subdivisionlength">     20.00000000 </i>
   <v type="int" name="divisions">       1        6        4 </v>
   <v name="usershift">      0.00000000       0.00000000       0.00000000 </v>
   <v name="genvec1">      1.00000000       0.00000000       0.00000000 </v>
   <v name="genvec2">      0.00000000       0.16666667       0.00000000 </v>
   <v name="genvec3">      0.00000000       0.00000000       0.25000000 </v>
   <v name="shift">      0.00000000       0.00000000       0.00000000 </v>
  </generation>
  <varray name="kpointlist" >
   <v>       0.00000000       0.00000000       0.00000000 </v>
   <v>       0.00000000       0.16666667       0.00000000 </v>
   <v>       0.00000000       0.33333333       0.00000000 </v>
   <v>       0.00000000       0.50000000       0.00000000 </v>
   <v>       0.00000000       0.00000000       0.25000000 </v>
   <v>       0.00000000       0.16666667       0.25000000 </v>
   <v>       0.00000000       0.33333333       0.25000000 </v>
   <v>       0.00000000       0.50000000       0.25000000 </v>
   <v>       0.00000000       0.00000000       0.50000000 </v>
   <v>       0.00000000       0.16666667       0.50000000 </v>
   <v>       0.00000000       0.33333333       0.50000000 </v>
   <v>       0.00000000       0.50000000       0.50000000 </v>
  </varray>
  <varray name="weights" >
   <v>       0.04166667 </v>
   <v>       0.08333333 </v>
   <v>       0.08333333 </v>
   <v>       0.04166667 </v>
   <v>       0.08333333 </v>
   <v>       0.16666667 </v>
   <v>       0.16666667 </v>
   <v>       0.08333333 </v>
   <v>       0.04166667 </v>
   <v>       0.08333333 </v>
   <v>       0.08333333 </v>
   <v>       0.04166667 </v>
  </varray>
 </kpoints>
 <parameters>
  <separator name="general" >
   <i type="string" name="SYSTEM">unknown system</i>
   <i type="logical" name="LCOMPAT"> F  </i>
  </separator>
  <separator name="electronic" >
   <i type="string" name="PREC">accura</i>
   <i name="ENMAX">    600.00000000</i>
   <i name="ENAUG">    644.87300000</i>
   <i name="EDIFF">      0.00000100</i>
   <i type="int" name="IALGO">    68</i>
   <i type="int" name="IWAVPR">    11</i>
   <i type="int" name="NBANDS">    84</i>
   <i name="NELECT">    128.00000000</i>
   <i type="int" name="TURBO">     0</i>
   <i type="int" name="IRESTART">     0</i>
   <i type="int" name="NREBOOT">     0</i>
   <i type="int" name="NMIN">     0</i>
   <i name="EREF">      0.00000000</i>
   <separator name="electronic smearing" >
    <i type="int" name="ISMEAR">     0</i>
    <i name="SIGMA">      0.10000000</i>
    <i name="KSPACING">      0.50000000</i>
    <i type="logical" name="KGAMMA"> T  </i>
   </separator>
   <separator name="electronic projectors" >
    <i type="logical" name="LREAL"> F  </i>
    <v name="ROPT">      0.00000000      0.00000000      0.00000000      0.00000000</v>
    <i type="int" name="LMAXPAW">  -100</i>
    <i type="int" name="LMAXMIX">     2</i>
    <i type="logical" name="NLSPLINE"> F  </i>
   </separator>
   <separator name="electronic startup" >
    <i type="int" name="ISTART">     0</i>
    <i type="int" name="ICHARG">     2</i>
    <i type="int" name="INIWAV">     1</i>
   </separator>
   <separator name="electronic spin" >
    <i type="int" name="ISPIN">     1</i>
    <i type="logical" name="LNONCOLLINEAR"> F  </i>
    <v name="MAGMOM">      1.00000000      1.00000000      1.00000000      1.00000000      1.00000000      1.00000000      1.00000000      1.00000000      1.00000000      1.00000000      1.00000000      1.00000000      1.00000000      1.00000000      1.00000000      1.00000000      1.00000000      1.00000000      1.00000000      1.00000000
      1.00000000      1.00000000      1.00000000      1.00000000      1.00000000      1.00000000      1.00000000      1.00000000      1.00000000      1.00000000      1.00000000      1.00000000</v>
    <i name="NUPDOWN">     -1.00000000</i>
    <i type="logical" name="LSORBIT"> F  </i>
    <v name="SAXIS">      0.00000000      0.00000000      1.00000000</v>
    <i type="logical" name="LSPIRAL"> F  </i>
    <v name="QSPIRAL">      0.00000000      0.00000000      0.00000000</v>
    <i type="logical" name="LZEROZ"> F  </i>
   </separator>
   <separator name="electronic exchange-correlation" >
    <i type="logical" name="LASPH"> F  </i>
    <i type="logical" name="LMETAGGA"> F  </i>
   </separator>
   <separator name="electronic convergence" >
    <i type="int" name="NELM">   100</i>
    <i type="int" name="NELMDL">     0</i>
    <i type="int" name="NELMIN">     4</i>
    <i name="ENINI">    600.00000000</i>
    <separator name="electronic convergence detail" >
     <i type="logical" name="LDIAG"> T  </i>
     <i type="logical" name="LSUBROT"> F  </i>
     <i name="WEIMIN">      0.00100000</i>
     <i name="EBREAK">      0.00000000</i>
     <i name="DEPER">      0.30000000</i>
     <i type="int" name="NRMM">     4</i>
     <i name="TIME">      0.40000000</i>
    </separator>
   </separator>
   <separator name="electronic mixer" >
    <i name="AMIX">      0.40000000</i>
    <i name="BMIX">      1.00000000</i>
    <i name="AMIN">      0.10000000</i>
    <i name="AMIX_MAG">      1.60000000</i>
    <i name="BMIX_MAG">      1.00000000</i>
    <separator name="electronic mixer details" >
     <i type="int" name="IMIX">     4</i>
     <i type="int" name="MAXMIX">   -45</i>
     <i name="WC">    100.00000000</i>
     <i type="int" name="INIMIX">     1</i>
     <i type="int" name="MIXPRE">     1</i>
     <i type="int" name="MREMOVE">     5</i>
    </separator>
   </separator>
   <separator name="electronic dipolcorrection" >
    <i type="logical" name="LDIPOL"> F  </i>
    <i type="logical" name="LMONO"> F  </i>
    <i type="int" name="IDIPOL">     0</i>
    <i name="EPSILON">      1.00000000</i>
    <v name="DIPOL">   -100.00000000   -100.00000000   -100.00000000</v>
    <i name="EFIELD">      0.00000000</i>
   </separator>
  </separator>
  <separator name="grids" >
   <i type="int" name="NGX">   168</i>
   <i type="int" name="NGY">    28</i>
   <i type="int" name="NGZ">    48</i>
   <i type="int" name="NGXF">   336</i>
   <i type="int" name="NGYF">    56</i>
   <i type="int" name="NGZF">    96</i>
   <i type="logical" name="ADDGRID"> T  </i>
  </separator>
  <separator name="ionic" >
   <i type="int" name="NSW">    30</i>
   <i type="int" name="IBRION">     2</i>
   <i type="int" name="ISIF">     3</i>
   <i name="PSTRESS">      0.00000000</i>
   <i name="EDIFFG">     -0.02000000</i>
   <i type="int" name="NFREE">     1</i>
   <i name="POTIM">      0.50000000</i>
   <i name="SMASS">     -3.00000000</i>
   <i name="SCALEE">      1.00000000</i>
  </separator>
  <separator name="ionic md" >
   <i name="TEBEG">      0.00010000</i>
   <i name="TEEND">      0.00010000</i>
   <i type="int" name="NBLOCK">     1</i>
   <i type="int" name="KBLOCK">    30</i>
   <i type="int" name="NPACO">   256</i>
   <i name="APACO">     16.00000000</i>
  </separator>
  <separator name="symmetry" >
   <i type="int" name="ISYM">     2</i>
   <i name="SYMPREC">      0.00001000</i>
  </separator>
  <separator name="dos" >
   <i type="logical" name="LORBIT"> F  </i>
   <v name="RWIGS">     -1.00000000     -1.00000000     -1.00000000     -1.00000000</v>
   <i type="int" name="NEDOS">   301</i>
   <i name="EMIN">     10.00000000</i>
   <i name="EMAX">    -10.00000000</i>
   <i name="EFERMI">      0.00000000</i>
  </separator>
  <separator name="writing" >
   <i type="int" name="NWRITE">     2</i>
   <i type="logical" name="LWAVE"> F  </i>
   <i type="logical" name="LCHARG"> F  </i>
   <i type="logical" name="LPARD"> F  </i>
   <i type="logical" name="LVTOT"> F  </i>
   <i type="logical" name="LVHAR"> F  </i>
   <i type="logical" name="LELF"> F  </i>
   <i type="logical" name="LOPTICS"> F  </i>
   <v name="STM">      0.00000000      0.00000000      0.00000000      0.00000000      0.00000000      0.00000000      0.00000000</v>
  </separator>
  <separator name="performance" >
   <i type="int" name="NPAR">     4</i>
   <i type="int" name="NSIM">     4</i>
   <i type="int" name="NBLK">    -1</i>
   <i type="logical" name="LPLANE"> T  </i>
   <i type="logical" name="LSCALAPACK"> T  </i>
   <i type="logical" name="LSCAAWARE"> F  </i>
   <i type="logical" name="LSCALU"> F  </i>
   <i type="logical" name="LASYNC"> F  </i>
   <i type="logical" name="LORBITALREAL"> F  </i>
  </separator>
  <separator name="miscellaneous" >
   <i type="int" name="IDIOT">     3</i>
   <i type="logical" name="LMUSIC"> F  </i>
   <v name="POMASS">     28.08500000     26.98100000     12.01100000     14.00100000</v>
   <v name="DARWINR">      0.00000000      0.00000000      0.00000000      0.00000000</v>
   <v name="DARWINV">      1.00000000      1.00000000      1.00000000      1.00000000</v>
   <i type="logical" name="LCORR"> T  </i>
  </separator>
  <i type="logical" name="GGA_COMPAT"> T  </i>
  <i type="logical" name="LBERRY"> F  </i>
  <i type="int" name="ICORELEVEL">     0</i>
  <i type="logical" name="LDAU"> F  </i>
  <i type="int" name="I_CONSTRAINED_M">     0</i>
  <separator name="electronic exchange-correlation" >
   <i type="string" name="GGA">--</i>
   <i type="int" name="VOSKOWN">     0</i>
   <i type="logical" name="LHFCALC"> F  </i>
   <i type="string" name="PRECFOCK"></i>
   <i type="logical" name="LSYMGRAD"> F  </i>
   <i type="logical" name="LHFONE"> F  </i>
   <i type="logical" name="LRHFCALC"> F  </i>
   <i type="logical" name="LTHOMAS"> F  </i>
   <i type="logical" name="LMODELHF"> F  </i>
   <i name="ENCUT4O">     -1.00000000</i>
   <i type="int" name="EXXOEP">     0</i>
   <i type="int" name="FOURORBIT">     0</i>
   <i name="AEXX">      0.00000000</i>
   <i name="HFALPHA">      0.00000000</i>
   <i name="MCALPHA">      0.00000000</i>
   <i name="ALDAX">      1.00000000</i>
   <i name="AGGAX">      1.00000000</i>
   <i name="ALDAC">      1.00000000</i>
   <i name="AGGAC">      1.00000000</i>
   <i type="int" name="NKREDX">     1</i>
   <i type="int" name="NKREDY">     1</i>
   <i type="int" name="NKREDZ">     1</i>
   <i type="logical" name="SHIFTRED"> F  </i>
   <i type="logical" name="ODDONLY"> F  </i>
   <i type="logical" name="EVENONLY"> F  </i>
   <i type="int" name="LMAXFOCK">     0</i>
   <i type="int" name="NMAXFOCKAE">     0</i>
   <i type="logical" name="LFOCKAEDFT"> F  </i>
   <i name="HFSCREEN">      0.00000000</i>
   <i name="HFSCREENC">      0.00000000</i>
   <i type="int" name="NBANDSGWLOW">     0</i>
  </separator>
  <separator name="vdW DFT" >
   <i type="logical" name="LUSE_VDW"> F  </i>
   <i name="Zab_VDW">     -0.84910000</i>
   <i name="PARAM1">      0.12340000</i>
   <i name="PARAM2">      1.00000000</i>
   <i name="PARAM3">      0.00000000</i>
  </separator>
  <separator name="model GW" >
   <i type="int" name="MODEL_GW">     0</i>
   <i name="MODEL_EPS0">      6.38278900</i>
   <i name="MODEL_ALPHA">      1.00000000</i>
  </separator>
  <separator name="linear response parameters" >
   <i type="logical" name="LEPSILON"> F  </i>
   <i type="logical" name="LRPA"> F  </i>
   <i type="logical" name="LNABLA"> F  </i>
   <i type="logical" name="LVEL"> F  </i>
   <i type="int" name="KINTER">     0</i>
   <i name="CSHIFT">      0.10000000</i>
   <i name="OMEGAMAX">     -1.00000000</i>
   <i name="DEG_THRESHOLD">      0.00200000</i>
  </separator>
  <separator name="orbital magnetization" >
   <i type="logical" name="NUCIND"> F  </i>
   <v name="MAGPOS">      0.00000000      0.00000000      0.00000000</v>
   <i type="logical" name="LNICSALL"> T  </i>
   <i type="logical" name="ORBITALMAG"> F  </i>
   <i type="logical" name="LMAGBLOCH"> F  </i>
   <i type="logical" name="LCHIMAG"> F  </i>
   <i type="logical" name="LGAUGE"> T  </i>
   <i type="int" name="MAGATOM">     0</i>
   <v name="MAGDIPOL">      0.00000000      0.00000000      0.00000000</v>
   <v name="AVECCONST">      0.00000000      0.00000000      0.00000000</v>
  </separator>
  <separator name="response functions" >
   <i type="logical" name="LADDER"> F  </i>
   <i type="logical" name="LFXC"> F  </i>
   <i type="logical" name="LHARTREE"> T  </i>
   <i type="int" name="IBSE">     0</i>
   <i type="logical" name="LTCTE"> F  </i>
   <i type="logical" name="LTETE"> F  </i>
   <i type="logical" name="LTRIPLET"> F  </i>
   <i type="logical" name="LFXCEPS"> F  </i>
   <i type="logical" name="LFXHEG"> F  </i>
   <i type="logical" name="L2ORDER"> F  </i>
   <i type="logical" name="LUSEW"> F  </i>
   <i name="ENCUTGW">     -2.00000000</i>
   <i name="ENCUTGWSOFT">     -2.00000000</i>
   <i name="ENCUTLF">     -1.00000000</i>
   <i type="int" name="LMAXMP2">    -1</i>
   <i name="SCISSOR">      0.00000000</i>
   <i type="int" name="NOMEGA">     0</i>
   <i type="int" name="NOMEGAR">     0</i>
   <i type="int" name="NBANDSGW">    -1</i>
   <i type="int" name="NBANDSO">    -1</i>
   <i type="int" name="NBANDSV">    -1</i>
   <i type="int" name="NELM">   100</i>
   <i type="int" name="DIM">     3</i>
   <i type="int" name="ANTIRES">     0</i>
   <i name="OMEGAMAX">    -30.00000000</i>
   <i name="OMEGAMIN">    -30.00000000</i>
   <i name="OMEGATL">   -200.00000000</i>
   <i type="int" name="OMEGAGRID">     0</i>
   <i name="CSHIFT">     -0.10000000</i>
   <i type="logical" name="SELFENERGY"> F  </i>
   <i type="logical" name="LSPECTRAL"> F  </i>
   <i type="logical" name="ODDONLYGW"> F  </i>
   <i type="logical" name="EVENONLYGW"> F  </i>
   <i type="int" name="NKREDLFX">     1</i>
   <i type="int" name="NKREDLFY">     1</i>
   <i type="int" name="NKREDLFZ">     1</i>
   <i type="int" name="MAXMEM">  1800</i>
   <i type="int" name="TELESCOPE">     0</i>
   <i type="int" name="TAUPAR">     1</i>
  </separator>
  <separator name="External order field" >
   <i name="OFIELD_KAPPA">      0.00000000</i>
   <v name="OFIELD_K">      0.00000000      0.00000000      0.00000000</v>
   <i name="OFIELD_Q6_NEAR">      0.00000000</i>
   <i name="OFIELD_Q6_FAR">      0.00000000</i>
   <i name="OFIELD_A">      0.00000000</i>
  </separator>
 </parameters>
 <atominfo>
  <atoms>      32 </atoms>
  <types>       4 </types>
  <array name="atoms" >
   <dimension dim="1">ion</dimension>
   <field type="string">element</field>
   <field type="int">atomtype</field>
   <set>
    <rc><c>Si</c><c>   1</c></rc>
    <rc><c>Si</c><c>   1</c></rc>
    <rc><c>Si</c><c>   1</c></rc>
    <rc><c>Si</c><c>   1</c></rc>
    <rc><c>Si</c><c>   1</c></rc>
    <rc><c>Si</c><c>   1</c></rc>
    <rc><c>Si</c><c>   1</c></rc>
    <rc><c>Si</c><c>   1</c></rc>
    <rc><c>Si</c><c>   1</c></rc>
    <rc><c>Si</c><c>   1</c></rc>
    <rc><c>Al</c><c>   2</c></rc>
    <rc><c>Al</c><c>   2</c></rc>
    <rc><c>Al</c><c>   2</c></rc>
    <rc><c>Al</c><c>   2</c></rc>
    <rc><c>Al</c><c>   2</c></rc>
    <rc><c>Al</c><c>   2</c></rc>
    <rc><c>C </c><c>   3</c></rc>
    <rc><c>C </c><c>   3</c></rc>
    <rc><c>C </c><c>   3</c></rc>
    <rc><c>C </c><c>   3</c></rc>
    <rc><c>C </c><c>   3</c></rc>
    <rc><c>C </c><c>   3</c></rc>
    <rc><c>C </c><c>   3</c></rc>
    <rc><c>C </c><c>   3</c></rc>
    <rc><c>C </c><c>   3</c></rc>
    <rc><c>C </c><c>   3</c></rc>
    <rc><c>N </c><c>   4</c></rc>
    <rc><c>N </c><c>   4</c></rc>
    <rc><c>N </c><c>   4</c></rc>
    <rc><c>N </c><c>   4</c></rc>
    <rc><c>N </c><c>   4</c></rc>
    <rc><c>N </c><c>   4</c></rc>
   </set>
  </array>
  <array name="atomtypes" >
   <dimension dim="1">type</dimension>
   <field type="int">atomspertype</field>
   <field type="string">element</field>
   <field>mass</field>
   <field>valence</field>
   <field type="string">pseudopotential</field>
   <set>
    <rc><c>  10</c><c>Si</c><c>     28.08500000</c><c>      4.00000000</c><c>  PAW_PBE Si 05Jan2001                  </c></rc>
    <rc><c>   6</c><c>Al</c><c>     26.98100000</c><c>      3.00000000</c><c>  PAW_PBE Al 04Jan2001                  </c></rc>
    <rc><c>  10</c><c>C </c><c>     12.01100000</c><c>      4.00000000</c><c>  PAW_PBE C 08Apr2002                   </c></rc>
    <rc><c>   6</c><c>N </c><c>     14.00100000</c><c>      5.00000000</c><c>  PAW_PBE N_s 07Sep2000                 </c></rc>
   </set>
  </array>
 </atominfo>
 <structure name="initialpos" >
  <crystal>
   <varray name="basis" >
    <v>      20.90726893       0.00000000       0.04740784 </v>
    <v>       0.00000000       3.11371249       0.00000000 </v>
    <v>      -1.41452415       0.00000000       5.22597024 </v>
   </varray>
   <i name="volume">    340.41541324 </i>
   <varray name="rec_basis" >
    <v>       0.04780092       0.00000000       0.01293837 </v>
    <v>       0.00000000       0.32116003       0.00000000 </v>
    <v>      -0.00043363       0.00000000       0.19123466 </v>
   </varray>
  </crystal>
  <varray name="positions" >
   <v>       0.00360558       0.50000000       0.83367385 </v>
   <v>       0.75264634       0.50000000       0.59123829 </v>
   <v>       0.62556408       0.50000000       0.79697790 </v>
   <v>       0.87508228       0.00000000       0.53675055 </v>
   <v>       0.62538378       0.00000000       0.28595351 </v>
   <v>       0.50360558       0.00000000       0.83367385 </v>
   <v>       0.25264634       0.00000000       0.59123829 </v>
   <v>       0.12556408       0.00000000       0.79697790 </v>
   <v>       0.37508228       0.50000000       0.53675055 </v>
   <v>       0.12538378       0.50000000       0.28595351 </v>
   <v>       0.00164765       0.00000000       0.33602355 </v>
   <v>       0.75013583       0.00000000       0.07887783 </v>
   <v>       0.87161015       0.50000000       0.04495598 </v>
   <v>       0.50164765       0.50000000       0.33602355 </v>
   <v>       0.25013583       0.50000000       0.07887783 </v>
   <v>       0.37161015       0.00000000       0.04495598 </v>
   <v>       0.64998154       0.00000000       0.98535312 </v>
   <v>       0.65267044       0.50000000       0.48316577 </v>
   <v>       0.77897737       0.50000000       0.93277710 </v>
   <v>       0.53020329       0.50000000       0.70960111 </v>
   <v>       0.78493784       0.00000000       0.46185749 </v>
   <v>       0.14998154       0.50000000       0.98535312 </v>
   <v>       0.15267044       0.00000000       0.48316577 </v>
   <v>       0.27897737       0.00000000       0.93277710 </v>
   <v>       0.03020329       0.00000000       0.70960111 </v>
   <v>       0.28493784       0.50000000       0.46185749 </v>
   <v>       0.90732838       0.00000000       0.25751504 </v>
   <v>       0.91097121       0.50000000       0.73295935 </v>
   <v>       0.52925424       0.00000000       0.18231956 </v>
   <v>       0.40732838       0.50000000       0.25751504 </v>
   <v>       0.41097121       0.00000000       0.73295935 </v>
   <v>       0.02925424       0.50000000       0.18231956 </v>
  </varray>
 </structure>
 <calculation>
  <scstep>
   <time name="dav">    1.96    1.96</time>
   <time name="total">    2.10    2.11</time>
   <energy>
    <i name="alphaZ">    139.39864644 </i>
    <i name="ewald">  -4518.84056475 </i>
    <i name="hartreedc">   -639.97037620 </i>
    <i name="XCdc">      9.63011125 </i>
    <i name="pawpsdc">   3593.28979614 </i>
    <i name="pawaedc">  -3238.43571855 </i>
    <i name="eentropy">     -0.02270717 </i>
    <i name="bandstr">    883.60033799 </i>
    <i name="atom">   4410.68206660 </i>
    <i name="e_fr_energy">    639.33159176 </i>
    <i name="e_wo_entrp">    639.35429893 </i>
    <i name="e_0_energy">    639.34294535 </i>
   </energy>
  </scstep>
  <scstep>
   <time name="dav">    2.26    2.26</time>
   <time name="total">    2.26    2.27</time>
   <energy>
    <i name="e_fr_energy">   -198.03085848 </i>
    <i name="e_wo_entrp">   -198.03085848 </i>
    <i name="e_0_energy">   -198.03085848 </i>
   </energy>
  </scstep>
  <scstep>
   <time name="dav">    2.26    2.26</time>
   <time name="total">    2.26    2.28</time>
   <energy>
    <i name="e_fr_energy">   -267.37970099 </i>
    <i name="e_wo_entrp">   -267.37970099 </i>
    <i name="e_0_energy">   -267.37970099 </i>
   </energy>
  </scstep>
  <scstep>
   <time name="dav">    2.24    2.24</time>
   <time name="total">    2.24    2.26</time>
   <energy>
    <i name="e_fr_energy">   -269.49535618 </i>
    <i name="e_wo_entrp">   -269.49535618 </i>
    <i name="e_0_energy">   -269.49535618 </i>
   </energy>
  </scstep>
  <scstep>
   <time name="dav">    2.22    2.22</time>
   <time name="total">    2.45    2.46</time>
   <energy>
    <i name="e_fr_energy">   -269.55970674 </i>
    <i name="e_wo_entrp">   -269.55970674 </i>
    <i name="e_0_energy">   -269.55970674 </i>
   </energy>
  </scstep>
  <scstep>
   <time name="diag">    0.28    0.28</time>
   <time name="diis">    1.36    1.36</time>
   <time name="orth">    0.06    0.06</time>
   <time name="total">    2.05    2.07</time>
   <energy>
    <i name="e_fr_energy">   -234.83730079 </i>
    <i name="e_wo_entrp">   -234.83730079 </i>
    <i name="e_0_energy">   -234.83730079 </i>
   </energy>
  </scstep>
  <scstep>
   <time name="diag">    0.28    0.28</time>
   <time name="diis">    1.43    1.43</time>
   <time name="orth">    0.06    0.06</time>
   <time name="total">    2.12    2.14</time>
   <energy>
    <i name="e_fr_energy">   -234.38624195 </i>
    <i name="e_wo_entrp">   -234.38624195 </i>
    <i name="e_0_energy">   -234.38624195 </i>
   </energy>
  </scstep>
  <scstep>
   <time name="diag">    0.28    0.28</time>
   <time name="diis">    1.29    1.30</time>
   <time name="orth">    0.06    0.06</time>
   <time name="total">    1.99    2.00</time>
   <energy>
    <i name="e_fr_energy">   -234.54443342 </i>
    <i name="e_wo_entrp">   -234.54443342 </i>
    <i name="e_0_energy">   -234.54443342 </i>
   </energy>
  </scstep>
  <scstep>
   <time name="diag">    0.28    0.28</time>
   <time name="diis">    1.29    1.29</time>
   <time name="orth">    0.06    0.06</time>
   <time name="total">    1.98    1.99</time>
   <energy>
    <i name="e_fr_energy">   -234.09678603 </i>
    <i name="e_wo_entrp">   -234.09678603 </i>
    <i name="e_0_energy">   -234.09678603 </i>
   </energy>
  </scstep>
  <scstep>
   <time name="diag">    0.28    0.28</time>
   <time name="diis">    1.34    1.34</time>
   <time name="orth">    0.06    0.06</time>
   <time name="total">    2.03    2.04</time>
   <energy>
    <i name="e_fr_energy">   -234.09173810 </i>
    <i name="e_wo_entrp">   -234.09173809 </i>
    <i name="e_0_energy">   -234.09173810 </i>
   </energy>
  </scstep>
  <scstep>
   <time name="diag">    0.28    0.28</time>
   <time name="diis">    1.30    1.30</time>
   <time name="orth">    0.06    0.06</time>
   <time name="total">    1.99    2.01</time>
   <energy>
    <i name="e_fr_energy">   -234.09172023 </i>
    <i name="e_wo_entrp">   -234.09172023 </i>
    <i name="e_0_energy">   -234.09172023 </i>
   </energy>
  </scstep>
  <scstep>
   <time name="diag">    0.28    0.28</time>
   <time name="diis">    1.33    1.33</time>
   <time name="orth">    0.06    0.06</time>
   <time name="total">    2.02    2.03</time>
   <energy>
    <i name="e_fr_energy">   -234.09085327 </i>
    <i name="e_wo_entrp">   -234.09085327 </i>
    <i name="e_0_energy">   -234.09085327 </i>
   </energy>
  </scstep>
  <scstep>
   <time name="diag">    0.28    0.28</time>
   <time name="diis">    1.30    1.30</time>
   <time name="orth">    0.06    0.06</time>
   <time name="total">    1.99    2.01</time>
   <energy>
    <i name="e_fr_energy">   -234.09080464 </i>
    <i name="e_wo_entrp">   -234.09080464 </i>
    <i name="e_0_energy">   -234.09080464 </i>
   </energy>
  </scstep>
  <scstep>
   <time name="diag">    0.28    0.28</time>
   <time name="diis">    1.34    1.34</time>
   <time name="orth">    0.06    0.06</time>
   <time name="total">    2.03    2.04</time>
   <energy>
    <i name="e_fr_energy">   -234.09080328 </i>
    <i name="e_wo_entrp">   -234.09080328 </i>
    <i name="e_0_energy">   -234.09080328 </i>
   </energy>
  </scstep>
  <scstep>
   <time name="diag">    0.28    0.28</time>
   <time name="diis">    1.25    1.25</time>
   <time name="orth">    0.06    0.06</time>
   <time name="total">    1.94    1.95</time>
   <energy>
    <i name="e_fr_energy">   -234.09080775 </i>
    <i name="e_wo_entrp">   -234.09080775 </i>
    <i name="e_0_energy">   -234.09080775 </i>
   </energy>
  </scstep>
  <scstep>
   <time name="diag">    0.30    0.30</time>
   <time name="diis">    1.00    1.00</time>
   <time name="orth">    0.06    0.06</time>
   <time name="total">    1.49    1.50</time>
   <energy>
    <i name="alphaZ">    139.39864644 </i>
    <i name="ewald">  -4518.84056475 </i>
    <i name="hartreedc">   -843.89321144 </i>
    <i name="XCdc">     28.15464523 </i>
    <i name="pawpsdc">  19014.85718347 </i>
    <i name="pawaedc"> -18666.93845836 </i>
    <i name="eentropy">      0.00000000 </i>
    <i name="bandstr">    202.48888443 </i>
    <i name="atom">   4410.68206660 </i>
    <i name="e_fr_energy">   -234.09080837 </i>
    <i name="e_wo_entrp">   -234.09080837 </i>
    <i name="e_0_energy">   -234.09080837 </i>
   </energy>
  </scstep>
  <structure>
   <crystal>
    <varray name="basis" >
     <v>      20.90726893       0.00000000       0.04740784 </v>
     <v>       0.00000000       3.11371249       0.00000000 </v>
     <v>      -1.41452415       0.00000000       5.22597024 </v>
    </varray>
    <i name="volume">    340.41541324 </i>
    <varray name="rec_basis" >
     <v>       0.04780092       0.00000000       0.01293837 </v>
     <v>       0.00000000       0.32116003       0.00000000 </v>
     <v>      -0.00043363       0.00000000       0.19123466 </v>
    </varray>
   </crystal>
   <varray name="positions" >
    <v>       0.00360558       0.50000000       0.83367385 </v>
    <v>       0.75264634       0.50000000       0.59123829 </v>
    <v>       0.62556408       0.50000000       0.79697790 </v>
    <v>       0.87508228       0.00000000       0.53675055 </v>
    <v>       0.62538378       0.00000000       0.28595351 </v>
    <v>       0.50360558       0.00000000       0.83367385 </v>
    <v>       0.25264634       0.00000000       0.59123829 </v>
    <v>       0.12556408       0.00000000       0.79697790 </v>
    <v>       0.37508228       0.50000000       0.53675055 </v>
    <v>       0.12538378       0.50000000       0.28595351 </v>
    <v>       0.00164765       0.00000000       0.33602355 </v>
    <v>       0.75013583       0.00000000       0.07887783 </v>
    <v>       0.87161015       0.50000000       0.04495598 </v>
    <v>       0.50164765       0.50000000       0.33602355 </v>
    <v>       0.25013583       0.50000000       0.07887783 </v>
    <v>       0.37161015       0.00000000       0.04495598 </v>
    <v>       0.64998154       0.00000000       0.98535312 </v>
    <v>       0.65267044       0.50000000       0.48316577 </v>
    <v>       0.77897737       0.50000000       0.93277710 </v>
    <v>       0.53020329       0.50000000       0.70960111 </v>
    <v>       0.78493784       0.00000000       0.46185749 </v>
    <v>       0.14998154       0.50000000       0.98535312 </v>
    <v>       0.15267044       0.00000000       0.48316577 </v>
    <v>       0.27897737       0.00000000       0.93277710 </v>
    <v>       0.03020329       0.00000000       0.70960111 </v>
    <v>       0.28493784       0.50000000       0.46185749 </v>
    <v>       0.90732838       0.00000000       0.25751504 </v>
    <v>       0.91097121       0.50000000       0.73295935 </v>
    <v>       0.52925424       0.00000000       0.18231956 </v>
    <v>       0.40732838       0.50000000       0.25751504 </v>
    <v>       0.41097121       0.00000000       0.73295935 </v>
    <v>       0.02925424       0.50000000       0.18231956 </v>
   </varray>
  </structure>
  <varray name="forces" >
   <v>       0.00161618       0.00000000       0.01131874 </v>
   <v>      -0.00183635       0.00000000       0.00733781 </v>
   <v>      -0.00799202       0.00000000      -0.01504101 </v>
   <v>       0.00988065       0.00000000       0.00237699 </v>
   <v>       0.00949964       0.00000000      -0.00526934 </v>
   <v>       0.00161618       0.00000000       0.01131874 </v>
   <v>      -0.00183635       0.00000000       0.00733781 </v>
   <v>      -0.00799202       0.00000000      -0.01504101 </v>
   <v>       0.00988065       0.00000000       0.00237699 </v>
   <v>       0.00949964       0.00000000      -0.00526934 </v>
   <v>      -0.00703746       0.00000000      -0.01056543 </v>
   <v>       0.00188760       0.00000000       0.00471591 </v>
   <v>      -0.00932852       0.00000000       0.01403268 </v>
   <v>      -0.00703746       0.00000000      -0.01056543 </v>
   <v>       0.00188760       0.00000000       0.00471591 </v>
   <v>      -0.00932852       0.00000000       0.01403268 </v>
   <v>       0.00542222       0.00000000      -0.00084383 </v>
   <v>       0.01031494       0.00000000      -0.00167466 </v>
   <v>      -0.00108006       0.00000000      -0.00671010 </v>
   <v>       0.01342167       0.00000000      -0.00409678 </v>
   <v>      -0.01354279       0.00000000      -0.00273485 </v>
   <v>       0.00542222       0.00000000      -0.00084383 </v>
   <v>       0.01031494       0.00000000      -0.00167466 </v>
   <v>      -0.00108006       0.00000000      -0.00671010 </v>
   <v>       0.01342167       0.00000000      -0.00409678 </v>
   <v>      -0.01354279       0.00000000      -0.00273485 </v>
   <v>      -0.00432253       0.00000000       0.00827817 </v>
   <v>      -0.00713590       0.00000000       0.00479284 </v>
   <v>       0.00023275       0.00000000      -0.00591713 </v>
   <v>      -0.00432253       0.00000000       0.00827817 </v>
   <v>      -0.00713590       0.00000000       0.00479284 </v>
   <v>       0.00023275       0.00000000      -0.00591713 </v>
  </varray>
  <varray name="stress" >
   <v>       0.12160026       0.00000000      -0.11131264 </v>
   <v>       0.00000000       0.01309769       0.00000000 </v>
   <v>      -0.11131236       0.00000000       0.04401083 </v>
  </varray>
  <energy>
   <i name="e_fr_energy">   -234.09080837 </i>
   <i name="e_wo_entrp">   -234.09080837 </i>
   <i name="e_0_energy">      0.00000000 </i>
  </energy>
  <time name="totalsc">   37.41   37.66</time>
  <eigenvalues>
   <array>
    <dimension dim="1">band</dimension>
    <dimension dim="2">kpoint</dimension>
    <dimension dim="3">spin</dimension>
    <field>eigene</field>
    <field>occ</field>
    <set>
     <set comment="spin 1">
      <set comment="kpoint 1">
       <r>   -9.6283    1.0000 </r>
       <r>   -9.6234    1.0000 </r>
       <r>   -8.4906    1.0000 </r>
       <r>   -8.4723    1.0000 </r>
       <r>   -7.5133    1.0000 </r>
       <r>   -7.5117    1.0000 </r>
       <r>   -6.0940    1.0000 </r>
       <r>   -6.0533    1.0000 </r>
       <r>   -5.0923    1.0000 </r>
       <r>   -4.7749    1.0000 </r>
       <r>   -4.6053    1.0000 </r>
       <r>   -4.0885    1.0000 </r>
       <r>   -3.0150    1.0000 </r>
       <r>   -2.9681    1.0000 </r>
       <r>   -2.1587    1.0000 </r>
       <r>   -2.0868    1.0000 </r>
       <r>   -0.8505    1.0000 </r>
       <r>   -0.5075    1.0000 </r>
       <r>   -0.2999    1.0000 </r>
       <r>   -0.1895    1.0000 </r>
       <r>    0.2071    1.0000 </r>
       <r>    0.2571    1.0000 </r>
       <r>    0.6112    1.0000 </r>
       <r>    0.8903    1.0000 </r>
       <r>    1.1714    1.0000 </r>
       <r>    1.6458    1.0000 </r>
       <r>    2.1244    1.0000 </r>
       <r>    2.5392    1.0000 </r>
       <r>    2.9483    1.0000 </r>
       <r>    3.1811    1.0000 </r>
       <r>    3.1853    1.0000 </r>
       <r>    3.2234    1.0000 </r>
       <r>    3.8467    1.0000 </r>
       <r>    3.9885    1.0000 </r>
       <r>    4.0686    1.0000 </r>
       <r>    4.2493    1.0000 </r>
       <r>    4.2682    1.0000 </r>
       <r>    4.7618    1.0000 </r>
       <r>    4.7681    1.0000 </r>
       <r>    4.9392    1.0000 </r>
       <r>    5.1677    1.0000 </r>
       <r>    5.1820    1.0000 </r>
       <r>    5.4841    1.0000 </r>
       <r>    5.5752    1.0000 </r>
       <r>    5.6067    1.0000 </r>
       <r>    5.6956    1.0000 </r>
       <r>    5.8155    1.0000 </r>
       <r>    5.8705    1.0000 </r>
       <r>    5.9218    1.0000 </r>
       <r>    5.9867    1.0000 </r>
       <r>    6.1411    1.0000 </r>
       <r>    6.5016    1.0000 </r>
       <r>    6.6840    1.0000 </r>
       <r>    6.7781    1.0000 </r>
       <r>    6.8597    1.0000 </r>
       <r>    7.2084    1.0000 </r>
       <r>    7.2636    1.0000 </r>
       <r>    7.2823    1.0000 </r>
       <r>    7.2999    1.0000 </r>
       <r>    7.6862    1.0000 </r>
       <r>    8.5133    1.0000 </r>
       <r>    8.5486    1.0000 </r>
       <r>    9.0834    1.0000 </r>
       <r>    9.0842    1.0000 </r>
       <r>    9.8928    0.0000 </r>
       <r>   10.0149    0.0000 </r>
       <r>   10.6531    0.0000 </r>
       <r>   10.9784    0.0000 </r>
       <r>   11.0965    0.0000 </r>
       <r>   11.3374    0.0000 </r>
       <r>   11.4423    0.0000 </r>
       <r>   11.4991    0.0000 </r>
       <r>   11.9848    0.0000 </r>
       <r>   12.2408    0.0000 </r>
       <r>   12.3625    0.0000 </r>
       <r>   12.4331    0.0000 </r>
       <r>   13.5123    0.0000 </r>
       <r>   13.6265    0.0000 </r>
       <r>   13.7882    0.0000 </r>
       <r>   13.9397    0.0000 </r>
       <r>   14.0240    0.0000 </r>
       <r>   14.3344    0.0000 </r>
       <r>   14.6898    0.0000 </r>
       <r>   14.8912    0.0000 </r>
      </set>
      <set comment="kpoint 2">
       <r>   -9.3765    1.0000 </r>
       <r>   -9.3721    1.0000 </r>
       <r>   -8.2894    1.0000 </r>
       <r>   -8.2747    1.0000 </r>
       <r>   -7.4184    1.0000 </r>
       <r>   -7.4175    1.0000 </r>
       <r>   -5.7837    1.0000 </r>
       <r>   -5.7604    1.0000 </r>
       <r>   -4.8084    1.0000 </r>
       <r>   -4.4995    1.0000 </r>
       <r>   -4.2959    1.0000 </r>
       <r>   -3.8192    1.0000 </r>
       <r>   -2.8090    1.0000 </r>
       <r>   -2.7678    1.0000 </r>
       <r>   -1.9838    1.0000 </r>
       <r>   -1.9185    1.0000 </r>
       <r>   -0.6048    1.0000 </r>
       <r>   -0.2995    1.0000 </r>
       <r>   -0.0675    1.0000 </r>
       <r>    0.0864    1.0000 </r>
       <r>    0.4959    1.0000 </r>
       <r>    0.5037    1.0000 </r>
       <r>    0.7710    1.0000 </r>
       <r>    1.0840    1.0000 </r>
       <r>    1.2719    1.0000 </r>
       <r>    1.7326    1.0000 </r>
       <r>    1.8830    1.0000 </r>
       <r>    1.9975    1.0000 </r>
       <r>    2.3836    1.0000 </r>
       <r>    2.5396    1.0000 </r>
       <r>    2.9253    1.0000 </r>
       <r>    3.0054    1.0000 </r>
       <r>    3.3323    1.0000 </r>
       <r>    3.3459    1.0000 </r>
       <r>    3.8151    1.0000 </r>
       <r>    3.9344    1.0000 </r>
       <r>    4.0338    1.0000 </r>
       <r>    4.1398    1.0000 </r>
       <r>    4.1589    1.0000 </r>
       <r>    4.1993    1.0000 </r>
       <r>    4.4044    1.0000 </r>
       <r>    4.4438    1.0000 </r>
       <r>    4.5618    1.0000 </r>
       <r>    4.7614    1.0000 </r>
       <r>    4.8872    1.0000 </r>
       <r>    4.9157    1.0000 </r>
       <r>    5.2535    1.0000 </r>
       <r>    5.3524    1.0000 </r>
       <r>    5.5244    1.0000 </r>
       <r>    5.5392    1.0000 </r>
       <r>    5.9035    1.0000 </r>
       <r>    5.9481    1.0000 </r>
       <r>    5.9753    1.0000 </r>
       <r>    6.0070    1.0000 </r>
       <r>    6.2507    1.0000 </r>
       <r>    6.6447    1.0000 </r>
       <r>    6.8441    1.0000 </r>
       <r>    6.8757    1.0000 </r>
       <r>    7.1710    1.0000 </r>
       <r>    7.5563    1.0000 </r>
       <r>    7.8698    1.0000 </r>
       <r>    7.9372    1.0000 </r>
       <r>    8.2670    1.0000 </r>
       <r>    8.2678    1.0000 </r>
       <r>   11.1486    0.0000 </r>
       <r>   11.1811    0.0000 </r>
       <r>   11.2525    0.0000 </r>
       <r>   11.2952    0.0000 </r>
       <r>   12.0014    0.0000 </r>
       <r>   12.0694    0.0000 </r>
       <r>   12.1921    0.0000 </r>
       <r>   12.8538    0.0000 </r>
       <r>   12.9586    0.0000 </r>
       <r>   12.9841    0.0000 </r>
       <r>   13.3568    0.0000 </r>
       <r>   13.4546    0.0000 </r>
       <r>   13.6715    0.0000 </r>
       <r>   13.7551    0.0000 </r>
       <r>   13.7632    0.0000 </r>
       <r>   13.9630    0.0000 </r>
       <r>   14.1729    0.0000 </r>
       <r>   14.3343    0.0000 </r>
       <r>   14.4898    0.0000 </r>
       <r>   14.6499    0.0000 </r>
      </set>
      <set comment="kpoint 3">
       <r>   -8.7240    1.0000 </r>
       <r>   -8.7213    1.0000 </r>
       <r>   -7.8274    1.0000 </r>
       <r>   -7.8204    1.0000 </r>
       <r>   -7.3113    1.0000 </r>
       <r>   -7.3111    1.0000 </r>
       <r>   -4.9336    1.0000 </r>
       <r>   -4.9205    1.0000 </r>
       <r>   -4.0195    1.0000 </r>
       <r>   -3.8037    1.0000 </r>
       <r>   -3.4392    1.0000 </r>
       <r>   -3.1785    1.0000 </r>
       <r>   -2.5632    1.0000 </r>
       <r>   -2.5548    1.0000 </r>
       <r>   -1.7404    1.0000 </r>
       <r>   -1.7149    1.0000 </r>
       <r>   -0.2509    1.0000 </r>
       <r>   -0.2292    1.0000 </r>
       <r>    0.1321    1.0000 </r>
       <r>    0.3044    1.0000 </r>
       <r>    0.6175    1.0000 </r>
       <r>    0.6350    1.0000 </r>
       <r>    0.8042    1.0000 </r>
       <r>    0.9198    1.0000 </r>
       <r>    1.2763    1.0000 </r>
       <r>    1.4073    1.0000 </r>
       <r>    1.5944    1.0000 </r>
       <r>    1.7494    1.0000 </r>
       <r>    1.8600    1.0000 </r>
       <r>    1.9210    1.0000 </r>
       <r>    2.0318    1.0000 </r>
       <r>    2.3036    1.0000 </r>
       <r>    2.3589    1.0000 </r>
       <r>    2.6304    1.0000 </r>
       <r>    2.7758    1.0000 </r>
       <r>    2.8859    1.0000 </r>
       <r>    2.9301    1.0000 </r>
       <r>    3.1497    1.0000 </r>
       <r>    3.3340    1.0000 </r>
       <r>    3.5345    1.0000 </r>
       <r>    3.5825    1.0000 </r>
       <r>    3.7023    1.0000 </r>
       <r>    3.7844    1.0000 </r>
       <r>    4.0231    1.0000 </r>
       <r>    4.1698    1.0000 </r>
       <r>    4.2062    1.0000 </r>
       <r>    4.3273    1.0000 </r>
       <r>    4.5902    1.0000 </r>
       <r>    4.6218    1.0000 </r>
       <r>    4.7065    1.0000 </r>
       <r>    5.0493    1.0000 </r>
       <r>    5.0762    1.0000 </r>
       <r>    5.3718    1.0000 </r>
       <r>    5.5460    1.0000 </r>
       <r>    5.8746    1.0000 </r>
       <r>    6.0103    1.0000 </r>
       <r>    6.1793    1.0000 </r>
       <r>    6.2052    1.0000 </r>
       <r>    6.4994    1.0000 </r>
       <r>    6.7501    1.0000 </r>
       <r>    7.1661    1.0000 </r>
       <r>    7.2279    1.0000 </r>
       <r>    7.3589    1.0000 </r>
       <r>    7.4865    1.0000 </r>
       <r>   10.5158    0.0000 </r>
       <r>   11.2665    0.0000 </r>
       <r>   11.8230    0.0000 </r>
       <r>   11.9907    0.0000 </r>
       <r>   12.5035    0.0000 </r>
       <r>   12.6230    0.0000 </r>
       <r>   12.6401    0.0000 </r>
       <r>   12.8561    0.0000 </r>
       <r>   12.9893    0.0000 </r>
       <r>   13.0847    0.0000 </r>
       <r>   13.2883    0.0000 </r>
       <r>   13.3015    0.0000 </r>
       <r>   13.4762    0.0000 </r>
       <r>   13.6331    0.0000 </r>
       <r>   13.7342    0.0000 </r>
       <r>   13.8227    0.0000 </r>
       <r>   14.1664    0.0000 </r>
       <r>   14.2598    0.0000 </r>
       <r>   14.4117    0.0000 </r>
       <r>   14.4542    0.0000 </r>
      </set>
      <set comment="kpoint 4">
       <r>   -8.2024    1.0000 </r>
       <r>   -8.2024    1.0000 </r>
       <r>   -7.5222    1.0000 </r>
       <r>   -7.5222    1.0000 </r>
       <r>   -7.4512    1.0000 </r>
       <r>   -7.4512    1.0000 </r>
       <r>   -4.0621    1.0000 </r>
       <r>   -4.0621    1.0000 </r>
       <r>   -3.2936    1.0000 </r>
       <r>   -3.2936    1.0000 </r>
       <r>   -3.0682    1.0000 </r>
       <r>   -3.0682    1.0000 </r>
       <r>   -2.7845    1.0000 </r>
       <r>   -2.7845    1.0000 </r>
       <r>   -1.7748    1.0000 </r>
       <r>   -1.7748    1.0000 </r>
       <r>   -0.4811    1.0000 </r>
       <r>   -0.4811    1.0000 </r>
       <r>   -0.3166    1.0000 </r>
       <r>   -0.3166    1.0000 </r>
       <r>    0.8962    1.0000 </r>
       <r>    0.8962    1.0000 </r>
       <r>    0.9522    1.0000 </r>
       <r>    0.9522    1.0000 </r>
       <r>    1.2656    1.0000 </r>
       <r>    1.2656    1.0000 </r>
       <r>    1.3150    1.0000 </r>
       <r>    1.3150    1.0000 </r>
       <r>    1.6892    1.0000 </r>
       <r>    1.6892    1.0000 </r>
       <r>    2.1161    1.0000 </r>
       <r>    2.1161    1.0000 </r>
       <r>    2.3544    1.0000 </r>
       <r>    2.3544    1.0000 </r>
       <r>    2.5203    1.0000 </r>
       <r>    2.5203    1.0000 </r>
       <r>    2.8390    1.0000 </r>
       <r>    2.8390    1.0000 </r>
       <r>    3.0000    1.0000 </r>
       <r>    3.0000    1.0000 </r>
       <r>    3.3839    1.0000 </r>
       <r>    3.3839    1.0000 </r>
       <r>    3.4063    1.0000 </r>
       <r>    3.4063    1.0000 </r>
       <r>    3.9221    1.0000 </r>
       <r>    3.9221    1.0000 </r>
       <r>    4.1200    1.0000 </r>
       <r>    4.1200    1.0000 </r>
       <r>    4.3699    1.0000 </r>
       <r>    4.3699    1.0000 </r>
       <r>    5.0683    1.0000 </r>
       <r>    5.0683    1.0000 </r>
       <r>    5.2367    1.0000 </r>
       <r>    5.2367    1.0000 </r>
       <r>    5.5117    1.0000 </r>
       <r>    5.5117    1.0000 </r>
       <r>    5.7434    1.0000 </r>
       <r>    5.7434    1.0000 </r>
       <r>    6.0398    1.0000 </r>
       <r>    6.0398    1.0000 </r>
       <r>    6.9408    1.0000 </r>
       <r>    6.9408    1.0000 </r>
       <r>    7.1613    1.0000 </r>
       <r>    7.1613    1.0000 </r>
       <r>   11.0992    0.0000 </r>
       <r>   11.0992    0.0000 </r>
       <r>   11.7958    0.0000 </r>
       <r>   11.7959    0.0000 </r>
       <r>   12.0602    0.0000 </r>
       <r>   12.0605    0.0000 </r>
       <r>   12.3313    0.0000 </r>
       <r>   12.3315    0.0000 </r>
       <r>   12.5604    0.0000 </r>
       <r>   12.5609    0.0000 </r>
       <r>   13.3415    0.0000 </r>
       <r>   13.3446    0.0000 </r>
       <r>   13.6713    0.0000 </r>
       <r>   13.6729    0.0000 </r>
       <r>   13.8753    0.0000 </r>
       <r>   13.8929    0.0000 </r>
       <r>   14.3261    0.0000 </r>
       <r>   14.5168    0.0000 </r>
       <r>   14.8224    0.0000 </r>
       <r>   15.0558    0.0000 </r>
      </set>
      <set comment="kpoint 5">
       <r>   -9.4837    1.0000 </r>
       <r>   -9.4813    1.0000 </r>
       <r>   -8.5154    1.0000 </r>
       <r>   -8.5103    1.0000 </r>
       <r>   -7.6658    1.0000 </r>
       <r>   -7.6606    1.0000 </r>
       <r>   -5.9652    1.0000 </r>
       <r>   -5.9300    1.0000 </r>
       <r>   -5.2797    1.0000 </r>
       <r>   -5.0457    1.0000 </r>
       <r>   -4.4330    1.0000 </r>
       <r>   -4.1942    1.0000 </r>
       <r>   -3.5678    1.0000 </r>
       <r>   -3.4921    1.0000 </r>
       <r>   -2.3328    1.0000 </r>
       <r>   -2.2723    1.0000 </r>
       <r>   -0.5891    1.0000 </r>
       <r>   -0.2756    1.0000 </r>
       <r>    0.3100    1.0000 </r>
       <r>    0.3278    1.0000 </r>
       <r>    0.5727    1.0000 </r>
       <r>    0.7106    1.0000 </r>
       <r>    1.1236    1.0000 </r>
       <r>    1.4460    1.0000 </r>
       <r>    1.7550    1.0000 </r>
       <r>    2.0089    1.0000 </r>
       <r>    2.2955    1.0000 </r>
       <r>    2.5323    1.0000 </r>
       <r>    3.1965    1.0000 </r>
       <r>    3.2539    1.0000 </r>
       <r>    3.2557    1.0000 </r>
       <r>    3.3224    1.0000 </r>
       <r>    3.5113    1.0000 </r>
       <r>    3.7803    1.0000 </r>
       <r>    4.0149    1.0000 </r>
       <r>    4.0552    1.0000 </r>
       <r>    4.2911    1.0000 </r>
       <r>    4.3159    1.0000 </r>
       <r>    4.3212    1.0000 </r>
       <r>    4.9017    1.0000 </r>
       <r>    4.9629    1.0000 </r>
       <r>    5.0865    1.0000 </r>
       <r>    5.1005    1.0000 </r>
       <r>    5.1042    1.0000 </r>
       <r>    5.5883    1.0000 </r>
       <r>    5.6003    1.0000 </r>
       <r>    5.7131    1.0000 </r>
       <r>    5.8163    1.0000 </r>
       <r>    5.8926    1.0000 </r>
       <r>    5.9664    1.0000 </r>
       <r>    6.0130    1.0000 </r>
       <r>    6.2303    1.0000 </r>
       <r>    6.4134    1.0000 </r>
       <r>    6.4176    1.0000 </r>
       <r>    6.7198    1.0000 </r>
       <r>    6.7754    1.0000 </r>
       <r>    7.0804    1.0000 </r>
       <r>    7.0848    1.0000 </r>
       <r>    7.2408    1.0000 </r>
       <r>    7.3793    1.0000 </r>
       <r>    7.7633    1.0000 </r>
       <r>    7.8890    1.0000 </r>
       <r>    8.9387    1.0000 </r>
       <r>    8.9409    1.0000 </r>
       <r>   10.2473    0.0000 </r>
       <r>   10.3379    0.0000 </r>
       <r>   11.1027    0.0000 </r>
       <r>   11.2067    0.0000 </r>
       <r>   11.5184    0.0000 </r>
       <r>   11.7470    0.0000 </r>
       <r>   11.8431    0.0000 </r>
       <r>   12.0161    0.0000 </r>
       <r>   12.4226    0.0000 </r>
       <r>   12.6164    0.0000 </r>
       <r>   12.9086    0.0000 </r>
       <r>   12.9345    0.0000 </r>
       <r>   13.5645    0.0000 </r>
       <r>   13.7087    0.0000 </r>
       <r>   13.8151    0.0000 </r>
       <r>   14.1249    0.0000 </r>
       <r>   14.2491    0.0000 </r>
       <r>   14.4749    0.0000 </r>
       <r>   14.4777    0.0000 </r>
       <r>   14.7480    0.0000 </r>
      </set>
      <set comment="kpoint 6">
       <r>   -9.2404    1.0000 </r>
       <r>   -9.2383    1.0000 </r>
       <r>   -8.3217    1.0000 </r>
       <r>   -8.3178    1.0000 </r>
       <r>   -7.5437    1.0000 </r>
       <r>   -7.5398    1.0000 </r>
       <r>   -5.6664    1.0000 </r>
       <r>   -5.6283    1.0000 </r>
       <r>   -4.9626    1.0000 </r>
       <r>   -4.7415    1.0000 </r>
       <r>   -4.1323    1.0000 </r>
       <r>   -3.9120    1.0000 </r>
       <r>   -3.3194    1.0000 </r>
       <r>   -3.2626    1.0000 </r>
       <r>   -2.1260    1.0000 </r>
       <r>   -2.0919    1.0000 </r>
       <r>   -0.3905    1.0000 </r>
       <r>   -0.1114    1.0000 </r>
       <r>    0.3864    1.0000 </r>
       <r>    0.4249    1.0000 </r>
       <r>    0.7708    1.0000 </r>
       <r>    0.8734    1.0000 </r>
       <r>    1.2543    1.0000 </r>
       <r>    1.4215    1.0000 </r>
       <r>    1.7621    1.0000 </r>
       <r>    1.7994    1.0000 </r>
       <r>    2.1278    1.0000 </r>
       <r>    2.2257    1.0000 </r>
       <r>    2.4813    1.0000 </r>
       <r>    2.7958    1.0000 </r>
       <r>    3.0210    1.0000 </r>
       <r>    3.0588    1.0000 </r>
       <r>    3.1201    1.0000 </r>
       <r>    3.2993    1.0000 </r>
       <r>    3.6040    1.0000 </r>
       <r>    3.6115    1.0000 </r>
       <r>    3.8245    1.0000 </r>
       <r>    4.0166    1.0000 </r>
       <r>    4.1986    1.0000 </r>
       <r>    4.2946    1.0000 </r>
       <r>    4.3197    1.0000 </r>
       <r>    4.3786    1.0000 </r>
       <r>    4.5789    1.0000 </r>
       <r>    4.6173    1.0000 </r>
       <r>    4.6815    1.0000 </r>
       <r>    4.8522    1.0000 </r>
       <r>    5.1823    1.0000 </r>
       <r>    5.2384    1.0000 </r>
       <r>    5.4116    1.0000 </r>
       <r>    5.4410    1.0000 </r>
       <r>    5.5728    1.0000 </r>
       <r>    5.6787    1.0000 </r>
       <r>    6.0228    1.0000 </r>
       <r>    6.0530    1.0000 </r>
       <r>    6.3306    1.0000 </r>
       <r>    6.3801    1.0000 </r>
       <r>    6.6089    1.0000 </r>
       <r>    6.6242    1.0000 </r>
       <r>    7.0145    1.0000 </r>
       <r>    7.1316    1.0000 </r>
       <r>    7.6289    1.0000 </r>
       <r>    7.7724    1.0000 </r>
       <r>    8.2548    1.0000 </r>
       <r>    8.2589    1.0000 </r>
       <r>   11.3771    0.0000 </r>
       <r>   11.4774    0.0000 </r>
       <r>   11.5643    0.0000 </r>
       <r>   11.7042    0.0000 </r>
       <r>   12.2186    0.0000 </r>
       <r>   12.3494    0.0000 </r>
       <r>   12.5885    0.0000 </r>
       <r>   12.6304    0.0000 </r>
       <r>   12.8232    0.0000 </r>
       <r>   12.9928    0.0000 </r>
       <r>   13.1581    0.0000 </r>
       <r>   13.2026    0.0000 </r>
       <r>   13.4086    0.0000 </r>
       <r>   13.5411    0.0000 </r>
       <r>   13.6585    0.0000 </r>
       <r>   13.8781    0.0000 </r>
       <r>   13.9926    0.0000 </r>
       <r>   14.3849    0.0000 </r>
       <r>   14.5049    0.0000 </r>
       <r>   14.8281    0.0000 </r>
      </set>
      <set comment="kpoint 7">
       <r>   -8.6248    1.0000 </r>
       <r>   -8.6237    1.0000 </r>
       <r>   -7.8692    1.0000 </r>
       <r>   -7.8680    1.0000 </r>
       <r>   -7.3542    1.0000 </r>
       <r>   -7.3526    1.0000 </r>
       <r>   -4.8200    1.0000 </r>
       <r>   -4.7857    1.0000 </r>
       <r>   -4.0748    1.0000 </r>
       <r>   -3.9318    1.0000 </r>
       <r>   -3.3388    1.0000 </r>
       <r>   -3.2158    1.0000 </r>
       <r>   -2.8514    1.0000 </r>
       <r>   -2.8363    1.0000 </r>
       <r>   -1.8311    1.0000 </r>
       <r>   -1.7717    1.0000 </r>
       <r>   -0.4514    1.0000 </r>
       <r>   -0.3495    1.0000 </r>
       <r>   -0.0875    1.0000 </r>
       <r>    0.0316    1.0000 </r>
       <r>    0.5835    1.0000 </r>
       <r>    0.6190    1.0000 </r>
       <r>    0.9721    1.0000 </r>
       <r>    1.0151    1.0000 </r>
       <r>    1.3025    1.0000 </r>
       <r>    1.3784    1.0000 </r>
       <r>    1.7112    1.0000 </r>
       <r>    1.8426    1.0000 </r>
       <r>    1.9303    1.0000 </r>
       <r>    2.1123    1.0000 </r>
       <r>    2.1643    1.0000 </r>
       <r>    2.2866    1.0000 </r>
       <r>    2.4883    1.0000 </r>
       <r>    2.5318    1.0000 </r>
       <r>    2.7506    1.0000 </r>
       <r>    2.8001    1.0000 </r>
       <r>    3.1468    1.0000 </r>
       <r>    3.1717    1.0000 </r>
       <r>    3.1831    1.0000 </r>
       <r>    3.6259    1.0000 </r>
       <r>    3.7081    1.0000 </r>
       <r>    3.8765    1.0000 </r>
       <r>    4.1055    1.0000 </r>
       <r>    4.1553    1.0000 </r>
       <r>    4.2422    1.0000 </r>
       <r>    4.3891    1.0000 </r>
       <r>    4.6285    1.0000 </r>
       <r>    4.6851    1.0000 </r>
       <r>    4.9408    1.0000 </r>
       <r>    4.9526    1.0000 </r>
       <r>    5.1360    1.0000 </r>
       <r>    5.2163    1.0000 </r>
       <r>    5.5302    1.0000 </r>
       <r>    5.6201    1.0000 </r>
       <r>    5.8322    1.0000 </r>
       <r>    6.1017    1.0000 </r>
       <r>    6.1547    1.0000 </r>
       <r>    6.2671    1.0000 </r>
       <r>    6.6324    1.0000 </r>
       <r>    6.6962    1.0000 </r>
       <r>    7.2462    1.0000 </r>
       <r>    7.4029    1.0000 </r>
       <r>    7.6508    1.0000 </r>
       <r>    7.6535    1.0000 </r>
       <r>   10.8516    0.0000 </r>
       <r>   10.9887    0.0000 </r>
       <r>   11.3832    0.0000 </r>
       <r>   11.4828    0.0000 </r>
       <r>   11.6408    0.0000 </r>
       <r>   11.7370    0.0000 </r>
       <r>   12.0111    0.0000 </r>
       <r>   12.0405    0.0000 </r>
       <r>   12.2988    0.0000 </r>
       <r>   12.4499    0.0000 </r>
       <r>   12.7812    0.0000 </r>
       <r>   13.0604    0.0000 </r>
       <r>   13.1623    0.0000 </r>
       <r>   13.2952    0.0000 </r>
       <r>   13.6522    0.0000 </r>
       <r>   13.7927    0.0000 </r>
       <r>   13.8475    0.0000 </r>
       <r>   14.2892    0.0000 </r>
       <r>   14.3384    0.0000 </r>
       <r>   14.4748    0.0000 </r>
      </set>
      <set comment="kpoint 8">
       <r>   -8.1749    1.0000 </r>
       <r>   -8.1749    1.0000 </r>
       <r>   -7.5280    1.0000 </r>
       <r>   -7.5280    1.0000 </r>
       <r>   -7.4281    1.0000 </r>
       <r>   -7.4281    1.0000 </r>
       <r>   -3.9484    1.0000 </r>
       <r>   -3.9484    1.0000 </r>
       <r>   -3.2321    1.0000 </r>
       <r>   -3.2321    1.0000 </r>
       <r>   -3.0900    1.0000 </r>
       <r>   -3.0900    1.0000 </r>
       <r>   -2.8090    1.0000 </r>
       <r>   -2.8090    1.0000 </r>
       <r>   -1.7485    1.0000 </r>
       <r>   -1.7485    1.0000 </r>
       <r>   -0.7906    1.0000 </r>
       <r>   -0.7906    1.0000 </r>
       <r>   -0.5688    1.0000 </r>
       <r>   -0.5688    1.0000 </r>
       <r>    0.3838    1.0000 </r>
       <r>    0.3838    1.0000 </r>
       <r>    0.4609    1.0000 </r>
       <r>    0.4609    1.0000 </r>
       <r>    0.7181    1.0000 </r>
       <r>    0.7181    1.0000 </r>
       <r>    1.1749    1.0000 </r>
       <r>    1.1749    1.0000 </r>
       <r>    1.9520    1.0000 </r>
       <r>    1.9520    1.0000 </r>
       <r>    2.1424    1.0000 </r>
       <r>    2.1424    1.0000 </r>
       <r>    2.4759    1.0000 </r>
       <r>    2.4759    1.0000 </r>
       <r>    2.7144    1.0000 </r>
       <r>    2.7144    1.0000 </r>
       <r>    3.0208    1.0000 </r>
       <r>    3.0208    1.0000 </r>
       <r>    3.3431    1.0000 </r>
       <r>    3.3431    1.0000 </r>
       <r>    3.6727    1.0000 </r>
       <r>    3.6727    1.0000 </r>
       <r>    3.8858    1.0000 </r>
       <r>    3.8858    1.0000 </r>
       <r>    4.1922    1.0000 </r>
       <r>    4.1922    1.0000 </r>
       <r>    4.4391    1.0000 </r>
       <r>    4.4391    1.0000 </r>
       <r>    4.8230    1.0000 </r>
       <r>    4.8230    1.0000 </r>
       <r>    5.0071    1.0000 </r>
       <r>    5.0071    1.0000 </r>
       <r>    5.6200    1.0000 </r>
       <r>    5.6200    1.0000 </r>
       <r>    5.7776    1.0000 </r>
       <r>    5.7776    1.0000 </r>
       <r>    6.2270    1.0000 </r>
       <r>    6.2270    1.0000 </r>
       <r>    6.3940    1.0000 </r>
       <r>    6.3940    1.0000 </r>
       <r>    6.9687    1.0000 </r>
       <r>    6.9687    1.0000 </r>
       <r>    7.1644    1.0000 </r>
       <r>    7.1644    1.0000 </r>
       <r>   10.6830    0.0000 </r>
       <r>   10.6830    0.0000 </r>
       <r>   11.2729    0.0000 </r>
       <r>   11.2729    0.0000 </r>
       <r>   11.5925    0.0000 </r>
       <r>   11.5925    0.0000 </r>
       <r>   11.7114    0.0000 </r>
       <r>   11.7114    0.0000 </r>
       <r>   11.8994    0.0000 </r>
       <r>   11.8995    0.0000 </r>
       <r>   12.4697    0.0000 </r>
       <r>   12.4699    0.0000 </r>
       <r>   12.7996    0.0000 </r>
       <r>   12.8000    0.0000 </r>
       <r>   13.0797    0.0000 </r>
       <r>   13.0813    0.0000 </r>
       <r>   13.8032    0.0000 </r>
       <r>   13.8767    0.0000 </r>
       <r>   14.2290    0.0000 </r>
       <r>   14.3700    0.0000 </r>
      </set>
      <set comment="kpoint 9">
       <r>   -9.2639    1.0000 </r>
       <r>   -9.2616    1.0000 </r>
       <r>   -8.6697    1.0000 </r>
       <r>   -8.6643    1.0000 </r>
       <r>   -7.7425    1.0000 </r>
       <r>   -7.7425    1.0000 </r>
       <r>   -5.9163    1.0000 </r>
       <r>   -5.8451    1.0000 </r>
       <r>   -5.2852    1.0000 </r>
       <r>   -5.2182    1.0000 </r>
       <r>   -4.4793    1.0000 </r>
       <r>   -4.1852    1.0000 </r>
       <r>   -4.0833    1.0000 </r>
       <r>   -3.7151    1.0000 </r>
       <r>   -2.6749    1.0000 </r>
       <r>   -2.6064    1.0000 </r>
       <r>   -0.1504    1.0000 </r>
       <r>   -0.0177    1.0000 </r>
       <r>    0.6009    1.0000 </r>
       <r>    1.0170    1.0000 </r>
       <r>    1.3958    1.0000 </r>
       <r>    1.4232    1.0000 </r>
       <r>    1.8859    1.0000 </r>
       <r>    1.8925    1.0000 </r>
       <r>    2.0889    1.0000 </r>
       <r>    2.4277    1.0000 </r>
       <r>    2.4382    1.0000 </r>
       <r>    2.5865    1.0000 </r>
       <r>    3.0254    1.0000 </r>
       <r>    3.1797    1.0000 </r>
       <r>    3.3375    1.0000 </r>
       <r>    3.3384    1.0000 </r>
       <r>    3.3440    1.0000 </r>
       <r>    3.6613    1.0000 </r>
       <r>    3.7658    1.0000 </r>
       <r>    3.7811    1.0000 </r>
       <r>    4.0391    1.0000 </r>
       <r>    4.3490    1.0000 </r>
       <r>    4.3576    1.0000 </r>
       <r>    4.3648    1.0000 </r>
       <r>    4.5074    1.0000 </r>
       <r>    4.6696    1.0000 </r>
       <r>    5.0747    1.0000 </r>
       <r>    5.0786    1.0000 </r>
       <r>    5.2979    1.0000 </r>
       <r>    5.4212    1.0000 </r>
       <r>    5.4405    1.0000 </r>
       <r>    5.4500    1.0000 </r>
       <r>    5.7642    1.0000 </r>
       <r>    6.0021    1.0000 </r>
       <r>    6.0131    1.0000 </r>
       <r>    6.1144    1.0000 </r>
       <r>    6.1246    1.0000 </r>
       <r>    6.2578    1.0000 </r>
       <r>    6.4096    1.0000 </r>
       <r>    6.5046    1.0000 </r>
       <r>    6.5427    1.0000 </r>
       <r>    6.5871    1.0000 </r>
       <r>    6.9667    1.0000 </r>
       <r>    7.0078    1.0000 </r>
       <r>    7.7595    1.0000 </r>
       <r>    7.7861    1.0000 </r>
       <r>    8.7875    1.0000 </r>
       <r>    8.7909    1.0000 </r>
       <r>   10.6871    0.0000 </r>
       <r>   10.6919    0.0000 </r>
       <r>   11.7638    0.0000 </r>
       <r>   11.8567    0.0000 </r>
       <r>   12.0895    0.0000 </r>
       <r>   12.1669    0.0000 </r>
       <r>   12.4208    0.0000 </r>
       <r>   12.4215    0.0000 </r>
       <r>   12.6413    0.0000 </r>
       <r>   12.6715    0.0000 </r>
       <r>   12.7817    0.0000 </r>
       <r>   13.1229    0.0000 </r>
       <r>   13.3603    0.0000 </r>
       <r>   13.4191    0.0000 </r>
       <r>   13.7024    0.0000 </r>
       <r>   13.7088    0.0000 </r>
       <r>   13.9844    0.0000 </r>
       <r>   14.3359    0.0000 </r>
       <r>   14.4004    0.0000 </r>
       <r>   14.6168    0.0000 </r>
      </set>
      <set comment="kpoint 10">
       <r>   -9.0360    1.0000 </r>
       <r>   -9.0339    1.0000 </r>
       <r>   -8.4690    1.0000 </r>
       <r>   -8.4642    1.0000 </r>
       <r>   -7.6104    1.0000 </r>
       <r>   -7.6100    1.0000 </r>
       <r>   -5.5858    1.0000 </r>
       <r>   -5.5204    1.0000 </r>
       <r>   -4.9798    1.0000 </r>
       <r>   -4.9150    1.0000 </r>
       <r>   -4.1673    1.0000 </r>
       <r>   -3.8919    1.0000 </r>
       <r>   -3.8170    1.0000 </r>
       <r>   -3.4810    1.0000 </r>
       <r>   -2.4249    1.0000 </r>
       <r>   -2.3723    1.0000 </r>
       <r>   -0.0690    1.0000 </r>
       <r>    0.0449    1.0000 </r>
       <r>    0.6367    1.0000 </r>
       <r>    0.8698    1.0000 </r>
       <r>    1.3201    1.0000 </r>
       <r>    1.3351    1.0000 </r>
       <r>    1.7117    1.0000 </r>
       <r>    1.8474    1.0000 </r>
       <r>    2.0211    1.0000 </r>
       <r>    2.0228    1.0000 </r>
       <r>    2.1852    1.0000 </r>
       <r>    2.4391    1.0000 </r>
       <r>    2.8493    1.0000 </r>
       <r>    2.8715    1.0000 </r>
       <r>    2.9176    1.0000 </r>
       <r>    2.9824    1.0000 </r>
       <r>    3.1469    1.0000 </r>
       <r>    3.1482    1.0000 </r>
       <r>    3.3769    1.0000 </r>
       <r>    3.5418    1.0000 </r>
       <r>    3.7300    1.0000 </r>
       <r>    3.7658    1.0000 </r>
       <r>    4.0693    1.0000 </r>
       <r>    4.2044    1.0000 </r>
       <r>    4.3407    1.0000 </r>
       <r>    4.4399    1.0000 </r>
       <r>    4.5570    1.0000 </r>
       <r>    4.5603    1.0000 </r>
       <r>    4.6517    1.0000 </r>
       <r>    4.7201    1.0000 </r>
       <r>    5.0176    1.0000 </r>
       <r>    5.1700    1.0000 </r>
       <r>    5.3505    1.0000 </r>
       <r>    5.3960    1.0000 </r>
       <r>    5.5673    1.0000 </r>
       <r>    5.5940    1.0000 </r>
       <r>    5.7527    1.0000 </r>
       <r>    5.8028    1.0000 </r>
       <r>    6.1404    1.0000 </r>
       <r>    6.2241    1.0000 </r>
       <r>    6.3454    1.0000 </r>
       <r>    6.4734    1.0000 </r>
       <r>    6.5490    1.0000 </r>
       <r>    6.5977    1.0000 </r>
       <r>    7.6890    1.0000 </r>
       <r>    7.7642    1.0000 </r>
       <r>    7.8608    1.0000 </r>
       <r>    7.9288    1.0000 </r>
       <r>   11.7958    0.0000 </r>
       <r>   11.9006    0.0000 </r>
       <r>   12.1637    0.0000 </r>
       <r>   12.2704    0.0000 </r>
       <r>   12.5536    0.0000 </r>
       <r>   12.7969    0.0000 </r>
       <r>   12.8181    0.0000 </r>
       <r>   12.9761    0.0000 </r>
       <r>   13.0296    0.0000 </r>
       <r>   13.0588    0.0000 </r>
       <r>   13.1019    0.0000 </r>
       <r>   13.2896    0.0000 </r>
       <r>   13.4739    0.0000 </r>
       <r>   13.5099    0.0000 </r>
       <r>   13.7957    0.0000 </r>
       <r>   13.9903    0.0000 </r>
       <r>   14.0306    0.0000 </r>
       <r>   14.0885    0.0000 </r>
       <r>   14.3073    0.0000 </r>
       <r>   14.4787    0.0000 </r>
      </set>
      <set comment="kpoint 11">
       <r>   -8.4885    1.0000 </r>
       <r>   -8.4871    1.0000 </r>
       <r>   -7.9714    1.0000 </r>
       <r>   -7.9681    1.0000 </r>
       <r>   -7.3760    1.0000 </r>
       <r>   -7.3749    1.0000 </r>
       <r>   -4.6621    1.0000 </r>
       <r>   -4.6211    1.0000 </r>
       <r>   -4.1286    1.0000 </r>
       <r>   -4.0869    1.0000 </r>
       <r>   -3.3312    1.0000 </r>
       <r>   -3.2069    1.0000 </r>
       <r>   -3.1457    1.0000 </r>
       <r>   -3.0379    1.0000 </r>
       <r>   -1.8929    1.0000 </r>
       <r>   -1.8680    1.0000 </r>
       <r>   -0.6085    1.0000 </r>
       <r>   -0.5747    1.0000 </r>
       <r>   -0.0677    1.0000 </r>
       <r>   -0.0553    1.0000 </r>
       <r>    0.5436    1.0000 </r>
       <r>    0.5499    1.0000 </r>
       <r>    0.8714    1.0000 </r>
       <r>    0.9681    1.0000 </r>
       <r>    1.3295    1.0000 </r>
       <r>    1.3360    1.0000 </r>
       <r>    1.6124    1.0000 </r>
       <r>    1.7578    1.0000 </r>
       <r>    1.8915    1.0000 </r>
       <r>    2.0063    1.0000 </r>
       <r>    2.2998    1.0000 </r>
       <r>    2.4309    1.0000 </r>
       <r>    2.5175    1.0000 </r>
       <r>    2.5783    1.0000 </r>
       <r>    2.9565    1.0000 </r>
       <r>    3.1049    1.0000 </r>
       <r>    3.2290    1.0000 </r>
       <r>    3.3648    1.0000 </r>
       <r>    3.5299    1.0000 </r>
       <r>    3.7886    1.0000 </r>
       <r>    3.8577    1.0000 </r>
       <r>    4.0526    1.0000 </r>
       <r>    4.2512    1.0000 </r>
       <r>    4.3157    1.0000 </r>
       <r>    4.3988    1.0000 </r>
       <r>    4.5428    1.0000 </r>
       <r>    4.7608    1.0000 </r>
       <r>    4.9189    1.0000 </r>
       <r>    4.9739    1.0000 </r>
       <r>    5.1626    1.0000 </r>
       <r>    5.3047    1.0000 </r>
       <r>    5.3688    1.0000 </r>
       <r>    5.6404    1.0000 </r>
       <r>    5.7366    1.0000 </r>
       <r>    5.8004    1.0000 </r>
       <r>    6.0553    1.0000 </r>
       <r>    6.2929    1.0000 </r>
       <r>    6.5711    1.0000 </r>
       <r>    6.6980    1.0000 </r>
       <r>    6.8502    1.0000 </r>
       <r>    7.3339    1.0000 </r>
       <r>    7.4124    1.0000 </r>
       <r>    7.4381    1.0000 </r>
       <r>    7.4796    1.0000 </r>
       <r>   10.6103    0.0000 </r>
       <r>   10.7789    0.0000 </r>
       <r>   11.1517    0.0000 </r>
       <r>   11.2475    0.0000 </r>
       <r>   11.4407    0.0000 </r>
       <r>   11.4911    0.0000 </r>
       <r>   11.8572    0.0000 </r>
       <r>   11.9319    0.0000 </r>
       <r>   11.9360    0.0000 </r>
       <r>   12.1550    0.0000 </r>
       <r>   12.3489    0.0000 </r>
       <r>   12.4456    0.0000 </r>
       <r>   12.6714    0.0000 </r>
       <r>   12.8708    0.0000 </r>
       <r>   12.9498    0.0000 </r>
       <r>   13.1138    0.0000 </r>
       <r>   13.7897    0.0000 </r>
       <r>   13.8029    0.0000 </r>
       <r>   13.9563    0.0000 </r>
       <r>   14.1701    0.0000 </r>
      </set>
      <set comment="kpoint 12">
       <r>   -8.1458    1.0000 </r>
       <r>   -8.1458    1.0000 </r>
       <r>   -7.5354    1.0000 </r>
       <r>   -7.5354    1.0000 </r>
       <r>   -7.4046    1.0000 </r>
       <r>   -7.4046    1.0000 </r>
       <r>   -3.8033    1.0000 </r>
       <r>   -3.8033    1.0000 </r>
       <r>   -3.2130    1.0000 </r>
       <r>   -3.2130    1.0000 </r>
       <r>   -3.0911    1.0000 </r>
       <r>   -3.0911    1.0000 </r>
       <r>   -2.8438    1.0000 </r>
       <r>   -2.8438    1.0000 </r>
       <r>   -1.7189    1.0000 </r>
       <r>   -1.7189    1.0000 </r>
       <r>   -1.0516    1.0000 </r>
       <r>   -1.0516    1.0000 </r>
       <r>   -0.7350    1.0000 </r>
       <r>   -0.7350    1.0000 </r>
       <r>    0.0530    1.0000 </r>
       <r>    0.0530    1.0000 </r>
       <r>    0.1801    1.0000 </r>
       <r>    0.1801    1.0000 </r>
       <r>    0.3906    1.0000 </r>
       <r>    0.3906    1.0000 </r>
       <r>    0.8395    1.0000 </r>
       <r>    0.8395    1.0000 </r>
       <r>    1.6541    1.0000 </r>
       <r>    1.6541    1.0000 </r>
       <r>    2.2263    1.0000 </r>
       <r>    2.2263    1.0000 </r>
       <r>    2.4941    1.0000 </r>
       <r>    2.4941    1.0000 </r>
       <r>    3.1514    1.0000 </r>
       <r>    3.1514    1.0000 </r>
       <r>    3.3042    1.0000 </r>
       <r>    3.3042    1.0000 </r>
       <r>    3.5071    1.0000 </r>
       <r>    3.5071    1.0000 </r>
       <r>    3.8481    1.0000 </r>
       <r>    3.8481    1.0000 </r>
       <r>    4.4167    1.0000 </r>
       <r>    4.4167    1.0000 </r>
       <r>    4.6048    1.0000 </r>
       <r>    4.6048    1.0000 </r>
       <r>    4.7119    1.0000 </r>
       <r>    4.7119    1.0000 </r>
       <r>    5.0617    1.0000 </r>
       <r>    5.0617    1.0000 </r>
       <r>    5.5535    1.0000 </r>
       <r>    5.5535    1.0000 </r>
       <r>    5.6177    1.0000 </r>
       <r>    5.6177    1.0000 </r>
       <r>    6.2083    1.0000 </r>
       <r>    6.2083    1.0000 </r>
       <r>    6.3851    1.0000 </r>
       <r>    6.3851    1.0000 </r>
       <r>    6.6943    1.0000 </r>
       <r>    6.6943    1.0000 </r>
       <r>    7.2011    1.0000 </r>
       <r>    7.2011    1.0000 </r>
       <r>    7.6165    1.0000 </r>
       <r>    7.6165    1.0000 </r>
       <r>   10.0317    0.0000 </r>
       <r>   10.0317    0.0000 </r>
       <r>   10.6218    0.0000 </r>
       <r>   10.6218    0.0000 </r>
       <r>   10.6374    0.0000 </r>
       <r>   10.6374    0.0000 </r>
       <r>   11.2249    0.0000 </r>
       <r>   11.2249    0.0000 </r>
       <r>   11.2867    0.0000 </r>
       <r>   11.2867    0.0000 </r>
       <r>   11.7510    0.0000 </r>
       <r>   11.7511    0.0000 </r>
       <r>   12.1556    0.0000 </r>
       <r>   12.1558    0.0000 </r>
       <r>   12.3008    0.0000 </r>
       <r>   12.3009    0.0000 </r>
       <r>   13.4799    0.0000 </r>
       <r>   13.4972    0.0000 </r>
       <r>   13.8278    0.0000 </r>
       <r>   13.9207    0.0000 </r>
      </set>
     </set>
    </set>
   </array>
  </eigenvalues>
  <separator name="orbital magnetization" >
   <v name="MAGDIPOLOUT">      0.00000000      0.00000000      0.00000000</v>
  </separator>
  <dos>
   <i name="efermi">      9.49237890 </i>
   <total>
    <array>
     <dimension dim="1">gridpoints</dimension>
     <dimension dim="2">spin</dimension>
     <field>energy</field>
     <field>total</field>
     <field>integrated</field>
     <set>
      <set comment="spin 1">
       <r>   -10.8625     0.0000     0.0000 </r>
       <r>   -10.7720     0.0000     0.0000 </r>
       <r>   -10.6815     0.0000     0.0000 </r>
       <r>   -10.5910     0.0000     0.0000 </r>
       <r>   -10.5005     0.0000     0.0000 </r>
       <r>   -10.4100     0.0000     0.0000 </r>
       <r>   -10.3195     0.0000     0.0000 </r>
       <r>   -10.2290     0.0000     0.0000 </r>
       <r>   -10.1385     0.0000     0.0000 </r>
       <r>   -10.0480     0.0000     0.0000 </r>
       <r>    -9.9575     0.0000     0.0000 </r>
       <r>    -9.8669     0.0006     0.0001 </r>
       <r>    -9.7764     0.0302     0.0028 </r>
       <r>    -9.6859     0.3413     0.0337 </r>
       <r>    -9.5954     1.0619     0.1298 </r>
       <r>    -9.5049     1.8312     0.2955 </r>
       <r>    -9.4144     2.7680     0.5461 </r>
       <r>    -9.3239     3.4623     0.8594 </r>
       <r>    -9.2334     4.7835     1.2924 </r>
       <r>    -9.1429     3.6497     1.6227 </r>
       <r>    -9.0524     1.9367     1.7980 </r>
       <r>    -8.9619     1.6784     1.9499 </r>
       <r>    -8.8714     0.5862     2.0030 </r>
       <r>    -8.7808     0.9214     2.0863 </r>
       <r>    -8.6903     3.5440     2.4071 </r>
       <r>    -8.5998     6.0473     2.9544 </r>
       <r>    -8.5093     6.9235     3.5811 </r>
       <r>    -8.4188     6.7809     4.1948 </r>
       <r>    -8.3283     5.7591     4.7161 </r>
       <r>    -8.2378     6.3608     5.2918 </r>
       <r>    -8.1473     5.0674     5.7504 </r>
       <r>    -8.0568     2.7846     6.0024 </r>
       <r>    -7.9663     2.5684     6.2349 </r>
       <r>    -7.8758     5.0476     6.6917 </r>
       <r>    -7.7852     5.8011     7.2168 </r>
       <r>    -7.6947     4.3186     7.6077 </r>
       <r>    -7.6042     6.3535     8.1827 </r>
       <r>    -7.5137    10.8388     9.1637 </r>
       <r>    -7.4232    12.4248    10.2883 </r>
       <r>    -7.3327    11.6300    11.3409 </r>
       <r>    -7.2422     6.0773    11.8909 </r>
       <r>    -7.1517     1.1411    11.9942 </r>
       <r>    -7.0612     0.0631    11.9999 </r>
       <r>    -6.9707     0.0009    12.0000 </r>
       <r>    -6.8802     0.0000    12.0000 </r>
       <r>    -6.7897     0.0000    12.0000 </r>
       <r>    -6.6991     0.0000    12.0000 </r>
       <r>    -6.6086     0.0000    12.0000 </r>
       <r>    -6.5181     0.0000    12.0000 </r>
       <r>    -6.4276     0.0000    12.0000 </r>
       <r>    -6.3371     0.0003    12.0000 </r>
       <r>    -6.2466     0.0169    12.0016 </r>
       <r>    -6.1561     0.2330    12.0226 </r>
       <r>    -6.0656     0.9621    12.1097 </r>
       <r>    -5.9751     1.9901    12.2898 </r>
       <r>    -5.8846     2.7044    12.5346 </r>
       <r>    -5.7941     2.7067    12.7796 </r>
       <r>    -5.7036     3.5180    13.0980 </r>
       <r>    -5.6130     4.6977    13.5232 </r>
       <r>    -5.5225     3.6589    13.8543 </r>
       <r>    -5.4320     1.4230    13.9831 </r>
       <r>    -5.3415     0.7604    14.0520 </r>
       <r>    -5.2510     1.5786    14.1948 </r>
       <r>    -5.1605     1.4906    14.3297 </r>
       <r>    -5.0700     1.7977    14.4925 </r>
       <r>    -4.9795     4.3024    14.8819 </r>
       <r>    -4.8890     6.4712    15.4676 </r>
       <r>    -4.7985     7.0738    16.1078 </r>
       <r>    -4.7080     6.5788    16.7032 </r>
       <r>    -4.6175     4.0651    17.0712 </r>
       <r>    -4.5269     2.6712    17.3129 </r>
       <r>    -4.4364     2.3849    17.5288 </r>
       <r>    -4.3459     1.7665    17.6887 </r>
       <r>    -4.2554     2.0381    17.8731 </r>
       <r>    -4.1649     5.0158    18.3271 </r>
       <r>    -4.0744     8.5938    19.1049 </r>
       <r>    -3.9839     8.3462    19.8603 </r>
       <r>    -3.8934     8.1839    20.6010 </r>
       <r>    -3.8029     6.9784    21.2326 </r>
       <r>    -3.7124     3.7539    21.5724 </r>
       <r>    -3.6219     1.4485    21.7035 </r>
       <r>    -3.5313     2.0427    21.8884 </r>
       <r>    -3.4408     3.5660    22.2111 </r>
       <r>    -3.3503     5.7707    22.7334 </r>
       <r>    -3.2598     9.9528    23.6343 </r>
       <r>    -3.1693    10.8436    24.6157 </r>
       <r>    -3.0788     8.1696    25.3551 </r>
       <r>    -2.9883     5.3347    25.8379 </r>
       <r>    -2.8978     4.3217    26.2291 </r>
       <r>    -2.8073     7.9346    26.9472 </r>
       <r>    -2.7168     6.6911    27.5528 </r>
       <r>    -2.6263     2.8431    27.8102 </r>
       <r>    -2.5358     2.5312    28.0393 </r>
       <r>    -2.4452     2.3043    28.2478 </r>
       <r>    -2.3547     2.6694    28.4894 </r>
       <r>    -2.2642     2.7076    28.7345 </r>
       <r>    -2.1737     2.7811    28.9862 </r>
       <r>    -2.0832     4.4479    29.3888 </r>
       <r>    -1.9927     3.9358    29.7450 </r>
       <r>    -1.9022     4.0737    30.1137 </r>
       <r>    -1.8117     6.8194    30.7309 </r>
       <r>    -1.7212     8.5184    31.5019 </r>
       <r>    -1.6307     4.6733    31.9249 </r>
       <r>    -1.5402     0.7939    31.9967 </r>
       <r>    -1.4497     0.0356    32.0000 </r>
       <r>    -1.3591     0.0004    32.0000 </r>
       <r>    -1.2686     0.0020    32.0002 </r>
       <r>    -1.1781     0.0657    32.0061 </r>
       <r>    -1.0876     0.4946    32.0509 </r>
       <r>    -0.9971     0.8972    32.1321 </r>
       <r>    -0.9066     0.7419    32.1993 </r>
       <r>    -0.8161     1.8356    32.3654 </r>
       <r>    -0.7256     3.0336    32.6400 </r>
       <r>    -0.6351     3.8421    32.9877 </r>
       <r>    -0.5446     6.2925    33.5572 </r>
       <r>    -0.4541     6.4812    34.1438 </r>
       <r>    -0.3635     6.8525    34.7640 </r>
       <r>    -0.2730     7.3740    35.4314 </r>
       <r>    -0.1825     6.2615    35.9982 </r>
       <r>    -0.0920     7.5426    36.6808 </r>
       <r>    -0.0015     8.9666    37.4924 </r>
       <r>     0.0890     7.1104    38.1359 </r>
       <r>     0.1795     4.7352    38.5645 </r>
       <r>     0.2700     4.1712    38.9420 </r>
       <r>     0.3605     7.1752    39.5915 </r>
       <r>     0.4510    10.0655    40.5025 </r>
       <r>     0.5415    10.3636    41.4405 </r>
       <r>     0.6320    11.2756    42.4610 </r>
       <r>     0.7226     9.7369    43.3423 </r>
       <r>     0.8131     8.9838    44.1554 </r>
       <r>     0.9036    10.1954    45.0782 </r>
       <r>     0.9941     9.7403    45.9597 </r>
       <r>     1.0846     6.8165    46.5767 </r>
       <r>     1.1751     5.7406    47.0963 </r>
       <r>     1.2656     9.0956    47.9195 </r>
       <r>     1.3561    12.8673    49.0841 </r>
       <r>     1.4466    10.2740    50.0140 </r>
       <r>     1.5371     4.7638    50.4452 </r>
       <r>     1.6276     4.4943    50.8519 </r>
       <r>     1.7181     9.3591    51.6990 </r>
       <r>     1.8087    12.9336    52.8696 </r>
       <r>     1.8992    12.9888    54.0452 </r>
       <r>     1.9897    12.3229    55.1605 </r>
       <r>     2.0802    11.7612    56.2250 </r>
       <r>     2.1707    12.6389    57.3690 </r>
       <r>     2.2612    11.3609    58.3972 </r>
       <r>     2.3517     9.8118    59.2853 </r>
       <r>     2.4422    11.2487    60.3034 </r>
       <r>     2.5327    14.7676    61.6400 </r>
       <r>     2.6232    10.5412    62.5940 </r>
       <r>     2.7137     6.5920    63.1907 </r>
       <r>     2.8042     9.2810    64.0307 </r>
       <r>     2.8948    10.7191    65.0009 </r>
       <r>     2.9853    11.7750    66.0666 </r>
       <r>     3.0758    13.9116    67.3257 </r>
       <r>     3.1663    16.6684    68.8343 </r>
       <r>     3.2568    16.6503    70.3413 </r>
       <r>     3.3473    15.2627    71.7227 </r>
       <r>     3.4378    11.4363    72.7578 </r>
       <r>     3.5283     8.1381    73.4944 </r>
       <r>     3.6188    10.9641    74.4867 </r>
       <r>     3.7093    12.4742    75.6157 </r>
       <r>     3.7998    13.1509    76.8060 </r>
       <r>     3.8904    13.1932    78.0001 </r>
       <r>     3.9809    10.9691    78.9929 </r>
       <r>     4.0714    12.4794    80.1224 </r>
       <r>     4.1619    15.7677    81.5495 </r>
       <r>     4.2524    18.4178    83.2165 </r>
       <r>     4.3429    19.7410    85.0032 </r>
       <r>     4.4334    17.8761    86.6211 </r>
       <r>     4.5239    12.6458    87.7657 </r>
       <r>     4.6144    14.2511    89.0555 </r>
       <r>     4.7049    15.6722    90.4740 </r>
       <r>     4.7954    11.9326    91.5540 </r>
       <r>     4.8859    10.8139    92.5328 </r>
       <r>     4.9765    13.3854    93.7443 </r>
       <r>     5.0670    14.2199    95.0313 </r>
       <r>     5.1575    14.4091    96.3354 </r>
       <r>     5.2480    13.1435    97.5250 </r>
       <r>     5.3385    10.5483    98.4797 </r>
       <r>     5.4290    11.1117    99.4854 </r>
       <r>     5.5195    13.7786   100.7325 </r>
       <r>     5.6100    17.8441   102.3476 </r>
       <r>     5.7005    15.7795   103.7757 </r>
       <r>     5.7910    12.9667   104.9493 </r>
       <r>     5.8815    11.8803   106.0246 </r>
       <r>     5.9720    11.7767   107.0905 </r>
       <r>     6.0626    14.2129   108.3769 </r>
       <r>     6.1531    13.7877   109.6248 </r>
       <r>     6.2436    13.7957   110.8734 </r>
       <r>     6.3341    13.0215   112.0520 </r>
       <r>     6.4246    11.6742   113.1086 </r>
       <r>     6.5151     9.5867   113.9763 </r>
       <r>     6.6056    11.0292   114.9745 </r>
       <r>     6.6961    12.8005   116.1331 </r>
       <r>     6.7866     9.4538   116.9887 </r>
       <r>     6.8771     6.4755   117.5748 </r>
       <r>     6.9676     6.4534   118.1589 </r>
       <r>     7.0582     7.3352   118.8228 </r>
       <r>     7.1487     9.4476   119.6779 </r>
       <r>     7.2392    11.3279   120.7031 </r>
       <r>     7.3297     9.1008   121.5268 </r>
       <r>     7.4202     7.7939   122.2323 </r>
       <r>     7.5107     6.4735   122.8182 </r>
       <r>     7.6012     6.4006   123.3975 </r>
       <r>     7.6917     9.0328   124.2150 </r>
       <r>     7.7822     8.4877   124.9832 </r>
       <r>     7.8727     6.6575   125.5858 </r>
       <r>     7.9632     4.5784   126.0002 </r>
       <r>     8.0537     1.6639   126.1508 </r>
       <r>     8.1443     0.7308   126.2169 </r>
       <r>     8.2348     3.4116   126.5257 </r>
       <r>     8.3253     5.0975   126.9870 </r>
       <r>     8.4158     1.9327   127.1620 </r>
       <r>     8.5063     0.7259   127.2277 </r>
       <r>     8.5968     0.8358   127.3033 </r>
       <r>     8.6873     0.4407   127.3432 </r>
       <r>     8.7778     0.7336   127.4096 </r>
       <r>     8.8683     1.3336   127.5303 </r>
       <r>     8.9588     1.9538   127.7071 </r>
       <r>     9.0493     1.7469   127.8652 </r>
       <r>     9.1398     1.0860   127.9635 </r>
       <r>     9.2304     0.3676   127.9968 </r>
       <r>     9.3209     0.0345   127.9999 </r>
       <r>     9.4114     0.0007   128.0000 </r>
       <r>     9.5019     0.0000   128.0000 </r>
       <r>     9.5924     0.0000   128.0000 </r>
       <r>     9.6829     0.0014   128.0001 </r>
       <r>     9.7734     0.0412   128.0039 </r>
       <r>     9.8639     0.3033   128.0313 </r>
       <r>     9.9544     0.8318   128.1066 </r>
       <r>    10.0449     1.4016   128.2334 </r>
       <r>    10.1354     1.0402   128.3276 </r>
       <r>    10.2259     0.8634   128.4057 </r>
       <r>    10.3165     1.4452   128.5365 </r>
       <r>    10.4070     1.2344   128.6483 </r>
       <r>    10.4975     1.1667   128.7539 </r>
       <r>    10.5880     2.9565   129.0215 </r>
       <r>    10.6785     5.5266   129.5217 </r>
       <r>    10.7690     4.8206   129.9580 </r>
       <r>    10.8595     3.2836   130.2552 </r>
       <r>    10.9500     2.9486   130.5220 </r>
       <r>    11.0405     3.6187   130.8496 </r>
       <r>    11.1310     5.4789   131.3454 </r>
       <r>    11.2215     8.4868   132.1136 </r>
       <r>    11.3121    10.2134   133.0380 </r>
       <r>    11.4026     9.4732   133.8954 </r>
       <r>    11.4931    10.0460   134.8046 </r>
       <r>    11.5836     9.6836   135.6811 </r>
       <r>    11.6741     9.1598   136.5101 </r>
       <r>    11.7646    10.9867   137.5045 </r>
       <r>    11.8551    10.7929   138.4814 </r>
       <r>    11.9456    10.2566   139.4097 </r>
       <r>    12.0361    10.8917   140.3955 </r>
       <r>    12.1266     9.5674   141.2614 </r>
       <r>    12.2171     8.6471   142.0440 </r>
       <r>    12.3076     9.5704   142.9102 </r>
       <r>    12.3982    10.4974   143.8603 </r>
       <r>    12.4887    10.4453   144.8057 </r>
       <r>    12.5792     9.9153   145.7031 </r>
       <r>    12.6697     9.8923   146.5985 </r>
       <r>    12.7602     8.7240   147.3881 </r>
       <r>    12.8507    11.0357   148.3869 </r>
       <r>    12.9412    11.5500   149.4323 </r>
       <r>    13.0317    12.7167   150.5832 </r>
       <r>    13.1222    13.2699   151.7843 </r>
       <r>    13.2127    10.7710   152.7592 </r>
       <r>    13.3032     8.7818   153.5540 </r>
       <r>    13.3937     8.7340   154.3445 </r>
       <r>    13.4843     8.9411   155.1537 </r>
       <r>    13.5748     9.1576   155.9826 </r>
       <r>    13.6653    10.6050   156.9424 </r>
       <r>    13.7558    13.8349   158.1946 </r>
       <r>    13.8463    15.8735   159.6313 </r>
       <r>    13.9368    13.0941   160.8164 </r>
       <r>    14.0273     9.4115   161.6682 </r>
       <r>    14.1178     6.6809   162.2729 </r>
       <r>    14.2083     6.8726   162.8949 </r>
       <r>    14.2988     9.7129   163.7740 </r>
       <r>    14.3893    12.2999   164.8873 </r>
       <r>    14.4798    12.3002   166.0006 </r>
       <r>    14.5704     8.5675   166.7760 </r>
       <r>    14.6609     3.6933   167.1103 </r>
       <r>    14.7514     2.8340   167.3668 </r>
       <r>    14.8419     3.2711   167.6628 </r>
       <r>    14.9324     2.2617   167.8675 </r>
       <r>    15.0229     0.7964   167.9396 </r>
       <r>    15.1134     0.4751   167.9826 </r>
       <r>    15.2039     0.1754   167.9985 </r>
       <r>    15.2944     0.0163   168.0000 </r>
       <r>    15.3849     0.0003   168.0000 </r>
       <r>    15.4754     0.0000   168.0000 </r>
       <r>    15.5660     0.0000   168.0000 </r>
       <r>    15.6565     0.0000   168.0000 </r>
       <r>    15.7470     0.0000   168.0000 </r>
       <r>    15.8375     0.0000   168.0000 </r>
       <r>    15.9280     0.0000   168.0000 </r>
       <r>    16.0185     0.0000   168.0000 </r>
       <r>    16.1090     0.0000   168.0000 </r>
       <r>    16.1995     0.0000   168.0000 </r>
       <r>    16.2900     0.0000   168.0000 </r>
      </set>
     </set>
    </array>
   </total>
  </dos>
 </calculation>
 <structure name="finalpos" >
  <crystal>
   <varray name="basis" >
    <v>      20.90726893       0.00000000       0.04740784 </v>
    <v>       0.00000000       3.11371249       0.00000000 </v>
    <v>      -1.41452415       0.00000000       5.22597024 </v>
   </varray>
   <i name="volume">    340.41541324 </i>
   <varray name="rec_basis" >
    <v>       0.04780092       0.00000000       0.01293837 </v>
    <v>       0.00000000       0.32116003       0.00000000 </v>
    <v>      -0.00043363       0.00000000       0.19123466 </v>
   </varray>
  </crystal>
  <varray name="positions" >
   <v>       0.00360558       0.50000000       0.83367385 </v>
   <v>       0.75264634       0.50000000       0.59123829 </v>
   <v>       0.62556408       0.50000000       0.79697790 </v>
   <v>       0.87508228       0.00000000       0.53675055 </v>
   <v>       0.62538378       0.00000000       0.28595351 </v>
   <v>       0.50360558       0.00000000       0.83367385 </v>
   <v>       0.25264634       0.00000000       0.59123829 </v>
   <v>       0.12556408       0.00000000       0.79697790 </v>
   <v>       0.37508228       0.50000000       0.53675055 </v>
   <v>       0.12538378       0.50000000       0.28595351 </v>
   <v>       0.00164765       0.00000000       0.33602355 </v>
   <v>       0.75013583       0.00000000       0.07887783 </v>
   <v>       0.87161015       0.50000000       0.04495598 </v>
   <v>       0.50164765       0.50000000       0.33602355 </v>
   <v>       0.25013583       0.50000000       0.07887783 </v>
   <v>       0.37161015       0.00000000       0.04495598 </v>
   <v>       0.64998154       0.00000000       0.98535312 </v>
   <v>       0.65267044       0.50000000       0.48316577 </v>
   <v>       0.77897737       0.50000000       0.93277710 </v>
   <v>       0.53020329       0.50000000       0.70960111 </v>
   <v>       0.78493784       0.00000000       0.46185749 </v>
   <v>       0.14998154       0.50000000       0.98535312 </v>
   <v>       0.15267044       0.00000000       0.48316577 </v>
   <v>       0.27897737       0.00000000       0.93277710 </v>
   <v>       0.03020329       0.00000000       0.70960111 </v>
   <v>       0.28493784       0.50000000       0.46185749 </v>
   <v>       0.90732838       0.00000000       0.25751504 </v>
   <v>       0.91097121       0.50000000       0.73295935 </v>
   <v>       0.52925424       0.00000000       0.18231956 </v>
   <v>       0.40732838       0.50000000       0.25751504 </v>
   <v>       0.41097121       0.00000000       0.73295935 </v>
   <v>       0.02925424       0.50000000       0.18231956 </v>
  </varray>
 </structure>
</modeling>
