<?xml version="1.0" encoding="ISO-8859-1"?>
<modeling>
 <generator>
  <i name="program" type="string">vasp </i>
  <i name="version" type="string">5.3.5  </i>
  <i name="subversion" type="string">31Mar14 (build Jun 20 2014 13:15:13) complex                          parallel </i>
  <i name="platform" type="string">LinuxIFC </i>
  <i name="date" type="string">2025 12 12 </i>
  <i name="time" type="string">12:17:32 </i>
 </generator>
 <incar>
  <i type="string" name="PREC">accurate</i>
  <i type="int" name="IALGO">    38</i>
  <i type="logical" name="ADDGRID"> T  </i>
  <i type="int" name="ISPIN">     2</i>
  <i type="int" name="NELM">   100</i>
  <i type="int" name="NELMIN">     4</i>
  <i name="EDIFF">      0.00000100</i>
  <i name="ENCUT">    500.00000000</i>
  <i type="logical" name="LREAL"> F  </i>
  <i type="int" name="ISMEAR">     0</i>
  <i name="SIGMA">      0.05000000</i>
  <i type="logical" name="LWAVE"> F  </i>
  <i type="logical" name="LCHARG"> F  </i>
  <i type="int" name="NELM">   100</i>
  <i type="logical" name="LDAU"> T  </i>
  <v name="LDAUU">      0.00000000      4.00000000      0.00000000</v>
  <v name="LDAUJ">      0.00000000      0.00000000      0.00000000</v>
 </incar>
 <kpoints>
  <generation param="Auto">
   <i name="subdivisionlength">     20.00000000 </i>
   <v type="int" name="divisions">       2        4        2 </v>
   <v name="usershift">      0.00000000       0.00000000       0.00000000 </v>
   <v name="genvec1">      0.50000000       0.00000000       0.00000000 </v>
   <v name="genvec2">      0.00000000       0.25000000       0.00000000 </v>
   <v name="genvec3">      0.00000000       0.00000000       0.50000000 </v>
   <v name="shift">      0.00000000       0.00000000       0.00000000 </v>
  </generation>
  <varray name="kpointlist" >
   <v>       0.00000000       0.00000000       0.00000000 </v>
   <v>       0.50000000       0.00000000       0.00000000 </v>
   <v>       0.00000000       0.25000000       0.00000000 </v>
   <v>       0.50000000       0.25000000       0.00000000 </v>
   <v>       0.00000000       0.50000000       0.00000000 </v>
   <v>       0.50000000       0.50000000       0.00000000 </v>
   <v>       0.00000000       0.00000000       0.50000000 </v>
   <v>       0.50000000       0.00000000       0.50000000 </v>
   <v>       0.00000000       0.25000000       0.50000000 </v>
   <v>       0.50000000       0.25000000       0.50000000 </v>
   <v>       0.00000000       0.50000000       0.50000000 </v>
   <v>       0.50000000       0.50000000       0.50000000 </v>
  </varray>
  <varray name="weights" >
   <v>       0.06250000 </v>
   <v>       0.06250000 </v>
   <v>       0.12500000 </v>
   <v>       0.12500000 </v>
   <v>       0.06250000 </v>
   <v>       0.06250000 </v>
   <v>       0.06250000 </v>
   <v>       0.06250000 </v>
   <v>       0.12500000 </v>
   <v>       0.12500000 </v>
   <v>       0.06250000 </v>
   <v>       0.06250000 </v>
  </varray>
 </kpoints>
 <parameters>
  <separator name="general" >
   <i type="string" name="SYSTEM">unknown system</i>
   <i type="logical" name="LCOMPAT"> F  </i>
  </separator>
  <separator name="electronic" >
   <i type="string" name="PREC">accura</i>
   <i name="ENMAX">    500.00000000</i>
   <i name="ENAUG">    586.98000000</i>
   <i name="EDIFF">      0.00000100</i>
   <i type="int" name="IALGO">    38</i>
   <i type="int" name="IWAVPR">    10</i>
   <i type="int" name="NBANDS">   176</i>
   <i name="NELECT">    264.00000000</i>
   <i type="int" name="TURBO">     0</i>
   <i type="int" name="IRESTART">     0</i>
   <i type="int" name="NREBOOT">     0</i>
   <i type="int" name="NMIN">     0</i>
   <i name="EREF">      0.00000000</i>
   <separator name="electronic smearing" >
    <i type="int" name="ISMEAR">     0</i>
    <i name="SIGMA">      0.05000000</i>
    <i name="KSPACING">      0.50000000</i>
    <i type="logical" name="KGAMMA"> T  </i>
   </separator>
   <separator name="electronic projectors" >
    <i type="logical" name="LREAL"> F  </i>
    <v name="ROPT">      0.00000000      0.00000000      0.00000000</v>
    <i type="int" name="LMAXPAW">  -100</i>
    <i type="int" name="LMAXMIX">     2</i>
    <i type="logical" name="NLSPLINE"> F  </i>
   </separator>
   <separator name="electronic startup" >
    <i type="int" name="ISTART">     0</i>
    <i type="int" name="ICHARG">     2</i>
    <i type="int" name="INIWAV">     1</i>
   </separator>
   <separator name="electronic spin" >
    <i type="int" name="ISPIN">     2</i>
    <i type="logical" name="LNONCOLLINEAR"> F  </i>
    <v name="MAGMOM">      1.00000000      1.00000000      1.00000000      1.00000000      1.00000000      1.00000000      1.00000000      1.00000000      1.00000000      1.00000000      1.00000000      1.00000000      1.00000000      1.00000000      1.00000000      1.00000000      1.00000000      1.00000000      1.00000000      1.00000000
      1.00000000      1.00000000      1.00000000      1.00000000      1.00000000      1.00000000      1.00000000      1.00000000      1.00000000      1.00000000      1.00000000      1.00000000</v>
    <i name="NUPDOWN">     -1.00000000</i>
    <i type="logical" name="LSORBIT"> F  </i>
    <v name="SAXIS">      0.00000000      0.00000000      1.00000000</v>
    <i type="logical" name="LSPIRAL"> F  </i>
    <v name="QSPIRAL">      0.00000000      0.00000000      0.00000000</v>
    <i type="logical" name="LZEROZ"> F  </i>
   </separator>
   <separator name="electronic exchange-correlation" >
    <i type="logical" name="LASPH"> F  </i>
    <i type="logical" name="LMETAGGA"> F  </i>
   </separator>
   <separator name="electronic convergence" >
    <i type="int" name="NELM">   100</i>
    <i type="int" name="NELMDL">    -5</i>
    <i type="int" name="NELMIN">     4</i>
    <i name="ENINI">    500.00000000</i>
    <separator name="electronic convergence detail" >
     <i type="logical" name="LDIAG"> T  </i>
     <i type="logical" name="LSUBROT"> F  </i>
     <i name="WEIMIN">      0.00000000</i>
     <i name="EBREAK">      0.00000000</i>
     <i name="DEPER">      0.30000000</i>
     <i type="int" name="NRMM">     4</i>
     <i name="TIME">      0.40000000</i>
    </separator>
   </separator>
   <separator name="electronic mixer" >
    <i name="AMIX">      0.40000000</i>
    <i name="BMIX">      1.00000000</i>
    <i name="AMIN">      0.10000000</i>
    <i name="AMIX_MAG">      1.60000000</i>
    <i name="BMIX_MAG">      1.00000000</i>
    <separator name="electronic mixer details" >
     <i type="int" name="IMIX">     4</i>
     <i type="int" name="MAXMIX">   -45</i>
     <i name="WC">    100.00000000</i>
     <i type="int" name="INIMIX">     1</i>
     <i type="int" name="MIXPRE">     1</i>
     <i type="int" name="MREMOVE">     5</i>
    </separator>
   </separator>
   <separator name="electronic dipolcorrection" >
    <i type="logical" name="LDIPOL"> F  </i>
    <i type="logical" name="LMONO"> F  </i>
    <i type="int" name="IDIPOL">     0</i>
    <i name="EPSILON">      1.00000000</i>
    <v name="DIPOL">   -100.00000000   -100.00000000   -100.00000000</v>
    <i name="EFIELD">      0.00000000</i>
   </separator>
  </separator>
  <separator name="grids" >
   <i type="int" name="NGX">    72</i>
   <i type="int" name="NGY">    42</i>
   <i type="int" name="NGZ">    72</i>
   <i type="int" name="NGXF">   144</i>
   <i type="int" name="NGYF">    84</i>
   <i type="int" name="NGZF">   144</i>
   <i type="logical" name="ADDGRID"> T  </i>
  </separator>
  <separator name="ionic" >
   <i type="int" name="NSW">     0</i>
   <i type="int" name="IBRION">    -1</i>
   <i type="int" name="ISIF">     2</i>
   <i name="PSTRESS">      0.00000000</i>
   <i name="EDIFFG">      0.00001000</i>
   <i type="int" name="NFREE">     0</i>
   <i name="POTIM">      0.50000000</i>
   <i name="SMASS">     -3.00000000</i>
   <i name="SCALEE">      1.00000000</i>
  </separator>
  <separator name="ionic md" >
   <i name="TEBEG">      0.00010000</i>
   <i name="TEEND">      0.00010000</i>
   <i type="int" name="NBLOCK">     1</i>
   <i type="int" name="KBLOCK">     1</i>
   <i type="int" name="NPACO">   256</i>
   <i name="APACO">     16.00000000</i>
  </separator>
  <separator name="symmetry" >
   <i type="int" name="ISYM">     2</i>
   <i name="SYMPREC">      0.00001000</i>
  </separator>
  <separator name="dos" >
   <i type="logical" name="LORBIT"> F  </i>
   <v name="RWIGS">     -1.00000000     -1.00000000     -1.00000000</v>
   <i type="int" name="NEDOS">   301</i>
   <i name="EMIN">     10.00000000</i>
   <i name="EMAX">    -10.00000000</i>
   <i name="EFERMI">      0.00000000</i>
  </separator>
  <separator name="writing" >
   <i type="int" name="NWRITE">     2</i>
   <i type="logical" name="LWAVE"> F  </i>
   <i type="logical" name="LCHARG"> F  </i>
   <i type="logical" name="LPARD"> F  </i>
   <i type="logical" name="LVTOT"> F  </i>
   <i type="logical" name="LVHAR"> F  </i>
   <i type="logical" name="LELF"> F  </i>
   <i type="logical" name="LOPTICS"> F  </i>
   <v name="STM">      0.00000000      0.00000000      0.00000000      0.00000000      0.00000000      0.00000000      0.00000000</v>
  </separator>
  <separator name="performance" >
   <i type="int" name="NPAR">     4</i>
   <i type="int" name="NSIM">     4</i>
   <i type="int" name="NBLK">    -1</i>
   <i type="logical" name="LPLANE"> T  </i>
   <i type="logical" name="LSCALAPACK"> T  </i>
   <i type="logical" name="LSCAAWARE"> F  </i>
   <i type="logical" name="LSCALU"> F  </i>
   <i type="logical" name="LASYNC"> F  </i>
   <i type="logical" name="LORBITALREAL"> F  </i>
  </separator>
  <separator name="miscellaneous" >
   <i type="int" name="IDIOT">     3</i>
   <i type="logical" name="LMUSIC"> F  </i>
   <v name="POMASS">     87.62000000     63.54600000     16.00000000</v>
   <v name="DARWINR">      0.00000000      0.00000000      0.00000000</v>
   <v name="DARWINV">      1.00000000      1.00000000      1.00000000</v>
   <i type="logical" name="LCORR"> T  </i>
  </separator>
  <i type="logical" name="GGA_COMPAT"> T  </i>
  <i type="logical" name="LBERRY"> F  </i>
  <i type="int" name="ICORELEVEL">     0</i>
  <i type="logical" name="LDAU"> T  </i>
  <v type="int" name="LDAUTYPE">     2</v>
  <v type="int" name="LDAUL">     2</v>
  <v name="LDAUU">      0.00000000</v>
  <v name="LDAUJ">      0.00000000</v>
  <i type="int" name="LDAUPRINT">     0</i>
  <i type="int" name="I_CONSTRAINED_M">     0</i>
  <separator name="electronic exchange-correlation" >
   <i type="string" name="GGA">--</i>
   <i type="int" name="VOSKOWN">     0</i>
   <i type="logical" name="LHFCALC"> F  </i>
   <i type="string" name="PRECFOCK"></i>
   <i type="logical" name="LSYMGRAD"> F  </i>
   <i type="logical" name="LHFONE"> F  </i>
   <i type="logical" name="LRHFCALC"> F  </i>
   <i type="logical" name="LTHOMAS"> F  </i>
   <i type="logical" name="LMODELHF"> F  </i>
   <i name="ENCUT4O">     -1.00000000</i>
   <i type="int" name="EXXOEP">     0</i>
   <i type="int" name="FOURORBIT">     0</i>
   <i name="AEXX">      0.00000000</i>
   <i name="HFALPHA">      0.00000000</i>
   <i name="MCALPHA">      0.00000000</i>
   <i name="ALDAX">      1.00000000</i>
   <i name="AGGAX">      1.00000000</i>
   <i name="ALDAC">      1.00000000</i>
   <i name="AGGAC">      1.00000000</i>
   <i type="int" name="NKREDX">     1</i>
   <i type="int" name="NKREDY">     1</i>
   <i type="int" name="NKREDZ">     1</i>
   <i type="logical" name="SHIFTRED"> F  </i>
   <i type="logical" name="ODDONLY"> F  </i>
   <i type="logical" name="EVENONLY"> F  </i>
   <i type="int" name="LMAXFOCK">     0</i>
   <i type="int" name="NMAXFOCKAE">     0</i>
   <i type="logical" name="LFOCKAEDFT"> F  </i>
   <i name="HFSCREEN">      0.00000000</i>
   <i name="HFSCREENC">      0.00000000</i>
   <i type="int" name="NBANDSGWLOW">     0</i>
  </separator>
  <separator name="vdW DFT" >
   <i type="logical" name="LUSE_VDW"> F  </i>
   <i name="Zab_VDW">     -0.84910000</i>
   <i name="PARAM1">      0.12340000</i>
   <i name="PARAM2">      1.00000000</i>
   <i name="PARAM3">      0.00000000</i>
  </separator>
  <separator name="model GW" >
   <i type="int" name="MODEL_GW">     0</i>
   <i name="MODEL_EPS0">      9.60000000</i>
   <i name="MODEL_ALPHA">      1.00000000</i>
  </separator>
  <separator name="linear response parameters" >
   <i type="logical" name="LEPSILON"> F  </i>
   <i type="logical" name="LRPA"> F  </i>
   <i type="logical" name="LNABLA"> F  </i>
   <i type="logical" name="LVEL"> F  </i>
   <i type="int" name="KINTER">     0</i>
   <i name="CSHIFT">      0.10000000</i>
   <i name="OMEGAMAX">     -1.00000000</i>
   <i name="DEG_THRESHOLD">      0.00200000</i>
  </separator>
  <separator name="orbital magnetization" >
   <i type="logical" name="NUCIND"> F  </i>
   <v name="MAGPOS">      0.00000000      0.00000000      0.00000000</v>
   <i type="logical" name="LNICSALL"> T  </i>
   <i type="logical" name="ORBITALMAG"> F  </i>
   <i type="logical" name="LMAGBLOCH"> F  </i>
   <i type="logical" name="LCHIMAG"> F  </i>
   <i type="logical" name="LGAUGE"> T  </i>
   <i type="int" name="MAGATOM">     0</i>
   <v name="MAGDIPOL">      0.00000000      0.00000000      0.00000000</v>
   <v name="AVECCONST">      0.00000000      0.00000000      0.00000000</v>
  </separator>
  <separator name="response functions" >
   <i type="logical" name="LADDER"> F  </i>
   <i type="logical" name="LFXC"> F  </i>
   <i type="logical" name="LHARTREE"> T  </i>
   <i type="int" name="IBSE">     0</i>
   <i type="logical" name="LTCTE"> F  </i>
   <i type="logical" name="LTETE"> F  </i>
   <i type="logical" name="LTRIPLET"> F  </i>
   <i type="logical" name="LFXCEPS"> F  </i>
   <i type="logical" name="LFXHEG"> F  </i>
   <i type="logical" name="L2ORDER"> F  </i>
   <i type="logical" name="LUSEW"> F  </i>
   <i name="ENCUTGW">     -2.00000000</i>
   <i name="ENCUTGWSOFT">     -2.00000000</i>
   <i name="ENCUTLF">     -1.00000000</i>
   <i type="int" name="LMAXMP2">    -1</i>
   <i name="SCISSOR">      0.00000000</i>
   <i type="int" name="NOMEGA">     0</i>
   <i type="int" name="NOMEGAR">     0</i>
   <i type="int" name="NBANDSGW">    -1</i>
   <i type="int" name="NBANDSO">    -1</i>
   <i type="int" name="NBANDSV">    -1</i>
   <i type="int" name="NELM">   100</i>
   <i type="int" name="DIM">     3</i>
   <i type="int" name="ANTIRES">     0</i>
   <i name="OMEGAMAX">    -30.00000000</i>
   <i name="OMEGAMIN">    -30.00000000</i>
   <i name="OMEGATL">   -200.00000000</i>
   <i type="int" name="OMEGAGRID">     0</i>
   <i name="CSHIFT">     -0.10000000</i>
   <i type="logical" name="SELFENERGY"> F  </i>
   <i type="logical" name="LSPECTRAL"> F  </i>
   <i type="logical" name="ODDONLYGW"> F  </i>
   <i type="logical" name="EVENONLYGW"> F  </i>
   <i type="int" name="NKREDLFX">     1</i>
   <i type="int" name="NKREDLFY">     1</i>
   <i type="int" name="NKREDLFZ">     1</i>
   <i type="int" name="MAXMEM">  1800</i>
   <i type="int" name="TELESCOPE">     0</i>
   <i type="int" name="TAUPAR">     1</i>
  </separator>
  <separator name="External order field" >
   <i name="OFIELD_KAPPA">      0.00000000</i>
   <v name="OFIELD_K">      0.00000000      0.00000000      0.00000000</v>
   <i name="OFIELD_Q6_NEAR">      0.00000000</i>
   <i name="OFIELD_Q6_FAR">      0.00000000</i>
   <i name="OFIELD_A">      0.00000000</i>
  </separator>
 </parameters>
 <atominfo>
  <atoms>      32 </atoms>
  <types>       3 </types>
  <array name="atoms" >
   <dimension dim="1">ion</dimension>
   <field type="string">element</field>
   <field type="int">atomtype</field>
   <set>
    <rc><c>Sr</c><c>   1</c></rc>
    <rc><c>Sr</c><c>   1</c></rc>
    <rc><c>Sr</c><c>   1</c></rc>
    <rc><c>Sr</c><c>   1</c></rc>
    <rc><c>Sr</c><c>   1</c></rc>
    <rc><c>Sr</c><c>   1</c></rc>
    <rc><c>Sr</c><c>   1</c></rc>
    <rc><c>Sr</c><c>   1</c></rc>
    <rc><c>Cu</c><c>   2</c></rc>
    <rc><c>Cu</c><c>   2</c></rc>
    <rc><c>Cu</c><c>   2</c></rc>
    <rc><c>Cu</c><c>   2</c></rc>
    <rc><c>Cu</c><c>   2</c></rc>
    <rc><c>Cu</c><c>   2</c></rc>
    <rc><c>Cu</c><c>   2</c></rc>
    <rc><c>Cu</c><c>   2</c></rc>
    <rc><c>O </c><c>   3</c></rc>
    <rc><c>O </c><c>   3</c></rc>
    <rc><c>O </c><c>   3</c></rc>
    <rc><c>O </c><c>   3</c></rc>
    <rc><c>O </c><c>   3</c></rc>
    <rc><c>O </c><c>   3</c></rc>
    <rc><c>O </c><c>   3</c></rc>
    <rc><c>O </c><c>   3</c></rc>
    <rc><c>O </c><c>   3</c></rc>
    <rc><c>O </c><c>   3</c></rc>
    <rc><c>O </c><c>   3</c></rc>
    <rc><c>O </c><c>   3</c></rc>
    <rc><c>O </c><c>   3</c></rc>
    <rc><c>O </c><c>   3</c></rc>
    <rc><c>O </c><c>   3</c></rc>
    <rc><c>O </c><c>   3</c></rc>
   </set>
  </array>
  <array name="atomtypes" >
   <dimension dim="1">type</dimension>
   <field type="int">atomspertype</field>
   <field type="string">element</field>
   <field>mass</field>
   <field>valence</field>
   <field type="string">pseudopotential</field>
   <set>
    <rc><c>   8</c><c>Sr</c><c>     87.62000000</c><c>     10.00000000</c><c>  PAW_PBE Sr_sv 07Sep2000               </c></rc>
    <rc><c>   8</c><c>Cu</c><c>     63.54600000</c><c>     11.00000000</c><c>  PAW_PBE Cu 22Jun2005                  </c></rc>
    <rc><c>  16</c><c>O </c><c>     16.00000000</c><c>      6.00000000</c><c>  PAW_PBE O_s 07Sep2000                 </c></rc>
   </set>
  </array>
 </atominfo>
 <structure name="initialpos" >
  <crystal>
   <varray name="basis" >
    <v>       9.79795897       0.00000000       0.00000000 </v>
    <v>       0.00000000       5.65685425       0.00000000 </v>
    <v>      -3.26598632       0.00000000       9.23760431 </v>
   </varray>
   <i name="volume">    512.00000000 </i>
   <varray name="rec_basis" >
    <v>       0.10206207       0.00000000       0.03608439 </v>
    <v>       0.00000000       0.17677670       0.00000000 </v>
    <v>       0.00000000       0.00000000       0.10825318 </v>
   </varray>
  </crystal>
  <varray name="positions" >
   <v>       0.87500000       0.00000000       0.62500000 </v>
   <v>       0.62500000       0.00000000       0.87500000 </v>
   <v>       0.37500000       0.00000000       0.12500000 </v>
   <v>       0.62500000       0.50000000       0.37500000 </v>
   <v>       0.37500000       0.50000000       0.62500000 </v>
   <v>       0.12500000       0.50000000       0.87500000 </v>
   <v>       0.87500000       0.50000000       0.12500000 </v>
   <v>       0.12500000       0.00000000       0.37500000 </v>
   <v>       0.00000000       0.50000000       0.50000000 </v>
   <v>       0.25000000       0.00000000       0.75000000 </v>
   <v>       0.50000000       0.50000000       0.00000000 </v>
   <v>       0.75000000       0.00000000       0.25000000 </v>
   <v>       0.50000000       0.00000000       0.50000000 </v>
   <v>       0.75000000       0.50000000       0.75000000 </v>
   <v>       0.00000000       0.00000000       0.00000000 </v>
   <v>       0.25000000       0.50000000       0.25000000 </v>
   <v>       0.37500000       0.75000000       0.87500000 </v>
   <v>       0.62500000       0.25000000       0.12500000 </v>
   <v>       0.37500000       0.25000000       0.87500000 </v>
   <v>       0.62500000       0.75000000       0.12500000 </v>
   <v>       0.87500000       0.50000000       0.62500000 </v>
   <v>       0.12500000       0.00000000       0.87500000 </v>
   <v>       0.87500000       0.00000000       0.12500000 </v>
   <v>       0.62500000       0.00000000       0.37500000 </v>
   <v>       0.87500000       0.25000000       0.87500000 </v>
   <v>       0.12500000       0.75000000       0.12500000 </v>
   <v>       0.87500000       0.75000000       0.87500000 </v>
   <v>       0.12500000       0.25000000       0.12500000 </v>
   <v>       0.37500000       0.00000000       0.62500000 </v>
   <v>       0.62500000       0.50000000       0.87500000 </v>
   <v>       0.37500000       0.50000000       0.12500000 </v>
   <v>       0.12500000       0.50000000       0.37500000 </v>
  </varray>
 </structure>
 <calculation>
  <scstep>
   <time name="dav">   12.46   12.47</time>
   <time name="total">   12.86   12.88</time>
   <energy>
    <i name="alphaZ">   1197.30728288 </i>
    <i name="ewald"> -16850.81406893 </i>
    <i name="hartreedc">  -8037.29576185 </i>
    <i name="XCdc">   1086.35810353 </i>
    <i name="pawpsdc">  20377.93945936 </i>
    <i name="pawaedc"> -21035.46554250 </i>
    <i name="eentropy">     -0.01147931 </i>
    <i name="bandstr">   1960.61720834 </i>
    <i name="atom">  24790.01456472 </i>
    <i name="e_fr_energy">   3488.64976624 </i>
    <i name="e_wo_entrp">   3488.66124555 </i>
    <i name="e_0_energy">   3488.65550590 </i>
   </energy>
  </scstep>
  <scstep>
   <time name="dav">   12.62   12.63</time>
   <time name="total">   12.63   12.65</time>
   <energy>
    <i name="e_fr_energy">    417.64121693 </i>
    <i name="e_wo_entrp">    417.65168979 </i>
    <i name="e_0_energy">    417.64645336 </i>
   </energy>
  </scstep>
  <scstep>
   <time name="dav">   12.64   12.65</time>
   <time name="total">   12.64   12.67</time>
   <energy>
    <i name="e_fr_energy">   -138.64436274 </i>
    <i name="e_wo_entrp">   -138.62306898 </i>
    <i name="e_0_energy">   -138.63371586 </i>
   </energy>
  </scstep>
  <scstep>
   <time name="dav">   16.37   16.39</time>
   <time name="total">   16.38   16.40</time>
   <energy>
    <i name="e_fr_energy">   -190.31297345 </i>
    <i name="e_wo_entrp">   -190.28773248 </i>
    <i name="e_0_energy">   -190.30035296 </i>
   </energy>
  </scstep>
  <scstep>
   <time name="dav">   20.01   20.03</time>
   <time name="total">   20.80   20.84</time>
   <energy>
    <i name="e_fr_energy">   -193.49301417 </i>
    <i name="e_wo_entrp">   -193.46766262 </i>
    <i name="e_0_energy">   -193.48033839 </i>
   </energy>
  </scstep>
  <scstep>
   <time name="dav">   17.57   17.59</time>
   <time name="total">   18.75   18.78</time>
   <energy>
    <i name="e_fr_energy">   -170.31296096 </i>
    <i name="e_wo_entrp">   -170.29098959 </i>
    <i name="e_0_energy">   -170.30197527 </i>
   </energy>
  </scstep>
  <scstep>
   <time name="dav">   17.20   17.22</time>
   <time name="total">   18.38   18.41</time>
   <energy>
    <i name="e_fr_energy">   -155.67865878 </i>
    <i name="e_wo_entrp">   -155.66350682 </i>
    <i name="e_0_energy">   -155.67108280 </i>
   </energy>
  </scstep>
  <scstep>
   <time name="dav">   17.72   17.73</time>
   <time name="total">   18.91   18.93</time>
   <energy>
    <i name="e_fr_energy">   -154.97046288 </i>
    <i name="e_wo_entrp">   -154.95391333 </i>
    <i name="e_0_energy">   -154.96218811 </i>
   </energy>
  </scstep>
  <scstep>
   <time name="dav">   18.07   18.07</time>
   <time name="total">   19.25   19.27</time>
   <energy>
    <i name="e_fr_energy">   -155.12204082 </i>
    <i name="e_wo_entrp">   -155.11211900 </i>
    <i name="e_0_energy">   -155.11707991 </i>
   </energy>
  </scstep>
  <scstep>
   <time name="dav">   16.87   16.87</time>
   <time name="total">   18.10   18.12</time>
   <energy>
    <i name="e_fr_energy">   -154.95936548 </i>
    <i name="e_wo_entrp">   -154.94299917 </i>
    <i name="e_0_energy">   -154.95118233 </i>
   </energy>
  </scstep>
  <scstep>
   <time name="dav">   17.42   17.43</time>
   <time name="total">   18.60   18.62</time>
   <energy>
    <i name="e_fr_energy">   -154.81861478 </i>
    <i name="e_wo_entrp">   -154.80148141 </i>
    <i name="e_0_energy">   -154.81004810 </i>
   </energy>
  </scstep>
  <scstep>
   <time name="dav">   17.94   17.94</time>
   <time name="total">   19.11   19.13</time>
   <energy>
    <i name="e_fr_energy">   -154.86399036 </i>
    <i name="e_wo_entrp">   -154.84983463 </i>
    <i name="e_0_energy">   -154.85691250 </i>
   </energy>
  </scstep>
  <scstep>
   <time name="dav">   17.35   17.35</time>
   <time name="total">   18.53   18.55</time>
   <energy>
    <i name="e_fr_energy">   -154.87211654 </i>
    <i name="e_wo_entrp">   -154.85845427 </i>
    <i name="e_0_energy">   -154.86528541 </i>
   </energy>
  </scstep>
  <scstep>
   <time name="dav">   16.68   16.69</time>
   <time name="total">   17.86   17.88</time>
   <energy>
    <i name="e_fr_energy">   -154.86992348 </i>
    <i name="e_wo_entrp">   -154.85685905 </i>
    <i name="e_0_energy">   -154.86339127 </i>
   </energy>
  </scstep>
  <scstep>
   <time name="dav">   18.04   18.05</time>
   <time name="total">   19.22   19.24</time>
   <energy>
    <i name="e_fr_energy">   -154.87168384 </i>
    <i name="e_wo_entrp">   -154.85887550 </i>
    <i name="e_0_energy">   -154.86527967 </i>
   </energy>
  </scstep>
  <scstep>
   <time name="dav">   17.04   17.05</time>
   <time name="total">   18.22   18.24</time>
   <energy>
    <i name="e_fr_energy">   -154.87247406 </i>
    <i name="e_wo_entrp">   -154.85983545 </i>
    <i name="e_0_energy">   -154.86615475 </i>
   </energy>
  </scstep>
  <scstep>
   <time name="dav">   18.57   18.58</time>
   <time name="total">   19.74   19.77</time>
   <energy>
    <i name="e_fr_energy">   -154.87275597 </i>
    <i name="e_wo_entrp">   -154.86028987 </i>
    <i name="e_0_energy">   -154.86652292 </i>
   </energy>
  </scstep>
  <scstep>
   <time name="dav">   17.93   17.93</time>
   <time name="total">   19.11   19.13</time>
   <energy>
    <i name="e_fr_energy">   -154.87294337 </i>
    <i name="e_wo_entrp">   -154.86057841 </i>
    <i name="e_0_energy">   -154.86676089 </i>
   </energy>
  </scstep>
  <scstep>
   <time name="dav">   17.23   17.31</time>
   <time name="total">   18.42   18.52</time>
   <energy>
    <i name="e_fr_energy">   -154.87302432 </i>
    <i name="e_wo_entrp">   -154.86074047 </i>
    <i name="e_0_energy">   -154.86688240 </i>
   </energy>
  </scstep>
  <scstep>
   <time name="dav">   15.38   15.38</time>
   <time name="total">   16.56   16.58</time>
   <energy>
    <i name="e_fr_energy">   -154.87295592 </i>
    <i name="e_wo_entrp">   -154.86061780 </i>
    <i name="e_0_energy">   -154.86678686 </i>
   </energy>
  </scstep>
  <scstep>
   <time name="dav">   17.05   17.06</time>
   <time name="total">   18.23   18.25</time>
   <energy>
    <i name="e_fr_energy">   -154.87309538 </i>
    <i name="e_wo_entrp">   -154.86096204 </i>
    <i name="e_0_energy">   -154.86702871 </i>
   </energy>
  </scstep>
  <scstep>
   <time name="dav">   18.11   18.11</time>
   <time name="total">   19.28   19.30</time>
   <energy>
    <i name="e_fr_energy">   -154.87315691 </i>
    <i name="e_wo_entrp">   -154.86112974 </i>
    <i name="e_0_energy">   -154.86714333 </i>
   </energy>
  </scstep>
  <scstep>
   <time name="dav">   14.52   14.52</time>
   <time name="total">   15.70   15.71</time>
   <energy>
    <i name="e_fr_energy">   -154.87318554 </i>
    <i name="e_wo_entrp">   -154.86121529 </i>
    <i name="e_0_energy">   -154.86720042 </i>
   </energy>
  </scstep>
  <scstep>
   <time name="dav">   11.73   11.75</time>
   <time name="total">   12.91   12.95</time>
   <energy>
    <i name="e_fr_energy">   -154.87319649 </i>
    <i name="e_wo_entrp">   -154.86125132 </i>
    <i name="e_0_energy">   -154.86722391 </i>
   </energy>
  </scstep>
  <scstep>
   <time name="dav">   16.10   16.11</time>
   <time name="total">   17.28   17.30</time>
   <energy>
    <i name="e_fr_energy">   -154.87313782 </i>
    <i name="e_wo_entrp">   -154.86111469 </i>
    <i name="e_0_energy">   -154.86712625 </i>
   </energy>
  </scstep>
  <scstep>
   <time name="dav">   17.44   17.45</time>
   <time name="total">   18.62   18.64</time>
   <energy>
    <i name="e_fr_energy">   -154.87305463 </i>
    <i name="e_wo_entrp">   -154.86091056 </i>
    <i name="e_0_energy">   -154.86698260 </i>
   </energy>
  </scstep>
  <scstep>
   <time name="dav">   17.99   17.99</time>
   <time name="total">   19.17   19.18</time>
   <energy>
    <i name="e_fr_energy">   -154.87293555 </i>
    <i name="e_wo_entrp">   -154.86061484 </i>
    <i name="e_0_energy">   -154.86677519 </i>
   </energy>
  </scstep>
  <scstep>
   <time name="dav">   18.14   18.14</time>
   <time name="total">   19.33   19.36</time>
   <energy>
    <i name="e_fr_energy">   -154.87275875 </i>
    <i name="e_wo_entrp">   -154.86018603 </i>
    <i name="e_0_energy">   -154.86647239 </i>
   </energy>
  </scstep>
  <scstep>
   <time name="dav">   16.27   16.28</time>
   <time name="total">   17.45   17.48</time>
   <energy>
    <i name="e_fr_energy">   -154.87283773 </i>
    <i name="e_wo_entrp">   -154.86027379 </i>
    <i name="e_0_energy">   -154.86655576 </i>
   </energy>
  </scstep>
  <scstep>
   <time name="dav">   17.14   17.15</time>
   <time name="total">   18.32   18.35</time>
   <energy>
    <i name="e_fr_energy">   -154.87297602 </i>
    <i name="e_wo_entrp">   -154.86066218 </i>
    <i name="e_0_energy">   -154.86681910 </i>
   </energy>
  </scstep>
  <scstep>
   <time name="dav">   17.76   17.81</time>
   <time name="total">   18.93   19.01</time>
   <energy>
    <i name="e_fr_energy">   -154.87311284 </i>
    <i name="e_wo_entrp">   -154.86114822 </i>
    <i name="e_0_energy">   -154.86713053 </i>
   </energy>
  </scstep>
  <scstep>
   <time name="dav">   18.48   18.51</time>
   <time name="total">   19.66   19.71</time>
   <energy>
    <i name="e_fr_energy">   -154.87324126 </i>
    <i name="e_wo_entrp">   -154.86155387 </i>
    <i name="e_0_energy">   -154.86739757 </i>
   </energy>
  </scstep>
  <scstep>
   <time name="dav">   17.63   17.69</time>
   <time name="total">   18.82   18.89</time>
   <energy>
    <i name="e_fr_energy">   -154.87332122 </i>
    <i name="e_wo_entrp">   -154.86172040 </i>
    <i name="e_0_energy">   -154.86752081 </i>
   </energy>
  </scstep>
  <scstep>
   <time name="dav">   17.02   17.02</time>
   <time name="total">   18.20   18.22</time>
   <energy>
    <i name="e_fr_energy">   -154.87336049 </i>
    <i name="e_wo_entrp">   -154.86184511 </i>
    <i name="e_0_energy">   -154.86760280 </i>
   </energy>
  </scstep>
  <scstep>
   <time name="dav">   11.63   11.64</time>
   <time name="total">   12.82   12.84</time>
   <energy>
    <i name="e_fr_energy">   -154.87336994 </i>
    <i name="e_wo_entrp">   -154.86187161 </i>
    <i name="e_0_energy">   -154.86762078 </i>
   </energy>
  </scstep>
  <scstep>
   <time name="dav">   11.47   11.48</time>
   <time name="total">   12.66   12.68</time>
   <energy>
    <i name="e_fr_energy">   -154.87337624 </i>
    <i name="e_wo_entrp">   -154.86189316 </i>
    <i name="e_0_energy">   -154.86763470 </i>
   </energy>
  </scstep>
  <scstep>
   <time name="dav">    9.12    9.13</time>
   <time name="total">    9.51    9.54</time>
   <energy>
    <i name="alphaZ">   1197.30728288 </i>
    <i name="ewald"> -16850.81406893 </i>
    <i name="hartreedc">  -8057.41005323 </i>
    <i name="XCdc">   1086.25925388 </i>
    <i name="pawpsdc">  30942.47563870 </i>
    <i name="pawaedc"> -31672.14529369 </i>
    <i name="eentropy">     -0.01148170 </i>
    <i name="bandstr">  -1590.54921840 </i>
    <i name="atom">  24790.01456472 </i>
    <i name="e_fr_energy">   -154.87337577 </i>
    <i name="e_wo_entrp">   -154.86189408 </i>
    <i name="e_0_energy">   -154.86763493 </i>
   </energy>
  </scstep>
  <structure>
   <crystal>
    <varray name="basis" >
     <v>       9.79795897       0.00000000       0.00000000 </v>
     <v>       0.00000000       5.65685425       0.00000000 </v>
     <v>      -3.26598632       0.00000000       9.23760431 </v>
    </varray>
    <i name="volume">    512.00000000 </i>
    <varray name="rec_basis" >
     <v>       0.10206207       0.00000000       0.03608439 </v>
     <v>       0.00000000       0.17677670       0.00000000 </v>
     <v>       0.00000000       0.00000000       0.10825318 </v>
    </varray>
   </crystal>
   <varray name="positions" >
    <v>       0.87500000       0.00000000       0.62500000 </v>
    <v>       0.62500000       0.00000000       0.87500000 </v>
    <v>       0.37500000       0.00000000       0.12500000 </v>
    <v>       0.62500000       0.50000000       0.37500000 </v>
    <v>       0.37500000       0.50000000       0.62500000 </v>
    <v>       0.12500000       0.50000000       0.87500000 </v>
    <v>       0.87500000       0.50000000       0.12500000 </v>
    <v>       0.12500000       0.00000000       0.37500000 </v>
    <v>       0.00000000       0.50000000       0.50000000 </v>
    <v>       0.25000000       0.00000000       0.75000000 </v>
    <v>       0.50000000       0.50000000       0.00000000 </v>
    <v>       0.75000000       0.00000000       0.25000000 </v>
    <v>       0.50000000       0.00000000       0.50000000 </v>
    <v>       0.75000000       0.50000000       0.75000000 </v>
    <v>       0.00000000       0.00000000       0.00000000 </v>
    <v>       0.25000000       0.50000000       0.25000000 </v>
    <v>       0.37500000       0.75000000       0.87500000 </v>
    <v>       0.62500000       0.25000000       0.12500000 </v>
    <v>       0.37500000       0.25000000       0.87500000 </v>
    <v>       0.62500000       0.75000000       0.12500000 </v>
    <v>       0.87500000       0.50000000       0.62500000 </v>
    <v>       0.12500000       0.00000000       0.87500000 </v>
    <v>       0.87500000       0.00000000       0.12500000 </v>
    <v>       0.62500000       0.00000000       0.37500000 </v>
    <v>       0.87500000       0.25000000       0.87500000 </v>
    <v>       0.12500000       0.75000000       0.12500000 </v>
    <v>       0.87500000       0.75000000       0.87500000 </v>
    <v>       0.12500000       0.25000000       0.12500000 </v>
    <v>       0.37500000       0.00000000       0.62500000 </v>
    <v>       0.62500000       0.50000000       0.87500000 </v>
    <v>       0.37500000       0.50000000       0.12500000 </v>
    <v>       0.12500000       0.50000000       0.37500000 </v>
   </varray>
  </structure>
  <varray name="forces" >
   <v>      -0.47446988       0.00000000       1.92129445 </v>
   <v>      -0.37981406       0.00000000       1.61270219 </v>
   <v>       0.37981406       0.00000000      -1.61270219 </v>
   <v>       0.47446988       0.00000000      -1.92129445 </v>
   <v>      -0.47446988       0.00000000       1.92129445 </v>
   <v>      -0.37981406       0.00000000       1.61270219 </v>
   <v>       0.37981406       0.00000000      -1.61270219 </v>
   <v>       0.47446988       0.00000000      -1.92129445 </v>
   <v>       0.00000000       0.00000000       0.00000000 </v>
   <v>       0.02776557       0.00000000       1.47721778 </v>
   <v>       0.00000000       0.00000000       0.00000000 </v>
   <v>      -0.02776557       0.00000000      -1.47721778 </v>
   <v>       0.00000000       0.00000000       0.00000000 </v>
   <v>       0.02776557       0.00000000       1.47721778 </v>
   <v>       0.00000000       0.00000000       0.00000000 </v>
   <v>      -0.02776557       0.00000000      -1.47721778 </v>
   <v>      -0.08722372      -0.57419878      -0.50839142 </v>
   <v>       0.08722372       0.57419878       0.50839142 </v>
   <v>      -0.08722372       0.57419878      -0.50839142 </v>
   <v>       0.08722372      -0.57419878       0.50839142 </v>
   <v>       1.04647286       0.00000000      -2.00935092 </v>
   <v>       0.67904731       0.00000000      -1.55764291 </v>
   <v>      -0.67904731       0.00000000       1.55764291 </v>
   <v>      -1.04647286       0.00000000       2.00935092 </v>
   <v>      -0.08722372      -0.57419878      -0.50839142 </v>
   <v>       0.08722372       0.57419878       0.50839142 </v>
   <v>      -0.08722372       0.57419878      -0.50839142 </v>
   <v>       0.08722372      -0.57419878       0.50839142 </v>
   <v>       1.04647286       0.00000000      -2.00935092 </v>
   <v>       0.67904731       0.00000000      -1.55764291 </v>
   <v>      -0.67904731       0.00000000       1.55764291 </v>
   <v>      -1.04647286       0.00000000       2.00935092 </v>
  </varray>
  <varray name="stress" >
   <v>     -83.69976555       0.00000000      -4.77888100 </v>
   <v>       0.00000000     -70.72529313       0.00000000 </v>
   <v>      -4.77888137       0.00000000    -110.28049389 </v>
  </varray>
  <energy>
   <i name="e_fr_energy">   -154.87337577 </i>
   <i name="e_wo_entrp">   -154.86763493 </i>
   <i name="e_0_energy">     -0.01148170 </i>
  </energy>
  <time name="totalsc">  660.78  661.89</time>
  <eigenvalues>
   <array>
    <dimension dim="1">band</dimension>
    <dimension dim="2">kpoint</dimension>
    <dimension dim="3">spin</dimension>
    <field>eigene</field>
    <field>occ</field>
    <set>
     <set comment="spin 1">
      <set comment="kpoint 1">
       <r>  -32.1930    1.0000 </r>
       <r>  -32.1863    1.0000 </r>
       <r>  -32.1801    1.0000 </r>
       <r>  -32.1739    1.0000 </r>
       <r>  -30.5762    1.0000 </r>
       <r>  -30.5691    1.0000 </r>
       <r>  -30.5627    1.0000 </r>
       <r>  -30.5568    1.0000 </r>
       <r>  -14.9247    1.0000 </r>
       <r>  -14.8491    1.0000 </r>
       <r>  -14.8346    1.0000 </r>
       <r>  -14.8210    1.0000 </r>
       <r>  -14.6903    1.0000 </r>
       <r>  -14.6171    1.0000 </r>
       <r>  -14.4066    1.0000 </r>
       <r>  -14.3921    1.0000 </r>
       <r>  -14.3764    1.0000 </r>
       <r>  -14.2846    1.0000 </r>
       <r>  -14.2702    1.0000 </r>
       <r>  -14.2415    1.0000 </r>
       <r>  -14.2196    1.0000 </r>
       <r>  -14.1724    1.0000 </r>
       <r>  -14.1565    1.0000 </r>
       <r>  -14.1001    1.0000 </r>
       <r>  -13.9594    1.0000 </r>
       <r>  -13.9236    1.0000 </r>
       <r>  -13.8258    1.0000 </r>
       <r>  -13.6857    1.0000 </r>
       <r>  -13.6181    1.0000 </r>
       <r>  -13.6158    1.0000 </r>
       <r>  -13.4999    1.0000 </r>
       <r>  -13.4371    1.0000 </r>
       <r>  -13.4104    1.0000 </r>
       <r>  -13.3497    1.0000 </r>
       <r>  -13.3316    1.0000 </r>
       <r>  -13.3172    1.0000 </r>
       <r>  -12.6306    1.0000 </r>
       <r>  -12.6293    1.0000 </r>
       <r>  -12.5540    1.0000 </r>
       <r>  -12.5315    1.0000 </r>
       <r>  -12.5001    1.0000 </r>
       <r>  -12.4886    1.0000 </r>
       <r>  -12.4811    1.0000 </r>
       <r>  -12.4548    1.0000 </r>
       <r>  -12.4076    1.0000 </r>
       <r>  -12.2563    1.0000 </r>
       <r>  -12.1597    1.0000 </r>
       <r>  -12.1190    1.0000 </r>
       <r>   -2.9730    1.0000 </r>
       <r>   -2.9052    1.0000 </r>
       <r>   -2.3442    1.0000 </r>
       <r>   -2.3141    1.0000 </r>
       <r>   -2.0155    1.0000 </r>
       <r>   -2.0106    1.0000 </r>
       <r>   -1.9911    1.0000 </r>
       <r>   -1.9885    1.0000 </r>
       <r>   -1.9511    1.0000 </r>
       <r>   -1.9073    1.0000 </r>
       <r>   -1.7964    1.0000 </r>
       <r>   -1.6736    1.0000 </r>
       <r>   -1.5976    1.0000 </r>
       <r>   -1.5806    1.0000 </r>
       <r>   -1.5157    1.0000 </r>
       <r>   -1.4261    1.0000 </r>
       <r>   -1.4121    1.0000 </r>
       <r>   -1.4034    1.0000 </r>
       <r>   -1.3974    1.0000 </r>
       <r>   -1.2961    1.0000 </r>
       <r>   -1.2806    1.0000 </r>
       <r>   -1.2729    1.0000 </r>
       <r>   -1.2713    1.0000 </r>
       <r>   -1.2675    1.0000 </r>
       <r>   -1.1703    1.0000 </r>
       <r>   -1.1123    1.0000 </r>
       <r>   -0.9635    1.0000 </r>
       <r>   -0.9444    1.0000 </r>
       <r>   -0.7300    1.0000 </r>
       <r>   -0.7111    1.0000 </r>
       <r>   -0.6971    1.0000 </r>
       <r>   -0.6901    1.0000 </r>
       <r>   -0.6795    1.0000 </r>
       <r>   -0.6754    1.0000 </r>
       <r>   -0.6445    1.0000 </r>
       <r>   -0.6267    1.0000 </r>
       <r>   -0.6115    1.0000 </r>
       <r>   -0.5139    1.0000 </r>
       <r>   -0.4891    1.0000 </r>
       <r>   -0.4592    1.0000 </r>
       <r>   -0.4275    1.0000 </r>
       <r>   -0.3808    1.0000 </r>
       <r>   -0.3242    1.0000 </r>
       <r>   -0.1971    1.0000 </r>
       <r>    0.1505    1.0000 </r>
       <r>    0.1758    1.0000 </r>
       <r>    0.1919    1.0000 </r>
       <r>    0.1953    1.0000 </r>
       <r>    0.4125    1.0000 </r>
       <r>    0.5341    1.0000 </r>
       <r>    0.5589    1.0000 </r>
       <r>    0.6587    1.0000 </r>
       <r>    0.7971    1.0000 </r>
       <r>    0.8229    1.0000 </r>
       <r>    0.8659    1.0000 </r>
       <r>    0.9401    1.0000 </r>
       <r>    0.9876    1.0000 </r>
       <r>    1.0217    1.0000 </r>
       <r>    1.0411    1.0000 </r>
       <r>    1.1766    1.0000 </r>
       <r>    1.1864    1.0000 </r>
       <r>    1.3283    1.0000 </r>
       <r>    1.3481    1.0000 </r>
       <r>    1.4618    1.0000 </r>
       <r>    1.4920    1.0000 </r>
       <r>    1.5468    1.0000 </r>
       <r>    1.5639    1.0000 </r>
       <r>    1.5744    1.0000 </r>
       <r>    1.6271    1.0000 </r>
       <r>    1.6601    1.0000 </r>
       <r>    1.7052    1.0000 </r>
       <r>    1.7303    1.0000 </r>
       <r>    1.8414    1.0000 </r>
       <r>    1.9456    1.0000 </r>
       <r>    1.9664    1.0000 </r>
       <r>    2.0604    1.0000 </r>
       <r>    2.0891    1.0000 </r>
       <r>    2.2667    1.0000 </r>
       <r>    2.2779    1.0000 </r>
       <r>    2.3219    1.0000 </r>
       <r>    2.5306    1.0000 </r>
       <r>    2.5539    1.0000 </r>
       <r>    2.5860    1.0000 </r>
       <r>    2.6485    0.9860 </r>
       <r>    2.7230    0.5361 </r>
       <r>    2.8366    0.0009 </r>
       <r>    3.6650    0.0000 </r>
       <r>    3.6768    0.0000 </r>
       <r>    3.8200    0.0000 </r>
       <r>    3.9062    0.0000 </r>
       <r>    4.4501    0.0000 </r>
       <r>    4.4507    0.0000 </r>
       <r>    4.7085    0.0000 </r>
       <r>    5.3960    0.0000 </r>
       <r>    5.6795    0.0000 </r>
       <r>    5.7574    0.0000 </r>
       <r>    6.4744    0.0000 </r>
       <r>    6.5494    0.0000 </r>
       <r>    6.7162    0.0000 </r>
       <r>    6.7865    0.0000 </r>
       <r>    6.7963    0.0000 </r>
       <r>    7.3837    0.0000 </r>
       <r>    7.6179    0.0000 </r>
       <r>    7.6657    0.0000 </r>
       <r>    7.8722    0.0000 </r>
       <r>    7.9670    0.0000 </r>
       <r>    8.0315    0.0000 </r>
       <r>    8.2463    0.0000 </r>
       <r>    8.4562    0.0000 </r>
       <r>    8.6136    0.0000 </r>
       <r>    8.6642    0.0000 </r>
       <r>    8.6872    0.0000 </r>
       <r>    8.9062    0.0000 </r>
       <r>    8.9950    0.0000 </r>
       <r>    9.1295    0.0000 </r>
       <r>    9.1603    0.0000 </r>
       <r>    9.2115    0.0000 </r>
       <r>    9.3255    0.0000 </r>
       <r>    9.3635    0.0000 </r>
       <r>    9.5084    0.0000 </r>
       <r>    9.5993    0.0000 </r>
       <r>    9.8000    0.0000 </r>
       <r>    9.8547    0.0000 </r>
       <r>   10.0805    0.0000 </r>
       <r>   10.1695    0.0000 </r>
       <r>   10.1901    0.0000 </r>
       <r>   10.2080    0.0000 </r>
       <r>   10.2414    0.0000 </r>
      </set>
      <set comment="kpoint 2">
       <r>  -32.1904    1.0000 </r>
       <r>  -32.1904    1.0000 </r>
       <r>  -32.1762    1.0000 </r>
       <r>  -32.1762    1.0000 </r>
       <r>  -30.5734    1.0000 </r>
       <r>  -30.5734    1.0000 </r>
       <r>  -30.5590    1.0000 </r>
       <r>  -30.5590    1.0000 </r>
       <r>  -14.9022    1.0000 </r>
       <r>  -14.9022    1.0000 </r>
       <r>  -14.7807    1.0000 </r>
       <r>  -14.7807    1.0000 </r>
       <r>  -14.6545    1.0000 </r>
       <r>  -14.6545    1.0000 </r>
       <r>  -14.4619    1.0000 </r>
       <r>  -14.4619    1.0000 </r>
       <r>  -14.3328    1.0000 </r>
       <r>  -14.3328    1.0000 </r>
       <r>  -14.2636    1.0000 </r>
       <r>  -14.2636    1.0000 </r>
       <r>  -14.1816    1.0000 </r>
       <r>  -14.1816    1.0000 </r>
       <r>  -14.1638    1.0000 </r>
       <r>  -14.1638    1.0000 </r>
       <r>  -13.8513    1.0000 </r>
       <r>  -13.8513    1.0000 </r>
       <r>  -13.7548    1.0000 </r>
       <r>  -13.7548    1.0000 </r>
       <r>  -13.5968    1.0000 </r>
       <r>  -13.5968    1.0000 </r>
       <r>  -13.5871    1.0000 </r>
       <r>  -13.5871    1.0000 </r>
       <r>  -13.3374    1.0000 </r>
       <r>  -13.3374    1.0000 </r>
       <r>  -13.3006    1.0000 </r>
       <r>  -13.3006    1.0000 </r>
       <r>  -12.6496    1.0000 </r>
       <r>  -12.6496    1.0000 </r>
       <r>  -12.5273    1.0000 </r>
       <r>  -12.5273    1.0000 </r>
       <r>  -12.5082    1.0000 </r>
       <r>  -12.5082    1.0000 </r>
       <r>  -12.3474    1.0000 </r>
       <r>  -12.3474    1.0000 </r>
       <r>  -12.3166    1.0000 </r>
       <r>  -12.3166    1.0000 </r>
       <r>  -12.2563    1.0000 </r>
       <r>  -12.2563    1.0000 </r>
       <r>   -2.8642    1.0000 </r>
       <r>   -2.8642    1.0000 </r>
       <r>   -2.4854    1.0000 </r>
       <r>   -2.4854    1.0000 </r>
       <r>   -2.2017    1.0000 </r>
       <r>   -2.2017    1.0000 </r>
       <r>   -1.9894    1.0000 </r>
       <r>   -1.9894    1.0000 </r>
       <r>   -1.7102    1.0000 </r>
       <r>   -1.7102    1.0000 </r>
       <r>   -1.6326    1.0000 </r>
       <r>   -1.6326    1.0000 </r>
       <r>   -1.5230    1.0000 </r>
       <r>   -1.5230    1.0000 </r>
       <r>   -1.4140    1.0000 </r>
       <r>   -1.4140    1.0000 </r>
       <r>   -1.3821    1.0000 </r>
       <r>   -1.3821    1.0000 </r>
       <r>   -1.3063    1.0000 </r>
       <r>   -1.3063    1.0000 </r>
       <r>   -1.3038    1.0000 </r>
       <r>   -1.3038    1.0000 </r>
       <r>   -1.2537    1.0000 </r>
       <r>   -1.2537    1.0000 </r>
       <r>   -1.1380    1.0000 </r>
       <r>   -1.1380    1.0000 </r>
       <r>   -0.9112    1.0000 </r>
       <r>   -0.9112    1.0000 </r>
       <r>   -0.8225    1.0000 </r>
       <r>   -0.8225    1.0000 </r>
       <r>   -0.7242    1.0000 </r>
       <r>   -0.7242    1.0000 </r>
       <r>   -0.6809    1.0000 </r>
       <r>   -0.6809    1.0000 </r>
       <r>   -0.6425    1.0000 </r>
       <r>   -0.6425    1.0000 </r>
       <r>   -0.6269    1.0000 </r>
       <r>   -0.6269    1.0000 </r>
       <r>   -0.5915    1.0000 </r>
       <r>   -0.5915    1.0000 </r>
       <r>   -0.4510    1.0000 </r>
       <r>   -0.4510    1.0000 </r>
       <r>   -0.2644    1.0000 </r>
       <r>   -0.2644    1.0000 </r>
       <r>    0.1333    1.0000 </r>
       <r>    0.1333    1.0000 </r>
       <r>    0.2552    1.0000 </r>
       <r>    0.2552    1.0000 </r>
       <r>    0.3594    1.0000 </r>
       <r>    0.3594    1.0000 </r>
       <r>    0.6174    1.0000 </r>
       <r>    0.6174    1.0000 </r>
       <r>    0.8167    1.0000 </r>
       <r>    0.8167    1.0000 </r>
       <r>    0.9861    1.0000 </r>
       <r>    0.9861    1.0000 </r>
       <r>    1.0955    1.0000 </r>
       <r>    1.0955    1.0000 </r>
       <r>    1.1601    1.0000 </r>
       <r>    1.1601    1.0000 </r>
       <r>    1.2833    1.0000 </r>
       <r>    1.2833    1.0000 </r>
       <r>    1.3625    1.0000 </r>
       <r>    1.3625    1.0000 </r>
       <r>    1.5089    1.0000 </r>
       <r>    1.5089    1.0000 </r>
       <r>    1.5275    1.0000 </r>
       <r>    1.5275    1.0000 </r>
       <r>    1.6546    1.0000 </r>
       <r>    1.6546    1.0000 </r>
       <r>    1.8522    1.0000 </r>
       <r>    1.8522    1.0000 </r>
       <r>    1.8752    1.0000 </r>
       <r>    1.8752    1.0000 </r>
       <r>    2.1172    1.0000 </r>
       <r>    2.1172    1.0000 </r>
       <r>    2.1866    1.0000 </r>
       <r>    2.1866    1.0000 </r>
       <r>    2.2435    1.0000 </r>
       <r>    2.2435    1.0000 </r>
       <r>    2.2658    1.0000 </r>
       <r>    2.2658    1.0000 </r>
       <r>    2.6532    0.9805 </r>
       <r>    2.6532    0.9805 </r>
       <r>    3.1664    0.0000 </r>
       <r>    3.1664    0.0000 </r>
       <r>    3.4039    0.0000 </r>
       <r>    3.4039    0.0000 </r>
       <r>    3.6136    0.0000 </r>
       <r>    3.6136    0.0000 </r>
       <r>    4.5022    0.0000 </r>
       <r>    4.5022    0.0000 </r>
       <r>    4.9235    0.0000 </r>
       <r>    4.9235    0.0000 </r>
       <r>    6.0194    0.0000 </r>
       <r>    6.0194    0.0000 </r>
       <r>    6.1023    0.0000 </r>
       <r>    6.1023    0.0000 </r>
       <r>    7.0372    0.0000 </r>
       <r>    7.0372    0.0000 </r>
       <r>    7.1361    0.0000 </r>
       <r>    7.1361    0.0000 </r>
       <r>    7.7311    0.0000 </r>
       <r>    7.7311    0.0000 </r>
       <r>    7.9866    0.0000 </r>
       <r>    7.9866    0.0000 </r>
       <r>    8.2663    0.0000 </r>
       <r>    8.2663    0.0000 </r>
       <r>    8.2770    0.0000 </r>
       <r>    8.2770    0.0000 </r>
       <r>    8.8516    0.0000 </r>
       <r>    8.8516    0.0000 </r>
       <r>    9.2374    0.0000 </r>
       <r>    9.2374    0.0000 </r>
       <r>    9.3739    0.0000 </r>
       <r>    9.3739    0.0000 </r>
       <r>    9.4106    0.0000 </r>
       <r>    9.4106    0.0000 </r>
       <r>    9.4265    0.0000 </r>
       <r>    9.4265    0.0000 </r>
       <r>    9.5954    0.0000 </r>
       <r>    9.5954    0.0000 </r>
       <r>    9.7834    0.0000 </r>
       <r>    9.7834    0.0000 </r>
       <r>   10.1988    0.0000 </r>
       <r>   10.1989    0.0000 </r>
       <r>   10.2812    0.0000 </r>
       <r>   10.3174    0.0000 </r>
      </set>
      <set comment="kpoint 3">
       <r>  -32.1909    1.0000 </r>
       <r>  -32.1843    1.0000 </r>
       <r>  -32.1818    1.0000 </r>
       <r>  -32.1755    1.0000 </r>
       <r>  -30.5741    1.0000 </r>
       <r>  -30.5672    1.0000 </r>
       <r>  -30.5645    1.0000 </r>
       <r>  -30.5585    1.0000 </r>
       <r>  -15.0547    1.0000 </r>
       <r>  -15.0193    1.0000 </r>
       <r>  -14.9943    1.0000 </r>
       <r>  -14.9816    1.0000 </r>
       <r>  -14.6857    1.0000 </r>
       <r>  -14.6199    1.0000 </r>
       <r>  -14.4202    1.0000 </r>
       <r>  -14.4083    1.0000 </r>
       <r>  -14.3863    1.0000 </r>
       <r>  -14.3833    1.0000 </r>
       <r>  -14.2723    1.0000 </r>
       <r>  -14.2653    1.0000 </r>
       <r>  -14.0502    1.0000 </r>
       <r>  -14.0032    1.0000 </r>
       <r>  -13.9856    1.0000 </r>
       <r>  -13.9328    1.0000 </r>
       <r>  -13.9172    1.0000 </r>
       <r>  -13.8861    1.0000 </r>
       <r>  -13.8229    1.0000 </r>
       <r>  -13.7742    1.0000 </r>
       <r>  -13.7427    1.0000 </r>
       <r>  -13.6110    1.0000 </r>
       <r>  -13.5086    1.0000 </r>
       <r>  -13.4269    1.0000 </r>
       <r>  -13.3745    1.0000 </r>
       <r>  -13.3615    1.0000 </r>
       <r>  -13.3294    1.0000 </r>
       <r>  -13.3097    1.0000 </r>
       <r>  -12.6248    1.0000 </r>
       <r>  -12.5716    1.0000 </r>
       <r>  -12.5514    1.0000 </r>
       <r>  -12.5341    1.0000 </r>
       <r>  -12.4799    1.0000 </r>
       <r>  -12.4763    1.0000 </r>
       <r>  -12.3436    1.0000 </r>
       <r>  -12.3166    1.0000 </r>
       <r>  -12.2899    1.0000 </r>
       <r>  -12.2152    1.0000 </r>
       <r>  -12.1725    1.0000 </r>
       <r>  -12.1582    1.0000 </r>
       <r>   -2.9343    1.0000 </r>
       <r>   -2.8948    1.0000 </r>
       <r>   -2.2772    1.0000 </r>
       <r>   -2.2456    1.0000 </r>
       <r>   -2.1832    1.0000 </r>
       <r>   -2.1808    1.0000 </r>
       <r>   -1.9523    1.0000 </r>
       <r>   -1.9162    1.0000 </r>
       <r>   -1.8901    1.0000 </r>
       <r>   -1.8807    1.0000 </r>
       <r>   -1.6815    1.0000 </r>
       <r>   -1.6780    1.0000 </r>
       <r>   -1.6690    1.0000 </r>
       <r>   -1.5877    1.0000 </r>
       <r>   -1.5602    1.0000 </r>
       <r>   -1.5341    1.0000 </r>
       <r>   -1.4862    1.0000 </r>
       <r>   -1.4468    1.0000 </r>
       <r>   -1.4357    1.0000 </r>
       <r>   -1.3520    1.0000 </r>
       <r>   -1.3468    1.0000 </r>
       <r>   -1.3343    1.0000 </r>
       <r>   -1.3024    1.0000 </r>
       <r>   -1.2914    1.0000 </r>
       <r>   -1.0328    1.0000 </r>
       <r>   -1.0228    1.0000 </r>
       <r>   -0.9827    1.0000 </r>
       <r>   -0.9659    1.0000 </r>
       <r>   -0.7447    1.0000 </r>
       <r>   -0.7171    1.0000 </r>
       <r>   -0.7134    1.0000 </r>
       <r>   -0.6908    1.0000 </r>
       <r>   -0.6888    1.0000 </r>
       <r>   -0.6830    1.0000 </r>
       <r>   -0.6829    1.0000 </r>
       <r>   -0.5883    1.0000 </r>
       <r>   -0.5861    1.0000 </r>
       <r>   -0.5550    1.0000 </r>
       <r>   -0.5513    1.0000 </r>
       <r>   -0.5263    1.0000 </r>
       <r>   -0.4746    1.0000 </r>
       <r>   -0.3592    1.0000 </r>
       <r>   -0.3458    1.0000 </r>
       <r>   -0.1374    1.0000 </r>
       <r>    0.0124    1.0000 </r>
       <r>    0.1050    1.0000 </r>
       <r>    0.2465    1.0000 </r>
       <r>    0.2926    1.0000 </r>
       <r>    0.4188    1.0000 </r>
       <r>    0.5142    1.0000 </r>
       <r>    0.5152    1.0000 </r>
       <r>    0.5664    1.0000 </r>
       <r>    0.7250    1.0000 </r>
       <r>    0.8302    1.0000 </r>
       <r>    0.8394    1.0000 </r>
       <r>    0.8397    1.0000 </r>
       <r>    0.9169    1.0000 </r>
       <r>    1.0933    1.0000 </r>
       <r>    1.1106    1.0000 </r>
       <r>    1.2129    1.0000 </r>
       <r>    1.2131    1.0000 </r>
       <r>    1.3125    1.0000 </r>
       <r>    1.3316    1.0000 </r>
       <r>    1.3367    1.0000 </r>
       <r>    1.4601    1.0000 </r>
       <r>    1.4667    1.0000 </r>
       <r>    1.5184    1.0000 </r>
       <r>    1.5249    1.0000 </r>
       <r>    1.5819    1.0000 </r>
       <r>    1.6523    1.0000 </r>
       <r>    1.7103    1.0000 </r>
       <r>    1.7191    1.0000 </r>
       <r>    1.7977    1.0000 </r>
       <r>    1.8490    1.0000 </r>
       <r>    1.8660    1.0000 </r>
       <r>    1.8963    1.0000 </r>
       <r>    2.0587    1.0000 </r>
       <r>    2.1364    1.0000 </r>
       <r>    2.1843    1.0000 </r>
       <r>    2.2599    1.0000 </r>
       <r>    2.3369    1.0000 </r>
       <r>    2.3938    1.0000 </r>
       <r>    2.5089    1.0000 </r>
       <r>    2.7081    0.6951 </r>
       <r>    2.7818    0.0578 </r>
       <r>    2.8179    0.0047 </r>
       <r>    3.3855    0.0000 </r>
       <r>    3.5462    0.0000 </r>
       <r>    3.5792    0.0000 </r>
       <r>    4.0474    0.0000 </r>
       <r>    4.2005    0.0000 </r>
       <r>    4.7529    0.0000 </r>
       <r>    4.8601    0.0000 </r>
       <r>    4.9277    0.0000 </r>
       <r>    5.7059    0.0000 </r>
       <r>    5.7823    0.0000 </r>
       <r>    6.7766    0.0000 </r>
       <r>    6.8457    0.0000 </r>
       <r>    6.9601    0.0000 </r>
       <r>    7.2104    0.0000 </r>
       <r>    7.2303    0.0000 </r>
       <r>    7.6573    0.0000 </r>
       <r>    7.7558    0.0000 </r>
       <r>    7.9080    0.0000 </r>
       <r>    8.0226    0.0000 </r>
       <r>    8.2131    0.0000 </r>
       <r>    8.2518    0.0000 </r>
       <r>    8.2519    0.0000 </r>
       <r>    8.5925    0.0000 </r>
       <r>    8.6845    0.0000 </r>
       <r>    8.7394    0.0000 </r>
       <r>    8.7492    0.0000 </r>
       <r>    8.8028    0.0000 </r>
       <r>    9.1815    0.0000 </r>
       <r>    9.2818    0.0000 </r>
       <r>    9.3127    0.0000 </r>
       <r>    9.4139    0.0000 </r>
       <r>    9.5388    0.0000 </r>
       <r>    9.5931    0.0000 </r>
       <r>    9.8278    0.0000 </r>
       <r>   10.0690    0.0000 </r>
       <r>   10.0728    0.0000 </r>
       <r>   10.0880    0.0000 </r>
       <r>   10.1272    0.0000 </r>
       <r>   10.2527    0.0000 </r>
       <r>   10.2856    0.0000 </r>
       <r>   10.4656    0.0000 </r>
       <r>   10.5052    0.0000 </r>
      </set>
      <set comment="kpoint 4">
       <r>  -32.1887    1.0000 </r>
       <r>  -32.1887    1.0000 </r>
       <r>  -32.1777    1.0000 </r>
       <r>  -32.1777    1.0000 </r>
       <r>  -30.5716    1.0000 </r>
       <r>  -30.5716    1.0000 </r>
       <r>  -30.5605    1.0000 </r>
       <r>  -30.5605    1.0000 </r>
       <r>  -15.0505    1.0000 </r>
       <r>  -15.0505    1.0000 </r>
       <r>  -14.9546    1.0000 </r>
       <r>  -14.9546    1.0000 </r>
       <r>  -14.6710    1.0000 </r>
       <r>  -14.6710    1.0000 </r>
       <r>  -14.4547    1.0000 </r>
       <r>  -14.4547    1.0000 </r>
       <r>  -14.3647    1.0000 </r>
       <r>  -14.3647    1.0000 </r>
       <r>  -14.2790    1.0000 </r>
       <r>  -14.2790    1.0000 </r>
       <r>  -14.0496    1.0000 </r>
       <r>  -14.0496    1.0000 </r>
       <r>  -13.9689    1.0000 </r>
       <r>  -13.9689    1.0000 </r>
       <r>  -13.8353    1.0000 </r>
       <r>  -13.8353    1.0000 </r>
       <r>  -13.7526    1.0000 </r>
       <r>  -13.7526    1.0000 </r>
       <r>  -13.7047    1.0000 </r>
       <r>  -13.7047    1.0000 </r>
       <r>  -13.4900    1.0000 </r>
       <r>  -13.4900    1.0000 </r>
       <r>  -13.3673    1.0000 </r>
       <r>  -13.3673    1.0000 </r>
       <r>  -13.3206    1.0000 </r>
       <r>  -13.3206    1.0000 </r>
       <r>  -12.6252    1.0000 </r>
       <r>  -12.6252    1.0000 </r>
       <r>  -12.5408    1.0000 </r>
       <r>  -12.5408    1.0000 </r>
       <r>  -12.4132    1.0000 </r>
       <r>  -12.4132    1.0000 </r>
       <r>  -12.3538    1.0000 </r>
       <r>  -12.3538    1.0000 </r>
       <r>  -12.2423    1.0000 </r>
       <r>  -12.2423    1.0000 </r>
       <r>  -12.1931    1.0000 </r>
       <r>  -12.1931    1.0000 </r>
       <r>   -2.8435    1.0000 </r>
       <r>   -2.8435    1.0000 </r>
       <r>   -2.5010    1.0000 </r>
       <r>   -2.5010    1.0000 </r>
       <r>   -2.1721    1.0000 </r>
       <r>   -2.1721    1.0000 </r>
       <r>   -2.0143    1.0000 </r>
       <r>   -2.0143    1.0000 </r>
       <r>   -1.7407    1.0000 </r>
       <r>   -1.7407    1.0000 </r>
       <r>   -1.6310    1.0000 </r>
       <r>   -1.6310    1.0000 </r>
       <r>   -1.5273    1.0000 </r>
       <r>   -1.5273    1.0000 </r>
       <r>   -1.4964    1.0000 </r>
       <r>   -1.4964    1.0000 </r>
       <r>   -1.3925    1.0000 </r>
       <r>   -1.3925    1.0000 </r>
       <r>   -1.3321    1.0000 </r>
       <r>   -1.3321    1.0000 </r>
       <r>   -1.2936    1.0000 </r>
       <r>   -1.2936    1.0000 </r>
       <r>   -1.2319    1.0000 </r>
       <r>   -1.2319    1.0000 </r>
       <r>   -1.1207    1.0000 </r>
       <r>   -1.1207    1.0000 </r>
       <r>   -1.0304    1.0000 </r>
       <r>   -1.0304    1.0000 </r>
       <r>   -0.8062    1.0000 </r>
       <r>   -0.8062    1.0000 </r>
       <r>   -0.7099    1.0000 </r>
       <r>   -0.7099    1.0000 </r>
       <r>   -0.6865    1.0000 </r>
       <r>   -0.6865    1.0000 </r>
       <r>   -0.6669    1.0000 </r>
       <r>   -0.6669    1.0000 </r>
       <r>   -0.6010    1.0000 </r>
       <r>   -0.6010    1.0000 </r>
       <r>   -0.5846    1.0000 </r>
       <r>   -0.5846    1.0000 </r>
       <r>   -0.5264    1.0000 </r>
       <r>   -0.5264    1.0000 </r>
       <r>   -0.2974    1.0000 </r>
       <r>   -0.2974    1.0000 </r>
       <r>    0.0513    1.0000 </r>
       <r>    0.0513    1.0000 </r>
       <r>    0.3188    1.0000 </r>
       <r>    0.3188    1.0000 </r>
       <r>    0.4795    1.0000 </r>
       <r>    0.4795    1.0000 </r>
       <r>    0.5848    1.0000 </r>
       <r>    0.5848    1.0000 </r>
       <r>    0.6846    1.0000 </r>
       <r>    0.6846    1.0000 </r>
       <r>    0.8859    1.0000 </r>
       <r>    0.8859    1.0000 </r>
       <r>    1.1069    1.0000 </r>
       <r>    1.1069    1.0000 </r>
       <r>    1.2457    1.0000 </r>
       <r>    1.2457    1.0000 </r>
       <r>    1.2956    1.0000 </r>
       <r>    1.2956    1.0000 </r>
       <r>    1.3245    1.0000 </r>
       <r>    1.3245    1.0000 </r>
       <r>    1.4183    1.0000 </r>
       <r>    1.4183    1.0000 </r>
       <r>    1.5002    1.0000 </r>
       <r>    1.5002    1.0000 </r>
       <r>    1.6342    1.0000 </r>
       <r>    1.6342    1.0000 </r>
       <r>    1.7001    1.0000 </r>
       <r>    1.7001    1.0000 </r>
       <r>    1.8166    1.0000 </r>
       <r>    1.8166    1.0000 </r>
       <r>    1.9312    1.0000 </r>
       <r>    1.9312    1.0000 </r>
       <r>    2.0855    1.0000 </r>
       <r>    2.0855    1.0000 </r>
       <r>    2.2217    1.0000 </r>
       <r>    2.2217    1.0000 </r>
       <r>    2.3728    1.0000 </r>
       <r>    2.3728    1.0000 </r>
       <r>    2.4844    1.0000 </r>
       <r>    2.4844    1.0000 </r>
       <r>    2.8991    0.0000 </r>
       <r>    2.8991    0.0000 </r>
       <r>    3.3987    0.0000 </r>
       <r>    3.3987    0.0000 </r>
       <r>    3.7753    0.0000 </r>
       <r>    3.7753    0.0000 </r>
       <r>    4.4529    0.0000 </r>
       <r>    4.4529    0.0000 </r>
       <r>    4.8834    0.0000 </r>
       <r>    4.8834    0.0000 </r>
       <r>    5.6753    0.0000 </r>
       <r>    5.6753    0.0000 </r>
       <r>    6.7873    0.0000 </r>
       <r>    6.7873    0.0000 </r>
       <r>    7.0487    0.0000 </r>
       <r>    7.0487    0.0000 </r>
       <r>    7.4441    0.0000 </r>
       <r>    7.4441    0.0000 </r>
       <r>    7.8627    0.0000 </r>
       <r>    7.8627    0.0000 </r>
       <r>    8.0760    0.0000 </r>
       <r>    8.0760    0.0000 </r>
       <r>    8.3161    0.0000 </r>
       <r>    8.3161    0.0000 </r>
       <r>    8.6475    0.0000 </r>
       <r>    8.6475    0.0000 </r>
       <r>    9.0459    0.0000 </r>
       <r>    9.0459    0.0000 </r>
       <r>    9.3275    0.0000 </r>
       <r>    9.3275    0.0000 </r>
       <r>    9.4379    0.0000 </r>
       <r>    9.4379    0.0000 </r>
       <r>    9.5376    0.0000 </r>
       <r>    9.5376    0.0000 </r>
       <r>    9.6435    0.0000 </r>
       <r>    9.6435    0.0000 </r>
       <r>    9.8078    0.0000 </r>
       <r>    9.8078    0.0000 </r>
       <r>   10.0139    0.0000 </r>
       <r>   10.0139    0.0000 </r>
       <r>   10.1157    0.0000 </r>
       <r>   10.1157    0.0000 </r>
       <r>   10.3347    0.0000 </r>
       <r>   10.3347    0.0000 </r>
      </set>
      <set comment="kpoint 5">
       <r>  -32.1862    1.0000 </r>
       <r>  -32.1862    1.0000 </r>
       <r>  -32.1798    1.0000 </r>
       <r>  -32.1798    1.0000 </r>
       <r>  -30.5691    1.0000 </r>
       <r>  -30.5691    1.0000 </r>
       <r>  -30.5627    1.0000 </r>
       <r>  -30.5627    1.0000 </r>
       <r>  -15.1525    1.0000 </r>
       <r>  -15.1525    1.0000 </r>
       <r>  -15.1053    1.0000 </r>
       <r>  -15.1053    1.0000 </r>
       <r>  -14.6492    1.0000 </r>
       <r>  -14.6492    1.0000 </r>
       <r>  -14.4438    1.0000 </r>
       <r>  -14.4438    1.0000 </r>
       <r>  -14.3648    1.0000 </r>
       <r>  -14.3648    1.0000 </r>
       <r>  -14.2884    1.0000 </r>
       <r>  -14.2884    1.0000 </r>
       <r>  -13.9937    1.0000 </r>
       <r>  -13.9937    1.0000 </r>
       <r>  -13.9478    1.0000 </r>
       <r>  -13.9478    1.0000 </r>
       <r>  -13.8834    1.0000 </r>
       <r>  -13.8834    1.0000 </r>
       <r>  -13.6928    1.0000 </r>
       <r>  -13.6928    1.0000 </r>
       <r>  -13.6742    1.0000 </r>
       <r>  -13.6742    1.0000 </r>
       <r>  -13.4302    1.0000 </r>
       <r>  -13.4302    1.0000 </r>
       <r>  -13.3725    1.0000 </r>
       <r>  -13.3725    1.0000 </r>
       <r>  -13.3565    1.0000 </r>
       <r>  -13.3565    1.0000 </r>
       <r>  -12.5843    1.0000 </r>
       <r>  -12.5843    1.0000 </r>
       <r>  -12.5584    1.0000 </r>
       <r>  -12.5584    1.0000 </r>
       <r>  -12.3381    1.0000 </r>
       <r>  -12.3381    1.0000 </r>
       <r>  -12.2973    1.0000 </r>
       <r>  -12.2973    1.0000 </r>
       <r>  -12.1848    1.0000 </r>
       <r>  -12.1848    1.0000 </r>
       <r>  -12.1694    1.0000 </r>
       <r>  -12.1694    1.0000 </r>
       <r>   -2.8990    1.0000 </r>
       <r>   -2.8990    1.0000 </r>
       <r>   -2.2645    1.0000 </r>
       <r>   -2.2645    1.0000 </r>
       <r>   -2.1950    1.0000 </r>
       <r>   -2.1950    1.0000 </r>
       <r>   -1.9402    1.0000 </r>
       <r>   -1.9402    1.0000 </r>
       <r>   -1.8651    1.0000 </r>
       <r>   -1.8651    1.0000 </r>
       <r>   -1.6976    1.0000 </r>
       <r>   -1.6976    1.0000 </r>
       <r>   -1.6924    1.0000 </r>
       <r>   -1.6924    1.0000 </r>
       <r>   -1.6260    1.0000 </r>
       <r>   -1.6260    1.0000 </r>
       <r>   -1.4581    1.0000 </r>
       <r>   -1.4581    1.0000 </r>
       <r>   -1.4385    1.0000 </r>
       <r>   -1.4385    1.0000 </r>
       <r>   -1.3258    1.0000 </r>
       <r>   -1.3258    1.0000 </r>
       <r>   -1.3007    1.0000 </r>
       <r>   -1.3007    1.0000 </r>
       <r>   -0.9885    1.0000 </r>
       <r>   -0.9885    1.0000 </r>
       <r>   -0.9471    1.0000 </r>
       <r>   -0.9471    1.0000 </r>
       <r>   -0.7862    1.0000 </r>
       <r>   -0.7862    1.0000 </r>
       <r>   -0.6931    1.0000 </r>
       <r>   -0.6931    1.0000 </r>
       <r>   -0.6907    1.0000 </r>
       <r>   -0.6907    1.0000 </r>
       <r>   -0.6582    1.0000 </r>
       <r>   -0.6582    1.0000 </r>
       <r>   -0.6407    1.0000 </r>
       <r>   -0.6407    1.0000 </r>
       <r>   -0.5609    1.0000 </r>
       <r>   -0.5609    1.0000 </r>
       <r>   -0.4292    1.0000 </r>
       <r>   -0.4292    1.0000 </r>
       <r>   -0.2956    1.0000 </r>
       <r>   -0.2956    1.0000 </r>
       <r>    0.0778    1.0000 </r>
       <r>    0.0778    1.0000 </r>
       <r>    0.2239    1.0000 </r>
       <r>    0.2239    1.0000 </r>
       <r>    0.4564    1.0000 </r>
       <r>    0.4564    1.0000 </r>
       <r>    0.5895    1.0000 </r>
       <r>    0.5895    1.0000 </r>
       <r>    0.6582    1.0000 </r>
       <r>    0.6582    1.0000 </r>
       <r>    0.8758    1.0000 </r>
       <r>    0.8758    1.0000 </r>
       <r>    1.1012    1.0000 </r>
       <r>    1.1012    1.0000 </r>
       <r>    1.1267    1.0000 </r>
       <r>    1.1267    1.0000 </r>
       <r>    1.2848    1.0000 </r>
       <r>    1.2848    1.0000 </r>
       <r>    1.3588    1.0000 </r>
       <r>    1.3588    1.0000 </r>
       <r>    1.4125    1.0000 </r>
       <r>    1.4125    1.0000 </r>
       <r>    1.4247    1.0000 </r>
       <r>    1.4247    1.0000 </r>
       <r>    1.5441    1.0000 </r>
       <r>    1.5441    1.0000 </r>
       <r>    1.7503    1.0000 </r>
       <r>    1.7503    1.0000 </r>
       <r>    1.7760    1.0000 </r>
       <r>    1.7760    1.0000 </r>
       <r>    1.8942    1.0000 </r>
       <r>    1.8942    1.0000 </r>
       <r>    1.9345    1.0000 </r>
       <r>    1.9345    1.0000 </r>
       <r>    2.1188    1.0000 </r>
       <r>    2.1188    1.0000 </r>
       <r>    2.2699    1.0000 </r>
       <r>    2.2699    1.0000 </r>
       <r>    2.2904    1.0000 </r>
       <r>    2.2904    1.0000 </r>
       <r>    2.8019    0.0161 </r>
       <r>    2.8019    0.0161 </r>
       <r>    3.4621    0.0000 </r>
       <r>    3.4621    0.0000 </r>
       <r>    3.5650    0.0000 </r>
       <r>    3.5650    0.0000 </r>
       <r>    4.7735    0.0000 </r>
       <r>    4.7735    0.0000 </r>
       <r>    4.8978    0.0000 </r>
       <r>    4.8978    0.0000 </r>
       <r>    5.4319    0.0000 </r>
       <r>    5.4319    0.0000 </r>
       <r>    7.0772    0.0000 </r>
       <r>    7.0772    0.0000 </r>
       <r>    7.7276    0.0000 </r>
       <r>    7.7276    0.0000 </r>
       <r>    7.8348    0.0000 </r>
       <r>    7.8348    0.0000 </r>
       <r>    7.9712    0.0000 </r>
       <r>    7.9712    0.0000 </r>
       <r>    8.1292    0.0000 </r>
       <r>    8.1292    0.0000 </r>
       <r>    8.2947    0.0000 </r>
       <r>    8.2947    0.0000 </r>
       <r>    8.7266    0.0000 </r>
       <r>    8.7266    0.0000 </r>
       <r>    8.9945    0.0000 </r>
       <r>    8.9945    0.0000 </r>
       <r>    9.0735    0.0000 </r>
       <r>    9.0735    0.0000 </r>
       <r>    9.5535    0.0000 </r>
       <r>    9.5535    0.0000 </r>
       <r>    9.5847    0.0000 </r>
       <r>    9.5847    0.0000 </r>
       <r>    9.6350    0.0000 </r>
       <r>    9.6350    0.0000 </r>
       <r>    9.8106    0.0000 </r>
       <r>    9.8106    0.0000 </r>
       <r>   10.3026    0.0000 </r>
       <r>   10.3026    0.0000 </r>
       <r>   10.4584    0.0000 </r>
       <r>   10.4584    0.0000 </r>
       <r>   10.7153    0.0000 </r>
       <r>   10.7283    0.0000 </r>
      </set>
      <set comment="kpoint 6">
       <r>  -32.1862    1.0000 </r>
       <r>  -32.1862    1.0000 </r>
       <r>  -32.1798    1.0000 </r>
       <r>  -32.1798    1.0000 </r>
       <r>  -30.5691    1.0000 </r>
       <r>  -30.5691    1.0000 </r>
       <r>  -30.5627    1.0000 </r>
       <r>  -30.5627    1.0000 </r>
       <r>  -15.1645    1.0000 </r>
       <r>  -15.1645    1.0000 </r>
       <r>  -15.0786    1.0000 </r>
       <r>  -15.0786    1.0000 </r>
       <r>  -14.6776    1.0000 </r>
       <r>  -14.6776    1.0000 </r>
       <r>  -14.4407    1.0000 </r>
       <r>  -14.4407    1.0000 </r>
       <r>  -14.3690    1.0000 </r>
       <r>  -14.3690    1.0000 </r>
       <r>  -14.3144    1.0000 </r>
       <r>  -14.3144    1.0000 </r>
       <r>  -14.0551    1.0000 </r>
       <r>  -14.0551    1.0000 </r>
       <r>  -13.8899    1.0000 </r>
       <r>  -13.8899    1.0000 </r>
       <r>  -13.7143    1.0000 </r>
       <r>  -13.7143    1.0000 </r>
       <r>  -13.6838    1.0000 </r>
       <r>  -13.6838    1.0000 </r>
       <r>  -13.6696    1.0000 </r>
       <r>  -13.6696    1.0000 </r>
       <r>  -13.5965    1.0000 </r>
       <r>  -13.5965    1.0000 </r>
       <r>  -13.3733    1.0000 </r>
       <r>  -13.3733    1.0000 </r>
       <r>  -13.3235    1.0000 </r>
       <r>  -13.3235    1.0000 </r>
       <r>  -12.5725    1.0000 </r>
       <r>  -12.5725    1.0000 </r>
       <r>  -12.5678    1.0000 </r>
       <r>  -12.5678    1.0000 </r>
       <r>  -12.4180    1.0000 </r>
       <r>  -12.4180    1.0000 </r>
       <r>  -12.2434    1.0000 </r>
       <r>  -12.2434    1.0000 </r>
       <r>  -12.2160    1.0000 </r>
       <r>  -12.2160    1.0000 </r>
       <r>  -12.1182    1.0000 </r>
       <r>  -12.1182    1.0000 </r>
       <r>   -2.8321    1.0000 </r>
       <r>   -2.8321    1.0000 </r>
       <r>   -2.5259    1.0000 </r>
       <r>   -2.5259    1.0000 </r>
       <r>   -2.1398    1.0000 </r>
       <r>   -2.1398    1.0000 </r>
       <r>   -2.0234    1.0000 </r>
       <r>   -2.0234    1.0000 </r>
       <r>   -1.8320    1.0000 </r>
       <r>   -1.8320    1.0000 </r>
       <r>   -1.6829    1.0000 </r>
       <r>   -1.6829    1.0000 </r>
       <r>   -1.5448    1.0000 </r>
       <r>   -1.5448    1.0000 </r>
       <r>   -1.4447    1.0000 </r>
       <r>   -1.4447    1.0000 </r>
       <r>   -1.4195    1.0000 </r>
       <r>   -1.4195    1.0000 </r>
       <r>   -1.3476    1.0000 </r>
       <r>   -1.3476    1.0000 </r>
       <r>   -1.2975    1.0000 </r>
       <r>   -1.2975    1.0000 </r>
       <r>   -1.2093    1.0000 </r>
       <r>   -1.2093    1.0000 </r>
       <r>   -1.1510    1.0000 </r>
       <r>   -1.1510    1.0000 </r>
       <r>   -1.0548    1.0000 </r>
       <r>   -1.0548    1.0000 </r>
       <r>   -0.8206    1.0000 </r>
       <r>   -0.8206    1.0000 </r>
       <r>   -0.7218    1.0000 </r>
       <r>   -0.7218    1.0000 </r>
       <r>   -0.6893    1.0000 </r>
       <r>   -0.6893    1.0000 </r>
       <r>   -0.6818    1.0000 </r>
       <r>   -0.6818    1.0000 </r>
       <r>   -0.6471    1.0000 </r>
       <r>   -0.6471    1.0000 </r>
       <r>   -0.5658    1.0000 </r>
       <r>   -0.5658    1.0000 </r>
       <r>   -0.5612    1.0000 </r>
       <r>   -0.5612    1.0000 </r>
       <r>   -0.1630    1.0000 </r>
       <r>   -0.1630    1.0000 </r>
       <r>   -0.1324    1.0000 </r>
       <r>   -0.1324    1.0000 </r>
       <r>    0.2986    1.0000 </r>
       <r>    0.2986    1.0000 </r>
       <r>    0.5369    1.0000 </r>
       <r>    0.5369    1.0000 </r>
       <r>    0.5633    1.0000 </r>
       <r>    0.5633    1.0000 </r>
       <r>    0.6187    1.0000 </r>
       <r>    0.6187    1.0000 </r>
       <r>    0.9235    1.0000 </r>
       <r>    0.9235    1.0000 </r>
       <r>    1.1877    1.0000 </r>
       <r>    1.1877    1.0000 </r>
       <r>    1.2020    1.0000 </r>
       <r>    1.2020    1.0000 </r>
       <r>    1.2318    1.0000 </r>
       <r>    1.2318    1.0000 </r>
       <r>    1.3821    1.0000 </r>
       <r>    1.3821    1.0000 </r>
       <r>    1.4269    1.0000 </r>
       <r>    1.4269    1.0000 </r>
       <r>    1.4485    1.0000 </r>
       <r>    1.4485    1.0000 </r>
       <r>    1.5094    1.0000 </r>
       <r>    1.5094    1.0000 </r>
       <r>    1.6011    1.0000 </r>
       <r>    1.6011    1.0000 </r>
       <r>    1.7719    1.0000 </r>
       <r>    1.7719    1.0000 </r>
       <r>    1.8454    1.0000 </r>
       <r>    1.8454    1.0000 </r>
       <r>    1.9469    1.0000 </r>
       <r>    1.9469    1.0000 </r>
       <r>    2.0147    1.0000 </r>
       <r>    2.0147    1.0000 </r>
       <r>    2.3250    1.0000 </r>
       <r>    2.3250    1.0000 </r>
       <r>    2.6020    0.9998 </r>
       <r>    2.6020    0.9998 </r>
       <r>    2.6775    0.9156 </r>
       <r>    2.6775    0.9156 </r>
       <r>    3.3427    0.0000 </r>
       <r>    3.3427    0.0000 </r>
       <r>    4.0185    0.0000 </r>
       <r>    4.0185    0.0000 </r>
       <r>    4.2105    0.0000 </r>
       <r>    4.2105    0.0000 </r>
       <r>    5.0543    0.0000 </r>
       <r>    5.0543    0.0000 </r>
       <r>    5.3025    0.0000 </r>
       <r>    5.3025    0.0000 </r>
       <r>    7.1953    0.0000 </r>
       <r>    7.1953    0.0000 </r>
       <r>    7.3726    0.0000 </r>
       <r>    7.3726    0.0000 </r>
       <r>    7.8031    0.0000 </r>
       <r>    7.8031    0.0000 </r>
       <r>    7.8621    0.0000 </r>
       <r>    7.8621    0.0000 </r>
       <r>    8.2151    0.0000 </r>
       <r>    8.2151    0.0000 </r>
       <r>    8.6185    0.0000 </r>
       <r>    8.6185    0.0000 </r>
       <r>    8.7278    0.0000 </r>
       <r>    8.7278    0.0000 </r>
       <r>    8.9382    0.0000 </r>
       <r>    8.9382    0.0000 </r>
       <r>    9.5648    0.0000 </r>
       <r>    9.5648    0.0000 </r>
       <r>    9.7882    0.0000 </r>
       <r>    9.7882    0.0000 </r>
       <r>    9.7909    0.0000 </r>
       <r>    9.7909    0.0000 </r>
       <r>    9.8844    0.0000 </r>
       <r>    9.8844    0.0000 </r>
       <r>    9.9672    0.0000 </r>
       <r>    9.9672    0.0000 </r>
       <r>   10.0671    0.0000 </r>
       <r>   10.0671    0.0000 </r>
       <r>   10.2032    0.0000 </r>
       <r>   10.2032    0.0000 </r>
       <r>   10.3693    0.0000 </r>
       <r>   10.3825    0.0000 </r>
      </set>
      <set comment="kpoint 7">
       <r>  -32.1930    1.0000 </r>
       <r>  -32.1863    1.0000 </r>
       <r>  -32.1801    1.0000 </r>
       <r>  -32.1739    1.0000 </r>
       <r>  -30.5762    1.0000 </r>
       <r>  -30.5692    1.0000 </r>
       <r>  -30.5626    1.0000 </r>
       <r>  -30.5568    1.0000 </r>
       <r>  -14.8878    1.0000 </r>
       <r>  -14.8752    1.0000 </r>
       <r>  -14.8532    1.0000 </r>
       <r>  -14.7930    1.0000 </r>
       <r>  -14.6627    1.0000 </r>
       <r>  -14.5296    1.0000 </r>
       <r>  -14.5200    1.0000 </r>
       <r>  -14.4761    1.0000 </r>
       <r>  -14.3457    1.0000 </r>
       <r>  -14.2858    1.0000 </r>
       <r>  -14.2659    1.0000 </r>
       <r>  -14.2599    1.0000 </r>
       <r>  -14.2509    1.0000 </r>
       <r>  -14.1907    1.0000 </r>
       <r>  -14.1609    1.0000 </r>
       <r>  -14.1370    1.0000 </r>
       <r>  -13.9100    1.0000 </r>
       <r>  -13.8847    1.0000 </r>
       <r>  -13.7834    1.0000 </r>
       <r>  -13.6694    1.0000 </r>
       <r>  -13.6368    1.0000 </r>
       <r>  -13.5456    1.0000 </r>
       <r>  -13.5131    1.0000 </r>
       <r>  -13.4439    1.0000 </r>
       <r>  -13.3915    1.0000 </r>
       <r>  -13.3585    1.0000 </r>
       <r>  -13.3457    1.0000 </r>
       <r>  -13.3243    1.0000 </r>
       <r>  -12.6364    1.0000 </r>
       <r>  -12.6336    1.0000 </r>
       <r>  -12.5534    1.0000 </r>
       <r>  -12.5342    1.0000 </r>
       <r>  -12.4976    1.0000 </r>
       <r>  -12.4957    1.0000 </r>
       <r>  -12.4886    1.0000 </r>
       <r>  -12.4549    1.0000 </r>
       <r>  -12.4148    1.0000 </r>
       <r>  -12.2561    1.0000 </r>
       <r>  -12.1588    1.0000 </r>
       <r>  -12.1215    1.0000 </r>
       <r>   -2.8507    1.0000 </r>
       <r>   -2.7760    1.0000 </r>
       <r>   -2.7279    1.0000 </r>
       <r>   -2.4006    1.0000 </r>
       <r>   -2.2813    1.0000 </r>
       <r>   -2.0544    1.0000 </r>
       <r>   -1.9895    1.0000 </r>
       <r>   -1.9868    1.0000 </r>
       <r>   -1.8020    1.0000 </r>
       <r>   -1.7322    1.0000 </r>
       <r>   -1.5727    1.0000 </r>
       <r>   -1.5649    1.0000 </r>
       <r>   -1.5255    1.0000 </r>
       <r>   -1.5067    1.0000 </r>
       <r>   -1.4997    1.0000 </r>
       <r>   -1.4202    1.0000 </r>
       <r>   -1.4001    1.0000 </r>
       <r>   -1.3800    1.0000 </r>
       <r>   -1.3665    1.0000 </r>
       <r>   -1.3465    1.0000 </r>
       <r>   -1.3183    1.0000 </r>
       <r>   -1.2892    1.0000 </r>
       <r>   -1.2258    1.0000 </r>
       <r>   -1.2067    1.0000 </r>
       <r>   -1.1363    1.0000 </r>
       <r>   -1.0236    1.0000 </r>
       <r>   -0.9148    1.0000 </r>
       <r>   -0.8973    1.0000 </r>
       <r>   -0.7891    1.0000 </r>
       <r>   -0.7455    1.0000 </r>
       <r>   -0.7147    1.0000 </r>
       <r>   -0.7101    1.0000 </r>
       <r>   -0.6999    1.0000 </r>
       <r>   -0.6989    1.0000 </r>
       <r>   -0.6973    1.0000 </r>
       <r>   -0.6858    1.0000 </r>
       <r>   -0.6678    1.0000 </r>
       <r>   -0.6251    1.0000 </r>
       <r>   -0.6089    1.0000 </r>
       <r>   -0.5945    1.0000 </r>
       <r>   -0.4683    1.0000 </r>
       <r>   -0.4343    1.0000 </r>
       <r>   -0.3114    1.0000 </r>
       <r>   -0.0526    1.0000 </r>
       <r>    0.0545    1.0000 </r>
       <r>    0.0589    1.0000 </r>
       <r>    0.1707    1.0000 </r>
       <r>    0.4117    1.0000 </r>
       <r>    0.4723    1.0000 </r>
       <r>    0.5052    1.0000 </r>
       <r>    0.5809    1.0000 </r>
       <r>    0.6471    1.0000 </r>
       <r>    0.6936    1.0000 </r>
       <r>    0.7195    1.0000 </r>
       <r>    0.7627    1.0000 </r>
       <r>    1.0933    1.0000 </r>
       <r>    1.1071    1.0000 </r>
       <r>    1.1211    1.0000 </r>
       <r>    1.1979    1.0000 </r>
       <r>    1.2299    1.0000 </r>
       <r>    1.2911    1.0000 </r>
       <r>    1.3335    1.0000 </r>
       <r>    1.4179    1.0000 </r>
       <r>    1.4911    1.0000 </r>
       <r>    1.4989    1.0000 </r>
       <r>    1.5279    1.0000 </r>
       <r>    1.5286    1.0000 </r>
       <r>    1.5783    1.0000 </r>
       <r>    1.6210    1.0000 </r>
       <r>    1.6337    1.0000 </r>
       <r>    1.6632    1.0000 </r>
       <r>    1.6886    1.0000 </r>
       <r>    1.7999    1.0000 </r>
       <r>    1.9123    1.0000 </r>
       <r>    1.9605    1.0000 </r>
       <r>    1.9745    1.0000 </r>
       <r>    2.0018    1.0000 </r>
       <r>    2.0908    1.0000 </r>
       <r>    2.1868    1.0000 </r>
       <r>    2.2740    1.0000 </r>
       <r>    2.2998    1.0000 </r>
       <r>    2.5338    1.0000 </r>
       <r>    2.5498    1.0000 </r>
       <r>    2.7434    0.3131 </r>
       <r>    2.8783    0.0000 </r>
       <r>    3.1960    0.0000 </r>
       <r>    3.2468    0.0000 </r>
       <r>    3.5514    0.0000 </r>
       <r>    3.6889    0.0000 </r>
       <r>    4.3311    0.0000 </r>
       <r>    4.6108    0.0000 </r>
       <r>    4.7918    0.0000 </r>
       <r>    4.9563    0.0000 </r>
       <r>    5.4572    0.0000 </r>
[...]
       <r>     5.1635     2.2266   141.8604 </r>
       <r>     5.3209     1.1835   142.0467 </r>
       <r>     5.4783     2.2099   142.3945 </r>
       <r>     5.6356     1.9197   142.6966 </r>
       <r>     5.7930     5.8452   143.6166 </r>
       <r>     5.9504     0.9766   143.7703 </r>
       <r>     6.1078     2.3692   144.1432 </r>
       <r>     6.2652     0.6789   144.2500 </r>
       <r>     6.4226     0.0361   144.2557 </r>
       <r>     6.5800     1.4543   144.4846 </r>
       <r>     6.7373     1.6035   144.7369 </r>
       <r>     6.8947     6.8689   145.8180 </r>
       <r>     7.0521     4.2942   146.4938 </r>
       <r>     7.2095     8.2073   147.7855 </r>
       <r>     7.3669     4.7734   148.5368 </r>
       <r>     7.5243     4.6522   149.2690 </r>
       <r>     7.6816     1.8305   149.5571 </r>
       <r>     7.8390     9.5537   151.0607 </r>
       <r>     7.9964    10.4411   152.7039 </r>
       <r>     8.1538     6.8492   153.7819 </r>
       <r>     8.3112     9.2544   155.2384 </r>
       <r>     8.4686     7.5277   156.4231 </r>
       <r>     8.6260     4.1619   157.0782 </r>
       <r>     8.7833    10.0600   158.6615 </r>
       <r>     8.9407     4.6900   159.3996 </r>
       <r>     9.0981     6.3295   160.3958 </r>
       <r>     9.2555     7.5140   161.5784 </r>
       <r>     9.4129    10.8062   163.2791 </r>
       <r>     9.5703    12.4898   165.2448 </r>
       <r>     9.7277    12.7221   167.2471 </r>
       <r>     9.8850    11.9794   169.1324 </r>
       <r>    10.0424    11.6058   170.9590 </r>
       <r>    10.1998    12.3655   172.9052 </r>
       <r>    10.3572    12.1280   174.8139 </r>
       <r>    10.5146     6.2558   175.7985 </r>
       <r>    10.6720     0.5520   175.8854 </r>
       <r>    10.8293     0.7273   175.9998 </r>
       <r>    10.9867     0.0011   176.0000 </r>
       <r>    11.1441     0.0000   176.0000 </r>
       <r>    11.3015     0.0000   176.0000 </r>
       <r>    11.4589     0.0000   176.0000 </r>
       <r>    11.6163     0.0000   176.0000 </r>
       <r>    11.7737     0.0000   176.0000 </r>
       <r>    11.9310     0.0000   176.0000 </r>
       <r>    12.0884     0.0000   176.0000 </r>
       <r>    12.2458     0.0000   176.0000 </r>
       <r>    12.4032     0.0000   176.0000 </r>
       <r>    12.5606     0.0000   176.0000 </r>
       <r>    12.7180     0.0000   176.0000 </r>
       <r>    12.8754     0.0000   176.0000 </r>
      </set>
      <set comment="spin 2">
       <r>   -34.3401     0.0000     0.0000 </r>
       <r>   -34.1828     0.0000     0.0000 </r>
       <r>   -34.0254     0.0000     0.0000 </r>
       <r>   -33.8680     0.0000     0.0000 </r>
       <r>   -33.7106     0.0000     0.0000 </r>
       <r>   -33.5532     0.0000     0.0000 </r>
       <r>   -33.3958     0.0000     0.0000 </r>
       <r>   -33.2384     0.0000     0.0000 </r>
       <r>   -33.0811     0.0000     0.0000 </r>
       <r>   -32.9237     0.0000     0.0000 </r>
       <r>   -32.7663     0.0000     0.0000 </r>
       <r>   -32.6089     0.0000     0.0000 </r>
       <r>   -32.4515     0.0000     0.0000 </r>
       <r>   -32.2941     0.0269     0.0042 </r>
       <r>   -32.1367    23.0366     3.6298 </r>
       <r>   -31.9794     2.3520     4.0000 </r>
       <r>   -31.8220     0.0000     4.0000 </r>
       <r>   -31.6646     0.0000     4.0000 </r>
       <r>   -31.5072     0.0000     4.0000 </r>
       <r>   -31.3498     0.0000     4.0000 </r>
       <r>   -31.1924     0.0000     4.0000 </r>
       <r>   -31.0351     0.0000     4.0000 </r>
       <r>   -30.8777     0.0000     4.0000 </r>
       <r>   -30.7203     0.0002     4.0000 </r>
       <r>   -30.5629    13.7292     6.1608 </r>
       <r>   -30.4055    11.6858     8.0000 </r>
       <r>   -30.2481     0.0001     8.0000 </r>
       <r>   -30.0907     0.0000     8.0000 </r>
       <r>   -29.9334     0.0000     8.0000 </r>
       <r>   -29.7760     0.0000     8.0000 </r>
       <r>   -29.6186     0.0000     8.0000 </r>
       <r>   -29.4612     0.0000     8.0000 </r>
       <r>   -29.3038     0.0000     8.0000 </r>
       <r>   -29.1464     0.0000     8.0000 </r>
       <r>   -28.9890     0.0000     8.0000 </r>
       <r>   -28.8317     0.0000     8.0000 </r>
       <r>   -28.6743     0.0000     8.0000 </r>
       <r>   -28.5169     0.0000     8.0000 </r>
       <r>   -28.3595     0.0000     8.0000 </r>
       <r>   -28.2021     0.0000     8.0000 </r>
       <r>   -28.0447     0.0000     8.0000 </r>
       <r>   -27.8874     0.0000     8.0000 </r>
       <r>   -27.7300     0.0000     8.0000 </r>
       <r>   -27.5726     0.0000     8.0000 </r>
       <r>   -27.4152     0.0000     8.0000 </r>
       <r>   -27.2578     0.0000     8.0000 </r>
       <r>   -27.1004     0.0000     8.0000 </r>
       <r>   -26.9430     0.0000     8.0000 </r>
       <r>   -26.7857     0.0000     8.0000 </r>
       <r>   -26.6283     0.0000     8.0000 </r>
       <r>   -26.4709     0.0000     8.0000 </r>
       <r>   -26.3135     0.0000     8.0000 </r>
       <r>   -26.1561     0.0000     8.0000 </r>
       <r>   -25.9987     0.0000     8.0000 </r>
       <r>   -25.8413     0.0000     8.0000 </r>
       <r>   -25.6840     0.0000     8.0000 </r>
       <r>   -25.5266     0.0000     8.0000 </r>
       <r>   -25.3692     0.0000     8.0000 </r>
       <r>   -25.2118     0.0000     8.0000 </r>
       <r>   -25.0544     0.0000     8.0000 </r>
       <r>   -24.8970     0.0000     8.0000 </r>
       <r>   -24.7397     0.0000     8.0000 </r>
       <r>   -24.5823     0.0000     8.0000 </r>
       <r>   -24.4249     0.0000     8.0000 </r>
       <r>   -24.2675     0.0000     8.0000 </r>
       <r>   -24.1101     0.0000     8.0000 </r>
       <r>   -23.9527     0.0000     8.0000 </r>
       <r>   -23.7953     0.0000     8.0000 </r>
       <r>   -23.6380     0.0000     8.0000 </r>
       <r>   -23.4806     0.0000     8.0000 </r>
       <r>   -23.3232     0.0000     8.0000 </r>
       <r>   -23.1658     0.0000     8.0000 </r>
       <r>   -23.0084     0.0000     8.0000 </r>
       <r>   -22.8510     0.0000     8.0000 </r>
       <r>   -22.6937     0.0000     8.0000 </r>
       <r>   -22.5363     0.0000     8.0000 </r>
       <r>   -22.3789     0.0000     8.0000 </r>
       <r>   -22.2215     0.0000     8.0000 </r>
       <r>   -22.0641     0.0000     8.0000 </r>
       <r>   -21.9067     0.0000     8.0000 </r>
       <r>   -21.7493     0.0000     8.0000 </r>
       <r>   -21.5920     0.0000     8.0000 </r>
       <r>   -21.4346     0.0000     8.0000 </r>
       <r>   -21.2772     0.0000     8.0000 </r>
       <r>   -21.1198     0.0000     8.0000 </r>
       <r>   -20.9624     0.0000     8.0000 </r>
       <r>   -20.8050     0.0000     8.0000 </r>
       <r>   -20.6476     0.0000     8.0000 </r>
       <r>   -20.4903     0.0000     8.0000 </r>
       <r>   -20.3329     0.0000     8.0000 </r>
       <r>   -20.1755     0.0000     8.0000 </r>
       <r>   -20.0181     0.0000     8.0000 </r>
       <r>   -19.8607     0.0000     8.0000 </r>
       <r>   -19.7033     0.0000     8.0000 </r>
       <r>   -19.5460     0.0000     8.0000 </r>
       <r>   -19.3886     0.0000     8.0000 </r>
       <r>   -19.2312     0.0000     8.0000 </r>
       <r>   -19.0738     0.0000     8.0000 </r>
       <r>   -18.9164     0.0000     8.0000 </r>
       <r>   -18.7590     0.0000     8.0000 </r>
       <r>   -18.6016     0.0000     8.0000 </r>
       <r>   -18.4443     0.0000     8.0000 </r>
       <r>   -18.2869     0.0000     8.0000 </r>
       <r>   -18.1295     0.0000     8.0000 </r>
       <r>   -17.9721     0.0000     8.0000 </r>
       <r>   -17.8147     0.0000     8.0000 </r>
       <r>   -17.6573     0.0000     8.0000 </r>
       <r>   -17.4999     0.0000     8.0000 </r>
       <r>   -17.3426     0.0000     8.0000 </r>
       <r>   -17.1852     0.0000     8.0000 </r>
       <r>   -17.0278     0.0000     8.0000 </r>
       <r>   -16.8704     0.0000     8.0000 </r>
       <r>   -16.7130     0.0000     8.0000 </r>
       <r>   -16.5556     0.0000     8.0000 </r>
       <r>   -16.3983     0.0000     8.0000 </r>
       <r>   -16.2409     0.0000     8.0000 </r>
       <r>   -16.0835     0.0000     8.0000 </r>
       <r>   -15.9261     0.0000     8.0000 </r>
       <r>   -15.7687     0.0000     8.0000 </r>
       <r>   -15.6113     0.0000     8.0000 </r>
       <r>   -15.4539     0.0000     8.0000 </r>
       <r>   -15.2966     0.0011     8.0002 </r>
       <r>   -15.1392     2.6954     8.4244 </r>
       <r>   -14.9818    11.9221    10.3007 </r>
       <r>   -14.8244     8.3553    11.6157 </r>
       <r>   -14.6670     3.9639    12.2396 </r>
       <r>   -14.5096    12.2916    14.1741 </r>
       <r>   -14.3522    18.2918    17.0530 </r>
       <r>   -14.1949    20.1351    20.2220 </r>
       <r>   -14.0375     7.4619    21.3963 </r>
       <r>   -13.8801    19.1149    24.4047 </r>
       <r>   -13.7227    17.5897    27.1731 </r>
       <r>   -13.5653    17.0599    29.8581 </r>
       <r>   -13.4079    10.2736    31.4750 </r>
       <r>   -13.2506    24.8406    35.3845 </r>
       <r>   -13.0932     3.9107    36.0000 </r>
       <r>   -12.9358     0.0000    36.0000 </r>
       <r>   -12.7784     0.0002    36.0000 </r>
       <r>   -12.6210     5.4408    36.8563 </r>
       <r>   -12.4636    25.6572    40.8944 </r>
       <r>   -12.3062    17.1875    43.5995 </r>
       <r>   -12.1489    22.4790    47.1373 </r>
       <r>   -11.9915     5.4801    47.9998 </r>
       <r>   -11.8341     0.0012    48.0000 </r>
       <r>   -11.6767     0.0000    48.0000 </r>
       <r>   -11.5193     0.0000    48.0000 </r>
       <r>   -11.3619     0.0000    48.0000 </r>
       <r>   -11.2045     0.0000    48.0000 </r>
       <r>   -11.0472     0.0000    48.0000 </r>
       <r>   -10.8898     0.0000    48.0000 </r>
       <r>   -10.7324     0.0000    48.0000 </r>
       <r>   -10.5750     0.0000    48.0000 </r>
       <r>   -10.4176     0.0000    48.0000 </r>
       <r>   -10.2602     0.0000    48.0000 </r>
       <r>   -10.1029     0.0000    48.0000 </r>
       <r>    -9.9455     0.0000    48.0000 </r>
       <r>    -9.7881     0.0000    48.0000 </r>
       <r>    -9.6307     0.0000    48.0000 </r>
       <r>    -9.4733     0.0000    48.0000 </r>
       <r>    -9.3159     0.0000    48.0000 </r>
       <r>    -9.1585     0.0000    48.0000 </r>
       <r>    -9.0012     0.0000    48.0000 </r>
       <r>    -8.8438     0.0000    48.0000 </r>
       <r>    -8.6864     0.0000    48.0000 </r>
       <r>    -8.5290     0.0000    48.0000 </r>
       <r>    -8.3716     0.0000    48.0000 </r>
       <r>    -8.2142     0.0000    48.0000 </r>
       <r>    -8.0568     0.0000    48.0000 </r>
       <r>    -7.8995     0.0000    48.0000 </r>
       <r>    -7.7421     0.0000    48.0000 </r>
       <r>    -7.5847     0.0000    48.0000 </r>
       <r>    -7.4273     0.0000    48.0000 </r>
       <r>    -7.2699     0.0000    48.0000 </r>
       <r>    -7.1125     0.0000    48.0000 </r>
       <r>    -6.9552     0.0000    48.0000 </r>
       <r>    -6.7978     0.0000    48.0000 </r>
       <r>    -6.6404     0.0000    48.0000 </r>
       <r>    -6.4830     0.0000    48.0000 </r>
       <r>    -6.3256     0.0000    48.0000 </r>
       <r>    -6.1682     0.0000    48.0000 </r>
       <r>    -6.0108     0.0000    48.0000 </r>
       <r>    -5.8535     0.0000    48.0000 </r>
       <r>    -5.6961     0.0000    48.0000 </r>
       <r>    -5.5387     0.0000    48.0000 </r>
       <r>    -5.3813     0.0000    48.0000 </r>
       <r>    -5.2239     0.0000    48.0000 </r>
       <r>    -5.0665     0.0000    48.0000 </r>
       <r>    -4.9091     0.0000    48.0000 </r>
       <r>    -4.7518     0.0000    48.0000 </r>
       <r>    -4.5944     0.0000    48.0000 </r>
       <r>    -4.4370     0.0000    48.0000 </r>
       <r>    -4.2796     0.0000    48.0000 </r>
       <r>    -4.1222     0.0000    48.0000 </r>
       <r>    -3.9648     0.0000    48.0000 </r>
       <r>    -3.8075     0.0000    48.0000 </r>
       <r>    -3.6501     0.0000    48.0000 </r>
       <r>    -3.4927     0.0000    48.0000 </r>
       <r>    -3.3353     0.0000    48.0000 </r>
       <r>    -3.1779     0.0000    48.0000 </r>
       <r>    -3.0205     0.0276    48.0044 </r>
       <r>    -2.8631     7.2048    49.1383 </r>
       <r>    -2.7058     5.6640    50.0297 </r>
       <r>    -2.5484     1.2744    50.2303 </r>
       <r>    -2.3910     4.7932    50.9847 </r>
       <r>    -2.2336     4.9466    51.7632 </r>
       <r>    -2.0762    11.5460    53.5803 </r>
       <r>    -1.9188    17.2453    56.2945 </r>
       <r>    -1.7615     9.8521    57.8451 </r>
       <r>    -1.6041    16.9706    60.5160 </r>
       <r>    -1.4467    19.9058    63.6488 </r>
       <r>    -1.2893    29.7774    68.3354 </r>
       <r>    -1.1319    25.5903    72.3629 </r>
       <r>    -0.9745    14.0297    74.5710 </r>
       <r>    -0.8171    12.2995    76.5067 </r>
       <r>    -0.6598    33.8378    81.8323 </r>
       <r>    -0.5024    39.5556    88.0577 </r>
       <r>    -0.3450    13.9047    90.2461 </r>
       <r>    -0.1876     9.0490    91.6703 </r>
       <r>    -0.0302     5.0373    92.4631 </r>
       <r>     0.1272     7.0041    93.5654 </r>
       <r>     0.2846    10.3204    95.1897 </r>
       <r>     0.4419     8.4038    96.5124 </r>
       <r>     0.5993    16.4674    99.1041 </r>
       <r>     0.7567    11.2160   100.8693 </r>
       <r>     0.9141    12.1668   102.7842 </r>
       <r>     1.0715     9.5648   104.2895 </r>
       <r>     1.2289    18.4407   107.1918 </r>
       <r>     1.3862    24.7715   111.0905 </r>
       <r>     1.5436    25.3736   115.0839 </r>
       <r>     1.7010    22.6499   118.6486 </r>
       <r>     1.8584    16.9836   121.3216 </r>
       <r>     2.0158    16.4029   123.9032 </r>
       <r>     2.1732    12.0332   125.7970 </r>
       <r>     2.3306    17.1531   128.4967 </r>
       <r>     2.4879    10.5860   130.1628 </r>
       <r>     2.6453     6.8588   131.2422 </r>
       <r>     2.8027     6.6395   132.2872 </r>
       <r>     2.9601     5.4086   133.1384 </r>
       <r>     3.1175     2.7420   133.5700 </r>
       <r>     3.2749     3.8433   134.1748 </r>
       <r>     3.4323     5.8015   135.0879 </r>
       <r>     3.5896     5.2794   135.9188 </r>
       <r>     3.7470     6.6408   136.9640 </r>
       <r>     3.9044     3.5521   137.5230 </r>
       <r>     4.0618     2.2398   137.8755 </r>
       <r>     4.2192     1.2895   138.0785 </r>
       <r>     4.3766     2.0396   138.3995 </r>
       <r>     4.5339     5.2053   139.2187 </r>
       <r>     4.6913     2.4050   139.5972 </r>
       <r>     4.8487     4.3552   140.2827 </r>
       <r>     5.0061     7.7330   141.4997 </r>
       <r>     5.1635     2.2947   141.8609 </r>
       <r>     5.3209     1.1349   142.0395 </r>
       <r>     5.4783     2.2587   142.3950 </r>
       <r>     5.6356     1.9492   142.7018 </r>
       <r>     5.7930     5.7600   143.6083 </r>
       <r>     5.9504     1.0781   143.7780 </r>
       <r>     6.1078     2.3637   144.1500 </r>
       <r>     6.2652     0.6354   144.2500 </r>
       <r>     6.4226     0.0479   144.2575 </r>
       <r>     6.5800     1.4445   144.4849 </r>
       <r>     6.7373     1.7368   144.7582 </r>
       <r>     6.8947     6.8004   145.8285 </r>
       <r>     7.0521     4.5210   146.5400 </r>
       <r>     7.2095     7.9701   147.7944 </r>
       <r>     7.3669     4.7560   148.5429 </r>
       <r>     7.5243     4.6390   149.2730 </r>
       <r>     7.6816     1.8592   149.5657 </r>
       <r>     7.8390     9.6129   151.0786 </r>
       <r>     7.9964    10.4032   152.7159 </r>
       <r>     8.1538     6.8004   153.7862 </r>
       <r>     8.3112     9.2997   155.2498 </r>
       <r>     8.4686     7.4487   156.4221 </r>
       <r>     8.6260     4.1716   157.0787 </r>
       <r>     8.7833    10.0504   158.6604 </r>
       <r>     8.9407     4.6713   159.3956 </r>
       <r>     9.0981     6.3689   160.3980 </r>
       <r>     9.2555     7.4352   161.5682 </r>
       <r>     9.4129    10.8103   163.2696 </r>
       <r>     9.5703    12.4417   165.2277 </r>
       <r>     9.7277    12.7528   167.2348 </r>
       <r>     9.8850    11.8867   169.1056 </r>
       <r>    10.0424    11.6042   170.9319 </r>
       <r>    10.1998    12.3549   172.8764 </r>
       <r>    10.3572    12.3054   174.8131 </r>
       <r>    10.5146     6.2408   175.7953 </r>
       <r>    10.6720     0.5644   175.8841 </r>
       <r>    10.8293     0.7351   175.9998 </r>
       <r>    10.9867     0.0013   176.0000 </r>
       <r>    11.1441     0.0000   176.0000 </r>
       <r>    11.3015     0.0000   176.0000 </r>
       <r>    11.4589     0.0000   176.0000 </r>
       <r>    11.6163     0.0000   176.0000 </r>
       <r>    11.7737     0.0000   176.0000 </r>
       <r>    11.9310     0.0000   176.0000 </r>
       <r>    12.0884     0.0000   176.0000 </r>
       <r>    12.2458     0.0000   176.0000 </r>
       <r>    12.4032     0.0000   176.0000 </r>
       <r>    12.5606     0.0000   176.0000 </r>
       <r>    12.7180     0.0000   176.0000 </r>
       <r>    12.8754     0.0000   176.0000 </r>
      </set>
     </set>
    </array>
   </total>
  </dos>
 </calculation>
 <structure name="finalpos" >
  <crystal>
   <varray name="basis" >
    <v>       9.79795897       0.00000000       0.00000000 </v>
    <v>       0.00000000       5.65685425       0.00000000 </v>
    <v>      -3.26598632       0.00000000       9.23760431 </v>
   </varray>
   <i name="volume">    512.00000000 </i>
   <varray name="rec_basis" >
    <v>       0.10206207       0.00000000       0.03608439 </v>
    <v>       0.00000000       0.17677670       0.00000000 </v>
    <v>       0.00000000       0.00000000       0.10825318 </v>
   </varray>
  </crystal>
  <varray name="positions" >
   <v>       0.87500000       0.00000000       0.62500000 </v>
   <v>       0.62500000       0.00000000       0.87500000 </v>
   <v>       0.37500000       0.00000000       0.12500000 </v>
   <v>       0.62500000       0.50000000       0.37500000 </v>
   <v>       0.37500000       0.50000000       0.62500000 </v>
   <v>       0.12500000       0.50000000       0.87500000 </v>
   <v>       0.87500000       0.50000000       0.12500000 </v>
   <v>       0.12500000       0.00000000       0.37500000 </v>
   <v>       0.00000000       0.50000000       0.50000000 </v>
   <v>       0.25000000       0.00000000       0.75000000 </v>
   <v>       0.50000000       0.50000000       0.00000000 </v>
   <v>       0.75000000       0.00000000       0.25000000 </v>
   <v>       0.50000000       0.00000000       0.50000000 </v>
   <v>       0.75000000       0.50000000       0.75000000 </v>
   <v>       0.00000000       0.00000000       0.00000000 </v>
   <v>       0.25000000       0.50000000       0.25000000 </v>
   <v>       0.37500000       0.75000000       0.87500000 </v>
   <v>       0.62500000       0.25000000       0.12500000 </v>
   <v>       0.37500000       0.25000000       0.87500000 </v>
   <v>       0.62500000       0.75000000       0.12500000 </v>
   <v>       0.87500000       0.50000000       0.62500000 </v>
   <v>       0.12500000       0.00000000       0.87500000 </v>
   <v>       0.87500000       0.00000000       0.12500000 </v>
   <v>       0.62500000       0.00000000       0.37500000 </v>
   <v>       0.87500000       0.25000000       0.87500000 </v>
   <v>       0.12500000       0.75000000       0.12500000 </v>
   <v>       0.87500000       0.75000000       0.87500000 </v>
   <v>       0.12500000       0.25000000       0.12500000 </v>
   <v>       0.37500000       0.00000000       0.62500000 </v>
   <v>       0.62500000       0.50000000       0.87500000 </v>
   <v>       0.37500000       0.50000000       0.12500000 </v>
   <v>       0.12500000       0.50000000       0.37500000 </v>
  </varray>
 </structure>
</modeling>
