<?xml version="1.0" encoding="ISO-8859-1"?>
<modeling>
 <generator>
  <i name="program" type="string">vasp </i>
  <i name="version" type="string">5.3.5  </i>
  <i name="subversion" type="string">31Mar14 (build Jun 20 2014 13:15:13) complex                          parallel </i>
  <i name="platform" type="string">LinuxIFC </i>
  <i name="date" type="string">2025 12 12 </i>
  <i name="time" type="string">12:14:17 </i>
 </generator>
 <incar>
  <i type="string" name="PREC">accurate</i>
  <i type="int" name="IALGO">    38</i>
  <i type="logical" name="ADDGRID"> T  </i>
  <i type="int" name="ISPIN">     2</i>
  <i type="int" name="NELM">   100</i>
  <i type="int" name="NELMIN">     4</i>
  <i name="EDIFF">      0.00000100</i>
  <i name="ENCUT">    500.00000000</i>
  <i type="logical" name="LREAL"> F  </i>
  <i type="int" name="ISMEAR">     0</i>
  <i name="SIGMA">      0.05000000</i>
  <i type="logical" name="LWAVE"> F  </i>
  <i type="logical" name="LCHARG"> F  </i>
  <i type="int" name="NELM">   100</i>
  <i type="logical" name="LDAU"> T  </i>
  <v name="LDAUU">      0.00000000      4.00000000      0.00000000</v>
  <v name="LDAUJ">      0.00000000      0.00000000      0.00000000</v>
 </incar>
 <kpoints>
  <generation param="Auto">
   <i name="subdivisionlength">     20.00000000 </i>
   <v type="int" name="divisions">       4        4        1 </v>
   <v name="usershift">      0.00000000       0.00000000       0.00000000 </v>
   <v name="genvec1">      0.25000000       0.00000000       0.00000000 </v>
   <v name="genvec2">      0.00000000       0.25000000       0.00000000 </v>
   <v name="genvec3">      0.00000000       0.00000000       1.00000000 </v>
   <v name="shift">      0.00000000       0.00000000       0.00000000 </v>
  </generation>
  <varray name="kpointlist" >
   <v>       0.00000000       0.00000000       0.00000000 </v>
   <v>       0.25000000       0.00000000       0.00000000 </v>
   <v>       0.50000000       0.00000000       0.00000000 </v>
   <v>       0.25000000       0.25000000       0.00000000 </v>
  </varray>
  <varray name="weights" >
   <v>       0.06250000 </v>
   <v>       0.37500000 </v>
   <v>       0.18750000 </v>
   <v>       0.37500000 </v>
  </varray>
 </kpoints>
 <parameters>
  <separator name="general" >
   <i type="string" name="SYSTEM">unknown system</i>
   <i type="logical" name="LCOMPAT"> F  </i>
  </separator>
  <separator name="electronic" >
   <i type="string" name="PREC">accura</i>
   <i name="ENMAX">    500.00000000</i>
   <i name="ENAUG">    586.98000000</i>
   <i name="EDIFF">      0.00000100</i>
   <i type="int" name="IALGO">    38</i>
   <i type="int" name="IWAVPR">    10</i>
   <i type="int" name="NBANDS">   276</i>
   <i name="NELECT">    414.00000000</i>
   <i type="int" name="TURBO">     0</i>
   <i type="int" name="IRESTART">     0</i>
   <i type="int" name="NREBOOT">     0</i>
   <i type="int" name="NMIN">     0</i>
   <i name="EREF">      0.00000000</i>
   <separator name="electronic smearing" >
    <i type="int" name="ISMEAR">     0</i>
    <i name="SIGMA">      0.05000000</i>
    <i name="KSPACING">      0.50000000</i>
    <i type="logical" name="KGAMMA"> T  </i>
   </separator>
   <separator name="electronic projectors" >
    <i type="logical" name="LREAL"> F  </i>
    <v name="ROPT">      0.00000000      0.00000000      0.00000000</v>
    <i type="int" name="LMAXPAW">  -100</i>
    <i type="int" name="LMAXMIX">     2</i>
    <i type="logical" name="NLSPLINE"> F  </i>
   </separator>
   <separator name="electronic startup" >
    <i type="int" name="ISTART">     0</i>
    <i type="int" name="ICHARG">     2</i>
    <i type="int" name="INIWAV">     1</i>
   </separator>
   <separator name="electronic spin" >
    <i type="int" name="ISPIN">     2</i>
    <i type="logical" name="LNONCOLLINEAR"> F  </i>
    <v name="MAGMOM">      1.00000000      1.00000000      1.00000000      1.00000000      1.00000000      1.00000000      1.00000000      1.00000000      1.00000000      1.00000000      1.00000000      1.00000000      1.00000000      1.00000000      1.00000000      1.00000000      1.00000000      1.00000000      1.00000000      1.00000000
      1.00000000      1.00000000      1.00000000      1.00000000      1.00000000      1.00000000      1.00000000      1.00000000      1.00000000      1.00000000      1.00000000      1.00000000      1.00000000      1.00000000      1.00000000      1.00000000      1.00000000      1.00000000      1.00000000      1.00000000
      1.00000000      1.00000000      1.00000000      1.00000000      1.00000000      1.00000000      1.00000000      1.00000000      1.00000000      1.00000000      1.00000000</v>
    <i name="NUPDOWN">     -1.00000000</i>
    <i type="logical" name="LSORBIT"> F  </i>
    <v name="SAXIS">      0.00000000      0.00000000      1.00000000</v>
    <i type="logical" name="LSPIRAL"> F  </i>
    <v name="QSPIRAL">      0.00000000      0.00000000      0.00000000</v>
    <i type="logical" name="LZEROZ"> F  </i>
   </separator>
   <separator name="electronic exchange-correlation" >
    <i type="logical" name="LASPH"> F  </i>
    <i type="logical" name="LMETAGGA"> F  </i>
   </separator>
   <separator name="electronic convergence" >
    <i type="int" name="NELM">   100</i>
    <i type="int" name="NELMDL">    -5</i>
    <i type="int" name="NELMIN">     4</i>
    <i name="ENINI">    500.00000000</i>
    <separator name="electronic convergence detail" >
     <i type="logical" name="LDIAG"> T  </i>
     <i type="logical" name="LSUBROT"> F  </i>
     <i name="WEIMIN">      0.00000000</i>
     <i name="EBREAK">      0.00000000</i>
     <i name="DEPER">      0.30000000</i>
     <i type="int" name="NRMM">     4</i>
     <i name="TIME">      0.40000000</i>
    </separator>
   </separator>
   <separator name="electronic mixer" >
    <i name="AMIX">      0.40000000</i>
    <i name="BMIX">      1.00000000</i>
    <i name="AMIN">      0.10000000</i>
    <i name="AMIX_MAG">      1.60000000</i>
    <i name="BMIX_MAG">      1.00000000</i>
    <separator name="electronic mixer details" >
     <i type="int" name="IMIX">     4</i>
     <i type="int" name="MAXMIX">   -45</i>
     <i name="WC">    100.00000000</i>
     <i type="int" name="INIMIX">     1</i>
     <i type="int" name="MIXPRE">     1</i>
     <i type="int" name="MREMOVE">     5</i>
    </separator>
   </separator>
   <separator name="electronic dipolcorrection" >
    <i type="logical" name="LDIPOL"> F  </i>
    <i type="logical" name="LMONO"> F  </i>
    <i type="int" name="IDIPOL">     0</i>
    <i name="EPSILON">      1.00000000</i>
    <v name="DIPOL">   -100.00000000   -100.00000000   -100.00000000</v>
    <i name="EFIELD">      0.00000000</i>
   </separator>
  </separator>
  <separator name="grids" >
   <i type="int" name="NGX">    42</i>
   <i type="int" name="NGY">    42</i>
   <i type="int" name="NGZ">   210</i>
   <i type="int" name="NGXF">    84</i>
   <i type="int" name="NGYF">    84</i>
   <i type="int" name="NGZF">   420</i>
   <i type="logical" name="ADDGRID"> T  </i>
  </separator>
  <separator name="ionic" >
   <i type="int" name="NSW">     0</i>
   <i type="int" name="IBRION">    -1</i>
   <i type="int" name="ISIF">     2</i>
   <i name="PSTRESS">      0.00000000</i>
   <i name="EDIFFG">      0.00001000</i>
   <i type="int" name="NFREE">     0</i>
   <i name="POTIM">      0.50000000</i>
   <i name="SMASS">     -3.00000000</i>
   <i name="SCALEE">      1.00000000</i>
  </separator>
  <separator name="ionic md" >
   <i name="TEBEG">      0.00010000</i>
   <i name="TEEND">      0.00010000</i>
   <i type="int" name="NBLOCK">     1</i>
   <i type="int" name="KBLOCK">     1</i>
   <i type="int" name="NPACO">   256</i>
   <i name="APACO">     16.00000000</i>
  </separator>
  <separator name="symmetry" >
   <i type="int" name="ISYM">     2</i>
   <i name="SYMPREC">      0.00001000</i>
  </separator>
  <separator name="dos" >
   <i type="logical" name="LORBIT"> F  </i>
   <v name="RWIGS">     -1.00000000     -1.00000000     -1.00000000</v>
   <i type="int" name="NEDOS">   301</i>
   <i name="EMIN">     10.00000000</i>
   <i name="EMAX">    -10.00000000</i>
   <i name="EFERMI">      0.00000000</i>
  </separator>
  <separator name="writing" >
   <i type="int" name="NWRITE">     2</i>
   <i type="logical" name="LWAVE"> F  </i>
   <i type="logical" name="LCHARG"> F  </i>
   <i type="logical" name="LPARD"> F  </i>
   <i type="logical" name="LVTOT"> F  </i>
   <i type="logical" name="LVHAR"> F  </i>
   <i type="logical" name="LELF"> F  </i>
   <i type="logical" name="LOPTICS"> F  </i>
   <v name="STM">      0.00000000      0.00000000      0.00000000      0.00000000      0.00000000      0.00000000      0.00000000</v>
  </separator>
  <separator name="performance" >
   <i type="int" name="NPAR">     4</i>
   <i type="int" name="NSIM">     4</i>
   <i type="int" name="NBLK">    -1</i>
   <i type="logical" name="LPLANE"> T  </i>
   <i type="logical" name="LSCALAPACK"> T  </i>
   <i type="logical" name="LSCAAWARE"> F  </i>
   <i type="logical" name="LSCALU"> F  </i>
   <i type="logical" name="LASYNC"> F  </i>
   <i type="logical" name="LORBITALREAL"> F  </i>
  </separator>
  <separator name="miscellaneous" >
   <i type="int" name="IDIOT">     3</i>
   <i type="logical" name="LMUSIC"> F  </i>
   <v name="POMASS">     87.62000000     63.54600000     16.00000000</v>
   <v name="DARWINR">      0.00000000      0.00000000      0.00000000</v>
   <v name="DARWINV">      1.00000000      1.00000000      1.00000000</v>
   <i type="logical" name="LCORR"> T  </i>
  </separator>
  <i type="logical" name="GGA_COMPAT"> T  </i>
  <i type="logical" name="LBERRY"> F  </i>
  <i type="int" name="ICORELEVEL">     0</i>
  <i type="logical" name="LDAU"> T  </i>
  <v type="int" name="LDAUTYPE">     2</v>
  <v type="int" name="LDAUL">     2</v>
  <v name="LDAUU">      0.00000000</v>
  <v name="LDAUJ">      0.00000000</v>
  <i type="int" name="LDAUPRINT">     0</i>
  <i type="int" name="I_CONSTRAINED_M">     0</i>
  <separator name="electronic exchange-correlation" >
   <i type="string" name="GGA">--</i>
   <i type="int" name="VOSKOWN">     0</i>
   <i type="logical" name="LHFCALC"> F  </i>
   <i type="string" name="PRECFOCK"></i>
   <i type="logical" name="LSYMGRAD"> F  </i>
   <i type="logical" name="LHFONE"> F  </i>
   <i type="logical" name="LRHFCALC"> F  </i>
   <i type="logical" name="LTHOMAS"> F  </i>
   <i type="logical" name="LMODELHF"> F  </i>
   <i name="ENCUT4O">     -1.00000000</i>
   <i type="int" name="EXXOEP">     0</i>
   <i type="int" name="FOURORBIT">     0</i>
   <i name="AEXX">      0.00000000</i>
   <i name="HFALPHA">      0.00000000</i>
   <i name="MCALPHA">      0.00000000</i>
   <i name="ALDAX">      1.00000000</i>
   <i name="AGGAX">      1.00000000</i>
   <i name="ALDAC">      1.00000000</i>
   <i name="AGGAC">      1.00000000</i>
   <i type="int" name="NKREDX">     1</i>
   <i type="int" name="NKREDY">     1</i>
   <i type="int" name="NKREDZ">     1</i>
   <i type="logical" name="SHIFTRED"> F  </i>
   <i type="logical" name="ODDONLY"> F  </i>
   <i type="logical" name="EVENONLY"> F  </i>
   <i type="int" name="LMAXFOCK">     0</i>
   <i type="int" name="NMAXFOCKAE">     0</i>
   <i type="logical" name="LFOCKAEDFT"> F  </i>
   <i name="HFSCREEN">      0.00000000</i>
   <i name="HFSCREENC">      0.00000000</i>
   <i type="int" name="NBANDSGWLOW">     0</i>
  </separator>
  <separator name="vdW DFT" >
   <i type="logical" name="LUSE_VDW"> F  </i>
   <i name="Zab_VDW">     -0.84910000</i>
   <i name="PARAM1">      0.12340000</i>
   <i name="PARAM2">      1.00000000</i>
   <i name="PARAM3">      0.00000000</i>
  </separator>
  <separator name="model GW" >
   <i type="int" name="MODEL_GW">     0</i>
   <i name="MODEL_EPS0">      9.03529412</i>
   <i name="MODEL_ALPHA">      1.00000000</i>
  </separator>
  <separator name="linear response parameters" >
   <i type="logical" name="LEPSILON"> F  </i>
   <i type="logical" name="LRPA"> F  </i>
   <i type="logical" name="LNABLA"> F  </i>
   <i type="logical" name="LVEL"> F  </i>
   <i type="int" name="KINTER">     0</i>
   <i name="CSHIFT">      0.10000000</i>
   <i name="OMEGAMAX">     -1.00000000</i>
   <i name="DEG_THRESHOLD">      0.00200000</i>
  </separator>
  <separator name="orbital magnetization" >
   <i type="logical" name="NUCIND"> F  </i>
   <v name="MAGPOS">      0.00000000      0.00000000      0.00000000</v>
   <i type="logical" name="LNICSALL"> T  </i>
   <i type="logical" name="ORBITALMAG"> F  </i>
   <i type="logical" name="LMAGBLOCH"> F  </i>
   <i type="logical" name="LCHIMAG"> F  </i>
   <i type="logical" name="LGAUGE"> T  </i>
   <i type="int" name="MAGATOM">     0</i>
   <v name="MAGDIPOL">      0.00000000      0.00000000      0.00000000</v>
   <v name="AVECCONST">      0.00000000      0.00000000      0.00000000</v>
  </separator>
  <separator name="response functions" >
   <i type="logical" name="LADDER"> F  </i>
   <i type="logical" name="LFXC"> F  </i>
   <i type="logical" name="LHARTREE"> T  </i>
   <i type="int" name="IBSE">     0</i>
   <i type="logical" name="LTCTE"> F  </i>
   <i type="logical" name="LTETE"> F  </i>
   <i type="logical" name="LTRIPLET"> F  </i>
   <i type="logical" name="LFXCEPS"> F  </i>
   <i type="logical" name="LFXHEG"> F  </i>
   <i type="logical" name="L2ORDER"> F  </i>
   <i type="logical" name="LUSEW"> F  </i>
   <i name="ENCUTGW">     -2.00000000</i>
   <i name="ENCUTGWSOFT">     -2.00000000</i>
   <i name="ENCUTLF">     -1.00000000</i>
   <i type="int" name="LMAXMP2">    -1</i>
   <i name="SCISSOR">      0.00000000</i>
   <i type="int" name="NOMEGA">     0</i>
   <i type="int" name="NOMEGAR">     0</i>
   <i type="int" name="NBANDSGW">    -1</i>
   <i type="int" name="NBANDSO">    -1</i>
   <i type="int" name="NBANDSV">    -1</i>
   <i type="int" name="NELM">   100</i>
   <i type="int" name="DIM">     3</i>
   <i type="int" name="ANTIRES">     0</i>
   <i name="OMEGAMAX">    -30.00000000</i>
   <i name="OMEGAMIN">    -30.00000000</i>
   <i name="OMEGATL">   -200.00000000</i>
   <i type="int" name="OMEGAGRID">     0</i>
   <i name="CSHIFT">     -0.10000000</i>
   <i type="logical" name="SELFENERGY"> F  </i>
   <i type="logical" name="LSPECTRAL"> F  </i>
   <i type="logical" name="ODDONLYGW"> F  </i>
   <i type="logical" name="EVENONLYGW"> F  </i>
   <i type="int" name="NKREDLFX">     1</i>
   <i type="int" name="NKREDLFY">     1</i>
   <i type="int" name="NKREDLFZ">     1</i>
   <i type="int" name="MAXMEM">  1800</i>
   <i type="int" name="TELESCOPE">     0</i>
   <i type="int" name="TAUPAR">     1</i>
  </separator>
  <separator name="External order field" >
   <i name="OFIELD_KAPPA">      0.00000000</i>
   <v name="OFIELD_K">      0.00000000      0.00000000      0.00000000</v>
   <i name="OFIELD_Q6_NEAR">      0.00000000</i>
   <i name="OFIELD_Q6_FAR">      0.00000000</i>
   <i name="OFIELD_A">      0.00000000</i>
  </separator>
 </parameters>
 <atominfo>
  <atoms>      51 </atoms>
  <types>       3 </types>
  <array name="atoms" >
   <dimension dim="1">ion</dimension>
   <field type="string">element</field>
   <field type="int">atomtype</field>
   <set>
    <rc><c>Sr</c><c>   1</c></rc>
    <rc><c>Sr</c><c>   1</c></rc>
    <rc><c>Sr</c><c>   1</c></rc>
    <rc><c>Sr</c><c>   1</c></rc>
    <rc><c>Sr</c><c>   1</c></rc>
    <rc><c>Sr</c><c>   1</c></rc>
    <rc><c>Sr</c><c>   1</c></rc>
    <rc><c>Sr</c><c>   1</c></rc>
    <rc><c>Sr</c><c>   1</c></rc>
    <rc><c>Sr</c><c>   1</c></rc>
    <rc><c>Sr</c><c>   1</c></rc>
    <rc><c>Sr</c><c>   1</c></rc>
    <rc><c>Cu</c><c>   2</c></rc>
    <rc><c>Cu</c><c>   2</c></rc>
    <rc><c>Cu</c><c>   2</c></rc>
    <rc><c>Cu</c><c>   2</c></rc>
    <rc><c>Cu</c><c>   2</c></rc>
    <rc><c>Cu</c><c>   2</c></rc>
    <rc><c>Cu</c><c>   2</c></rc>
    <rc><c>Cu</c><c>   2</c></rc>
    <rc><c>Cu</c><c>   2</c></rc>
    <rc><c>Cu</c><c>   2</c></rc>
    <rc><c>Cu</c><c>   2</c></rc>
    <rc><c>Cu</c><c>   2</c></rc>
    <rc><c>O </c><c>   3</c></rc>
    <rc><c>O </c><c>   3</c></rc>
    <rc><c>O </c><c>   3</c></rc>
    <rc><c>O </c><c>   3</c></rc>
    <rc><c>O </c><c>   3</c></rc>
    <rc><c>O </c><c>   3</c></rc>
    <rc><c>O </c><c>   3</c></rc>
    <rc><c>O </c><c>   3</c></rc>
    <rc><c>O </c><c>   3</c></rc>
    <rc><c>O </c><c>   3</c></rc>
    <rc><c>O </c><c>   3</c></rc>
    <rc><c>O </c><c>   3</c></rc>
    <rc><c>O </c><c>   3</c></rc>
    <rc><c>O </c><c>   3</c></rc>
    <rc><c>O </c><c>   3</c></rc>
    <rc><c>O </c><c>   3</c></rc>
    <rc><c>O </c><c>   3</c></rc>
    <rc><c>O </c><c>   3</c></rc>
    <rc><c>O </c><c>   3</c></rc>
    <rc><c>O </c><c>   3</c></rc>
    <rc><c>O </c><c>   3</c></rc>
    <rc><c>O </c><c>   3</c></rc>
    <rc><c>O </c><c>   3</c></rc>
    <rc><c>O </c><c>   3</c></rc>
    <rc><c>O </c><c>   3</c></rc>
    <rc><c>O </c><c>   3</c></rc>
    <rc><c>O </c><c>   3</c></rc>
   </set>
  </array>
  <array name="atomtypes" >
   <dimension dim="1">type</dimension>
   <field type="int">atomspertype</field>
   <field type="string">element</field>
   <field>mass</field>
   <field>valence</field>
   <field type="string">pseudopotential</field>
   <set>
    <rc><c>  12</c><c>Sr</c><c>     87.62000000</c><c>     10.00000000</c><c>  PAW_PBE Sr_sv 07Sep2000               </c></rc>
    <rc><c>  12</c><c>Cu</c><c>     63.54600000</c><c>     11.00000000</c><c>  PAW_PBE Cu 22Jun2005                  </c></rc>
    <rc><c>  27</c><c>O </c><c>     16.00000000</c><c>      6.00000000</c><c>  PAW_PBE O_s 07Sep2000                 </c></rc>
   </set>
  </array>
 </atominfo>
 <structure name="initialpos" >
  <crystal>
   <varray name="basis" >
    <v>       5.65685425       0.00000000       0.00000000 </v>
    <v>      -2.82842712       4.89897949       0.00000000 </v>
    <v>       0.00000000       0.00000000      27.71281292 </v>
   </varray>
   <i name="volume">    768.00000000 </i>
   <varray name="rec_basis" >
    <v>       0.17677670       0.10206207       0.00000000 </v>
    <v>       0.00000000       0.20412415       0.00000000 </v>
    <v>       0.00000000       0.00000000       0.03608439 </v>
   </varray>
  </crystal>
  <varray name="positions" >
   <v>       0.00000000       0.00000000       0.25000000 </v>
   <v>       0.00000000       0.00000000       0.00000000 </v>
   <v>       0.66666667       0.33333333       0.08333333 </v>
   <v>       0.33333333       0.66666667       0.16666667 </v>
   <v>       0.66666667       0.33333333       0.58333333 </v>
   <v>       0.66666667       0.33333333       0.33333333 </v>
   <v>       0.33333333       0.66666667       0.41666667 </v>
   <v>       0.00000000       0.00000000       0.50000000 </v>
   <v>       0.33333333       0.66666667       0.91666667 </v>
   <v>       0.33333333       0.66666667       0.66666667 </v>
   <v>       0.00000000       0.00000000       0.75000000 </v>
   <v>       0.66666667       0.33333333       0.83333333 </v>
   <v>       0.66666667       0.33333333       0.20833333 </v>
   <v>       0.66666667       0.33333333       0.95833333 </v>
   <v>       0.33333333       0.66666667       0.04166667 </v>
   <v>       0.00000000       0.00000000       0.12500000 </v>
   <v>       0.33333333       0.66666667       0.54166667 </v>
   <v>       0.33333333       0.66666667       0.29166667 </v>
   <v>       0.00000000       0.00000000       0.37500000 </v>
   <v>       0.66666667       0.33333333       0.45833333 </v>
   <v>       0.00000000       0.00000000       0.87500000 </v>
   <v>       0.00000000       0.00000000       0.62500000 </v>
   <v>       0.66666667       0.33333333       0.70833333 </v>
   <v>       0.33333333       0.66666667       0.79166667 </v>
   <v>       0.00000000       0.50000000       0.25000000 </v>
   <v>       0.00000000       0.50000000       0.00000000 </v>
   <v>       0.66666667       0.83333333       0.08333333 </v>
   <v>       0.50000000       0.50000000       0.25000000 </v>
   <v>       0.50000000       0.50000000       0.00000000 </v>
   <v>       0.16666667       0.83333333       0.08333333 </v>
   <v>       0.50000000       0.00000000       0.25000000 </v>
   <v>       0.50000000       0.00000000       0.00000000 </v>
   <v>       0.16666667       0.33333333       0.08333333 </v>
   <v>       0.66666667       0.83333333       0.58333333 </v>
   <v>       0.66666667       0.83333333       0.33333333 </v>
   <v>       0.33333333       0.16666667       0.41666667 </v>
   <v>       0.16666667       0.83333333       0.58333333 </v>
   <v>       0.16666667       0.83333333       0.33333333 </v>
   <v>       0.83333333       0.16666667       0.41666667 </v>
   <v>       0.16666667       0.33333333       0.58333333 </v>
   <v>       0.16666667       0.33333333       0.33333333 </v>
   <v>       0.83333333       0.66666667       0.41666667 </v>
   <v>       0.33333333       0.16666667       0.91666667 </v>
   <v>       0.33333333       0.16666667       0.66666667 </v>
   <v>       0.00000000       0.50000000       0.75000000 </v>
   <v>       0.83333333       0.16666667       0.91666667 </v>
   <v>       0.83333333       0.16666667       0.66666667 </v>
   <v>       0.50000000       0.50000000       0.75000000 </v>
   <v>       0.83333333       0.66666667       0.91666667 </v>
   <v>       0.83333333       0.66666667       0.66666667 </v>
   <v>       0.50000000       0.00000000       0.75000000 </v>
  </varray>
 </structure>
 <calculation>
  <scstep>
   <time name="dav">   13.76   13.77</time>
   <time name="total">   14.48   14.51</time>
   <energy>
    <i name="alphaZ">   1906.94750048 </i>
    <i name="ewald"> -26488.57799329 </i>
    <i name="hartreedc"> -12319.43453092 </i>
    <i name="XCdc">   1713.81366574 </i>
    <i name="pawpsdc">  31598.96451141 </i>
    <i name="pawaedc"> -32597.79805768 </i>
    <i name="eentropy">     -0.00441419 </i>
    <i name="bandstr">   3271.60515147 </i>
    <i name="atom">  38482.13868926 </i>
    <i name="e_fr_energy">   5567.65452229 </i>
    <i name="e_wo_entrp">   5567.65893648 </i>
    <i name="e_0_energy">   5567.65672938 </i>
   </energy>
  </scstep>
  <scstep>
   <time name="dav">   13.76   13.77</time>
   <time name="total">   13.76   13.78</time>
   <energy>
    <i name="e_fr_energy">    680.34854577 </i>
    <i name="e_wo_entrp">    680.37482141 </i>
    <i name="e_0_energy">    680.36168359 </i>
   </energy>
  </scstep>
  <scstep>
   <time name="dav">   13.87   13.88</time>
   <time name="total">   13.87   13.90</time>
   <energy>
    <i name="e_fr_energy">   -226.96877263 </i>
    <i name="e_wo_entrp">   -226.91683679 </i>
    <i name="e_0_energy">   -226.94280471 </i>
   </energy>
  </scstep>
  <scstep>
   <time name="dav">   17.90   17.92</time>
   <time name="total">   17.91   17.94</time>
   <energy>
    <i name="e_fr_energy">   -311.22792710 </i>
    <i name="e_wo_entrp">   -311.14995153 </i>
    <i name="e_0_energy">   -311.18893932 </i>
   </energy>
  </scstep>
  <scstep>
   <time name="dav">   22.16   22.17</time>
   <time name="total">   23.34   23.38</time>
   <energy>
    <i name="e_fr_energy">   -316.96498864 </i>
    <i name="e_wo_entrp">   -316.88589602 </i>
    <i name="e_0_energy">   -316.92544233 </i>
   </energy>
  </scstep>
  <scstep>
   <time name="dav">   19.26   19.31</time>
   <time name="total">   21.16   21.23</time>
   <energy>
    <i name="e_fr_energy">   -290.37575725 </i>
    <i name="e_wo_entrp">   -290.30414737 </i>
    <i name="e_0_energy">   -290.33995231 </i>
   </energy>
  </scstep>
  <scstep>
   <time name="dav">   18.50   18.51</time>
   <time name="total">   20.40   20.43</time>
   <energy>
    <i name="e_fr_energy">   -252.52404385 </i>
    <i name="e_wo_entrp">   -252.46808738 </i>
    <i name="e_0_energy">   -252.49606561 </i>
   </energy>
  </scstep>
  <scstep>
   <time name="dav">   19.02   19.04</time>
   <time name="total">   20.93   20.96</time>
   <energy>
    <i name="e_fr_energy">   -243.19747819 </i>
    <i name="e_wo_entrp">   -243.18270618 </i>
    <i name="e_0_energy">   -243.19009219 </i>
   </energy>
  </scstep>
  <scstep>
   <time name="dav">   19.06   19.07</time>
   <time name="total">   20.96   20.99</time>
   <energy>
    <i name="e_fr_energy">   -234.65114751 </i>
    <i name="e_wo_entrp">   -234.60525720 </i>
    <i name="e_0_energy">   -234.62820236 </i>
   </energy>
  </scstep>
  <scstep>
   <time name="dav">   17.22   17.23</time>
   <time name="total">   19.12   19.15</time>
   <energy>
    <i name="e_fr_energy">   -230.58957168 </i>
    <i name="e_wo_entrp">   -230.53696413 </i>
    <i name="e_0_energy">   -230.56326791 </i>
   </energy>
  </scstep>
  <scstep>
   <time name="dav">   18.25   18.26</time>
   <time name="total">   20.16   20.18</time>
   <energy>
    <i name="e_fr_energy">   -226.25983694 </i>
    <i name="e_wo_entrp">   -226.21327671 </i>
    <i name="e_0_energy">   -226.23655682 </i>
   </energy>
  </scstep>
  <scstep>
   <time name="dav">   18.47   18.48</time>
   <time name="total">   20.38   20.40</time>
   <energy>
    <i name="e_fr_energy">   -216.38662364 </i>
    <i name="e_wo_entrp">   -216.37190455 </i>
    <i name="e_0_energy">   -216.37926410 </i>
   </energy>
  </scstep>
  <scstep>
   <time name="dav">   18.93   18.94</time>
   <time name="total">   20.83   20.86</time>
   <energy>
    <i name="e_fr_energy">   -205.39339937 </i>
    <i name="e_wo_entrp">   -205.34568995 </i>
    <i name="e_0_energy">   -205.36954466 </i>
   </energy>
  </scstep>
  <scstep>
   <time name="dav">   19.30   19.30</time>
   <time name="total">   21.20   21.23</time>
   <energy>
    <i name="e_fr_energy">   -203.98243348 </i>
    <i name="e_wo_entrp">   -203.93612402 </i>
    <i name="e_0_energy">   -203.95927875 </i>
   </energy>
  </scstep>
  <scstep>
   <time name="dav">   18.26   18.26</time>
   <time name="total">   20.16   20.19</time>
   <energy>
    <i name="e_fr_energy">   -209.64984979 </i>
    <i name="e_wo_entrp">   -209.60289150 </i>
    <i name="e_0_energy">   -209.62637065 </i>
   </energy>
  </scstep>
  <scstep>
   <time name="dav">   17.65   17.65</time>
   <time name="total">   19.55   19.57</time>
   <energy>
    <i name="e_fr_energy">   -217.33444353 </i>
    <i name="e_wo_entrp">   -217.28799341 </i>
    <i name="e_0_energy">   -217.31121847 </i>
   </energy>
  </scstep>
  <scstep>
   <time name="dav">   17.61   17.61</time>
   <time name="total">   19.51   19.53</time>
   <energy>
    <i name="e_fr_energy">   -231.08481688 </i>
    <i name="e_wo_entrp">   -231.04476676 </i>
    <i name="e_0_energy">   -231.06479182 </i>
   </energy>
  </scstep>
  <scstep>
   <time name="dav">   16.73   16.74</time>
   <time name="total">   18.63   18.66</time>
   <energy>
    <i name="e_fr_energy">   -240.51853117 </i>
    <i name="e_wo_entrp">   -240.45429421 </i>
    <i name="e_0_energy">   -240.48641269 </i>
   </energy>
  </scstep>
  <scstep>
   <time name="dav">   16.69   16.69</time>
   <time name="total">   18.59   18.61</time>
   <energy>
    <i name="e_fr_energy">   -245.48936165 </i>
    <i name="e_wo_entrp">   -245.43337725 </i>
    <i name="e_0_energy">   -245.46136945 </i>
   </energy>
  </scstep>
  <scstep>
   <time name="dav">   16.35   16.36</time>
   <time name="total">   18.26   18.28</time>
   <energy>
    <i name="e_fr_energy">   -242.39136110 </i>
    <i name="e_wo_entrp">   -242.33422676 </i>
    <i name="e_0_energy">   -242.36279393 </i>
   </energy>
  </scstep>
  <scstep>
   <time name="dav">   16.72   16.73</time>
   <time name="total">   18.63   18.66</time>
   <energy>
    <i name="e_fr_energy">   -239.82617625 </i>
    <i name="e_wo_entrp">   -239.77427382 </i>
    <i name="e_0_energy">   -239.80022503 </i>
   </energy>
  </scstep>
  <scstep>
   <time name="dav">   16.08   16.10</time>
   <time name="total">   17.98   18.02</time>
   <energy>
    <i name="e_fr_energy">   -235.99084907 </i>
    <i name="e_wo_entrp">   -235.94423811 </i>
    <i name="e_0_energy">   -235.96754359 </i>
   </energy>
  </scstep>
  <scstep>
   <time name="dav">   15.84   15.85</time>
   <time name="total">   17.76   17.79</time>
   <energy>
    <i name="e_fr_energy">   -228.63298292 </i>
    <i name="e_wo_entrp">   -228.59194242 </i>
    <i name="e_0_energy">   -228.61246267 </i>
   </energy>
  </scstep>
  <scstep>
   <time name="dav">   15.98   15.99</time>
   <time name="total">   17.88   17.91</time>
   <energy>
    <i name="e_fr_energy">   -236.09158741 </i>
    <i name="e_wo_entrp">   -236.04868851 </i>
    <i name="e_0_energy">   -236.07013796 </i>
   </energy>
  </scstep>
  <scstep>
   <time name="dav">   17.44   17.47</time>
   <time name="total">   19.35   19.39</time>
   <energy>
    <i name="e_fr_energy">   -237.15883960 </i>
    <i name="e_wo_entrp">   -237.11552906 </i>
    <i name="e_0_energy">   -237.13718433 </i>
   </energy>
  </scstep>
  <scstep>
   <time name="dav">   15.92   15.93</time>
   <time name="total">   17.82   17.85</time>
   <energy>
    <i name="e_fr_energy">   -244.48407425 </i>
    <i name="e_wo_entrp">   -244.42962091 </i>
    <i name="e_0_energy">   -244.45684758 </i>
   </energy>
  </scstep>
  <scstep>
   <time name="dav">   17.40   17.43</time>
   <time name="total">   19.30   19.35</time>
   <energy>
    <i name="e_fr_energy">   -246.34600505 </i>
    <i name="e_wo_entrp">   -246.31598260 </i>
    <i name="e_0_energy">   -246.33099382 </i>
   </energy>
  </scstep>
  <scstep>
   <time name="dav">   17.75   17.76</time>
   <time name="total">   19.66   19.67</time>
   <energy>
    <i name="e_fr_energy">   -246.25706271 </i>
    <i name="e_wo_entrp">   -246.22489014 </i>
    <i name="e_0_energy">   -246.24097642 </i>
   </energy>
  </scstep>
  <scstep>
   <time name="dav">   19.27   19.27</time>
   <time name="total">   21.20   21.23</time>
   <energy>
    <i name="e_fr_energy">   -246.25552573 </i>
    <i name="e_wo_entrp">   -246.22223706 </i>
    <i name="e_0_energy">   -246.23888140 </i>
   </energy>
  </scstep>
  <scstep>
   <time name="dav">   17.65   17.66</time>
   <time name="total">   19.56   19.58</time>
   <energy>
    <i name="e_fr_energy">   -246.10008744 </i>
    <i name="e_wo_entrp">   -246.05319347 </i>
    <i name="e_0_energy">   -246.07664046 </i>
   </energy>
  </scstep>
  <scstep>
   <time name="dav">   17.43   17.43</time>
   <time name="total">   19.33   19.35</time>
   <energy>
    <i name="e_fr_energy">   -246.12362512 </i>
    <i name="e_wo_entrp">   -246.07923752 </i>
    <i name="e_0_energy">   -246.10143132 </i>
   </energy>
  </scstep>
  <scstep>
   <time name="dav">   17.96   17.97</time>
   <time name="total">   19.87   19.89</time>
   <energy>
    <i name="e_fr_energy">   -246.12184636 </i>
    <i name="e_wo_entrp">   -246.07809153 </i>
    <i name="e_0_energy">   -246.09996894 </i>
   </energy>
  </scstep>
  <scstep>
   <time name="dav">   17.83   17.84</time>
   <time name="total">   19.74   19.76</time>
   <energy>
    <i name="e_fr_energy">   -246.11271299 </i>
    <i name="e_wo_entrp">   -246.06880191 </i>
    <i name="e_0_energy">   -246.09075745 </i>
   </energy>
  </scstep>
  <scstep>
   <time name="dav">   17.86   17.87</time>
   <time name="total">   19.81   19.83</time>
   <energy>
    <i name="e_fr_energy">   -246.11821441 </i>
    <i name="e_wo_entrp">   -246.07499976 </i>
    <i name="e_0_energy">   -246.09660708 </i>
   </energy>
  </scstep>
  <scstep>
   <time name="dav">   17.52   17.52</time>
   <time name="total">   19.42   19.44</time>
   <energy>
    <i name="e_fr_energy">   -246.12230990 </i>
    <i name="e_wo_entrp">   -246.07970564 </i>
    <i name="e_0_energy">   -246.10100777 </i>
   </energy>
  </scstep>
  <scstep>
   <time name="dav">   17.10   17.11</time>
   <time name="total">   19.01   19.04</time>
   <energy>
    <i name="e_fr_energy">   -246.12434012 </i>
    <i name="e_wo_entrp">   -246.08219803 </i>
    <i name="e_0_energy">   -246.10326908 </i>
   </energy>
  </scstep>
  <scstep>
   <time name="dav">   17.62   17.63</time>
   <time name="total">   19.52   19.55</time>
   <energy>
    <i name="e_fr_energy">   -246.12622632 </i>
    <i name="e_wo_entrp">   -246.08481936 </i>
    <i name="e_0_energy">   -246.10552284 </i>
   </energy>
  </scstep>
  <scstep>
   <time name="dav">   17.21   17.21</time>
   <time name="total">   19.12   19.14</time>
   <energy>
    <i name="e_fr_energy">   -246.12728507 </i>
    <i name="e_wo_entrp">   -246.08602507 </i>
    <i name="e_0_energy">   -246.10665507 </i>
   </energy>
  </scstep>
  <scstep>
   <time name="dav">   17.75   17.75</time>
   <time name="total">   19.69   19.73</time>
   <energy>
    <i name="e_fr_energy">   -246.12752457 </i>
    <i name="e_wo_entrp">   -246.08621310 </i>
    <i name="e_0_energy">   -246.10686883 </i>
   </energy>
  </scstep>
  <scstep>
   <time name="dav">   17.77   17.77</time>
   <time name="total">   19.71   19.74</time>
   <energy>
    <i name="e_fr_energy">   -246.12750739 </i>
    <i name="e_wo_entrp">   -246.08620478 </i>
    <i name="e_0_energy">   -246.10685608 </i>
   </energy>
  </scstep>
  <scstep>
   <time name="dav">   18.45   18.46</time>
   <time name="total">   20.36   20.38</time>
   <energy>
    <i name="e_fr_energy">   -246.12752931 </i>
    <i name="e_wo_entrp">   -246.08608133 </i>
    <i name="e_0_energy">   -246.10680532 </i>
   </energy>
  </scstep>
  <scstep>
   <time name="dav">   18.37   18.38</time>
   <time name="total">   20.29   20.35</time>
   <energy>
    <i name="e_fr_energy">   -246.12752983 </i>
    <i name="e_wo_entrp">   -246.08600457 </i>
    <i name="e_0_energy">   -246.10676720 </i>
   </energy>
  </scstep>
  <scstep>
   <time name="dav">   16.27   16.29</time>
   <time name="total">   18.18   18.26</time>
   <energy>
    <i name="e_fr_energy">   -246.12754212 </i>
    <i name="e_wo_entrp">   -246.08604300 </i>
    <i name="e_0_energy">   -246.10679256 </i>
   </energy>
  </scstep>
  <scstep>
   <time name="dav">   14.67   14.69</time>
   <time name="total">   16.58   16.62</time>
   <energy>
    <i name="e_fr_energy">   -246.12755315 </i>
    <i name="e_wo_entrp">   -246.08605391 </i>
    <i name="e_0_energy">   -246.10680353 </i>
   </energy>
  </scstep>
  <scstep>
   <time name="dav">   16.18   16.20</time>
   <time name="total">   18.09   18.13</time>
   <energy>
    <i name="e_fr_energy">   -246.12756194 </i>
    <i name="e_wo_entrp">   -246.08605218 </i>
    <i name="e_0_energy">   -246.10680706 </i>
   </energy>
  </scstep>
  <scstep>
   <time name="dav">   12.67   12.69</time>
   <time name="total">   14.59   14.67</time>
   <energy>
    <i name="e_fr_energy">   -246.12756497 </i>
    <i name="e_wo_entrp">   -246.08602593 </i>
    <i name="e_0_energy">   -246.10679545 </i>
   </energy>
  </scstep>
  <scstep>
   <time name="dav">   14.38   14.40</time>
   <time name="total">   15.10   15.13</time>
   <energy>
    <i name="alphaZ">   1906.94750048 </i>
    <i name="ewald"> -26488.57799329 </i>
    <i name="hartreedc"> -12295.18280273 </i>
    <i name="XCdc">   1712.64829272 </i>
    <i name="pawpsdc">  48620.51596468 </i>
    <i name="pawaedc"> -49732.23663458 </i>
    <i name="eentropy">     -0.04156198 </i>
    <i name="bandstr">  -2452.33901986 </i>
    <i name="atom">  38482.13868926 </i>
    <i name="e_fr_energy">   -246.12756529 </i>
    <i name="e_wo_entrp">   -246.08600331 </i>
    <i name="e_0_energy">   -246.10678430 </i>
   </energy>
  </scstep>
  <structure>
   <crystal>
    <varray name="basis" >
     <v>       5.65685425       0.00000000       0.00000000 </v>
     <v>      -2.82842712       4.89897949       0.00000000 </v>
     <v>       0.00000000       0.00000000      27.71281292 </v>
    </varray>
    <i name="volume">    768.00000000 </i>
    <varray name="rec_basis" >
     <v>       0.17677670       0.10206207       0.00000000 </v>
     <v>       0.00000000       0.20412415       0.00000000 </v>
     <v>       0.00000000       0.00000000       0.03608439 </v>
    </varray>
   </crystal>
   <varray name="positions" >
    <v>       0.00000000       0.00000000       0.25000000 </v>
    <v>       0.00000000       0.00000000       0.00000000 </v>
    <v>       0.66666667       0.33333333       0.08333333 </v>
    <v>       0.33333333       0.66666667       0.16666667 </v>
    <v>       0.66666667       0.33333333       0.58333333 </v>
    <v>       0.66666667       0.33333333       0.33333333 </v>
    <v>       0.33333333       0.66666667       0.41666667 </v>
    <v>       0.00000000       0.00000000       0.50000000 </v>
    <v>       0.33333333       0.66666667       0.91666667 </v>
    <v>       0.33333333       0.66666667       0.66666667 </v>
    <v>       0.00000000       0.00000000       0.75000000 </v>
    <v>       0.66666667       0.33333333       0.83333333 </v>
    <v>       0.66666667       0.33333333       0.20833333 </v>
    <v>       0.66666667       0.33333333       0.95833333 </v>
    <v>       0.33333333       0.66666667       0.04166667 </v>
    <v>       0.00000000       0.00000000       0.12500000 </v>
    <v>       0.33333333       0.66666667       0.54166667 </v>
    <v>       0.33333333       0.66666667       0.29166667 </v>
    <v>       0.00000000       0.00000000       0.37500000 </v>
    <v>       0.66666667       0.33333333       0.45833333 </v>
    <v>       0.00000000       0.00000000       0.87500000 </v>
    <v>       0.00000000       0.00000000       0.62500000 </v>
    <v>       0.66666667       0.33333333       0.70833333 </v>
    <v>       0.33333333       0.66666667       0.79166667 </v>
    <v>       0.00000000       0.50000000       0.25000000 </v>
    <v>       0.00000000       0.50000000       0.00000000 </v>
    <v>       0.66666667       0.83333333       0.08333333 </v>
    <v>       0.50000000       0.50000000       0.25000000 </v>
    <v>       0.50000000       0.50000000       0.00000000 </v>
    <v>       0.16666667       0.83333333       0.08333333 </v>
    <v>       0.50000000       0.00000000       0.25000000 </v>
    <v>       0.50000000       0.00000000       0.00000000 </v>
    <v>       0.16666667       0.33333333       0.08333333 </v>
    <v>       0.66666667       0.83333333       0.58333333 </v>
    <v>       0.66666667       0.83333333       0.33333333 </v>
    <v>       0.33333333       0.16666667       0.41666667 </v>
    <v>       0.16666667       0.83333333       0.58333333 </v>
    <v>       0.16666667       0.83333333       0.33333333 </v>
    <v>       0.83333333       0.16666667       0.41666667 </v>
    <v>       0.16666667       0.33333333       0.58333333 </v>
    <v>       0.16666667       0.33333333       0.33333333 </v>
    <v>       0.83333333       0.66666667       0.41666667 </v>
    <v>       0.33333333       0.16666667       0.91666667 </v>
    <v>       0.33333333       0.16666667       0.66666667 </v>
    <v>       0.00000000       0.50000000       0.75000000 </v>
    <v>       0.83333333       0.16666667       0.91666667 </v>
    <v>       0.83333333       0.16666667       0.66666667 </v>
    <v>       0.50000000       0.50000000       0.75000000 </v>
    <v>       0.83333333       0.66666667       0.91666667 </v>
    <v>       0.83333333       0.66666667       0.66666667 </v>
    <v>       0.50000000       0.00000000       0.75000000 </v>
   </varray>
  </structure>
  <varray name="forces" >
   <v>       0.00000000       0.00000000       2.11347449 </v>
   <v>       0.00000000       0.00000000       0.00000000 </v>
   <v>       0.00000000       0.00000000      -2.11347449 </v>
   <v>       0.00000000       0.00000000       0.00000000 </v>
   <v>       0.00000000       0.00000000       2.11347449 </v>
   <v>       0.00000000       0.00000000       0.00000000 </v>
   <v>       0.00000000       0.00000000      -2.11347449 </v>
   <v>       0.00000000       0.00000000       0.00000000 </v>
   <v>       0.00000000       0.00000000       2.11347449 </v>
   <v>       0.00000000       0.00000000       0.00000000 </v>
   <v>       0.00000000       0.00000000      -2.11347449 </v>
   <v>       0.00000000       0.00000000       0.00000000 </v>
   <v>       0.00000000       0.00000000       2.02555870 </v>
   <v>       0.00000000       0.00000000      -0.21161411 </v>
   <v>       0.00000000       0.00000000       0.21161411 </v>
   <v>       0.00000000       0.00000000      -2.02555870 </v>
   <v>       0.00000000       0.00000000       2.02555870 </v>
   <v>       0.00000000       0.00000000      -0.21161411 </v>
   <v>       0.00000000       0.00000000       0.21161411 </v>
   <v>       0.00000000       0.00000000      -2.02555870 </v>
   <v>       0.00000000       0.00000000       2.02555870 </v>
   <v>       0.00000000       0.00000000      -0.21161411 </v>
   <v>       0.00000000       0.00000000       0.21161411 </v>
   <v>       0.00000000       0.00000000      -2.02555870 </v>
   <v>      -0.00806822      -0.00465819      -1.31005540 </v>
   <v>       0.00000000       0.00000000       0.00000000 </v>
   <v>       0.00806822       0.00465819       1.31005540 </v>
   <v>       0.00806822      -0.00465819      -1.31005540 </v>
   <v>       0.00000000       0.00000000       0.00000000 </v>
   <v>      -0.00806822       0.00465819       1.31005540 </v>
   <v>       0.00000000       0.00931638      -1.31005540 </v>
   <v>       0.00000000       0.00000000       0.00000000 </v>
   <v>       0.00000000      -0.00931638       1.31005540 </v>
   <v>      -0.00806822      -0.00465819      -1.31005540 </v>
   <v>       0.00000000       0.00000000       0.00000000 </v>
   <v>       0.00806822       0.00465819       1.31005540 </v>
   <v>       0.00806822      -0.00465819      -1.31005540 </v>
   <v>       0.00000000       0.00000000       0.00000000 </v>
   <v>      -0.00806822       0.00465819       1.31005540 </v>
   <v>       0.00000000       0.00931638      -1.31005540 </v>
   <v>       0.00000000       0.00000000       0.00000000 </v>
   <v>       0.00000000      -0.00931638       1.31005540 </v>
   <v>      -0.00806822      -0.00465819      -1.31005540 </v>
   <v>       0.00000000       0.00000000       0.00000000 </v>
   <v>       0.00806822       0.00465819       1.31005540 </v>
   <v>       0.00806822      -0.00465819      -1.31005540 </v>
   <v>       0.00000000       0.00000000       0.00000000 </v>
   <v>      -0.00806822       0.00465819       1.31005540 </v>
   <v>       0.00000000       0.00931638      -1.31005540 </v>
   <v>       0.00000000       0.00000000       0.00000000 </v>
   <v>       0.00000000      -0.00931638       1.31005540 </v>
  </varray>
  <varray name="stress" >
   <v>     -59.31764802       0.00000000       0.00000000 </v>
   <v>       0.00000000     -59.31764802       0.00000000 </v>
   <v>       0.00000000       0.00000000    -127.24997005 </v>
  </varray>
  <energy>
   <i name="e_fr_energy">   -246.12756529 </i>
   <i name="e_wo_entrp">   -246.10678430 </i>
   <i name="e_0_energy">     -0.04156198 </i>
  </energy>
  <time name="totalsc">  920.81  922.35</time>
  <eigenvalues>
   <array>
    <dimension dim="1">band</dimension>
    <dimension dim="2">kpoint</dimension>
    <dimension dim="3">spin</dimension>
    <field>eigene</field>
    <field>occ</field>
    <set>
     <set comment="spin 1">
      <set comment="kpoint 1">
       <r>  -32.0499    1.0000 </r>
       <r>  -32.0499    1.0000 </r>
       <r>  -32.0499    1.0000 </r>
       <r>  -31.0489    1.0000 </r>
       <r>  -31.0489    1.0000 </r>
       <r>  -31.0489    1.0000 </r>
       <r>  -31.0483    1.0000 </r>
       <r>  -31.0483    1.0000 </r>
       <r>  -31.0483    1.0000 </r>
       <r>  -30.0500    1.0000 </r>
       <r>  -30.0500    1.0000 </r>
       <r>  -30.0500    1.0000 </r>
       <r>  -14.8963    1.0000 </r>
       <r>  -14.8963    1.0000 </r>
       <r>  -14.8492    1.0000 </r>
       <r>  -14.7216    1.0000 </r>
       <r>  -14.6176    1.0000 </r>
       <r>  -14.6176    1.0000 </r>
       <r>  -14.3325    1.0000 </r>
       <r>  -14.3325    1.0000 </r>
       <r>  -14.3301    1.0000 </r>
       <r>  -14.3301    1.0000 </r>
       <r>  -14.3301    1.0000 </r>
       <r>  -14.3301    1.0000 </r>
       <r>  -14.1749    1.0000 </r>
       <r>  -14.1749    1.0000 </r>
       <r>  -14.0508    1.0000 </r>
       <r>  -13.8144    1.0000 </r>
       <r>  -13.8144    1.0000 </r>
       <r>  -13.8144    1.0000 </r>
       <r>  -13.8144    1.0000 </r>
       <r>  -13.7989    1.0000 </r>
       <r>  -13.7989    1.0000 </r>
       <r>  -13.6475    1.0000 </r>
       <r>  -13.6475    1.0000 </r>
       <r>  -13.6375    1.0000 </r>
       <r>  -13.6375    1.0000 </r>
       <r>  -13.6375    1.0000 </r>
       <r>  -13.6375    1.0000 </r>
       <r>  -13.5552    1.0000 </r>
       <r>  -13.4927    1.0000 </r>
       <r>  -13.4927    1.0000 </r>
       <r>  -13.4873    1.0000 </r>
       <r>  -13.4873    1.0000 </r>
       <r>  -13.4873    1.0000 </r>
       <r>  -13.4873    1.0000 </r>
       <r>  -13.4612    1.0000 </r>
       <r>  -13.4612    1.0000 </r>
       <r>  -13.2001    1.0000 </r>
       <r>  -13.2001    1.0000 </r>
       <r>  -13.1849    1.0000 </r>
       <r>  -13.0392    1.0000 </r>
       <r>  -13.0392    1.0000 </r>
       <r>  -13.0392    1.0000 </r>
       <r>  -13.0392    1.0000 </r>
       <r>  -13.0344    1.0000 </r>
       <r>  -13.0344    1.0000 </r>
       <r>  -12.8685    1.0000 </r>
       <r>  -12.8667    1.0000 </r>
       <r>  -12.8667    1.0000 </r>
       <r>  -12.8517    1.0000 </r>
       <r>  -12.8517    1.0000 </r>
       <r>  -12.8475    1.0000 </r>
       <r>  -12.8475    1.0000 </r>
       <r>  -12.8475    1.0000 </r>
       <r>  -12.8475    1.0000 </r>
       <r>  -12.0430    1.0000 </r>
       <r>  -12.0430    1.0000 </r>
       <r>  -12.0430    1.0000 </r>
       <r>  -12.0430    1.0000 </r>
       <r>  -12.0412    1.0000 </r>
       <r>  -12.0412    1.0000 </r>
       <r>  -11.9541    1.0000 </r>
       <r>  -11.9541    1.0000 </r>
       <r>  -11.9392    1.0000 </r>
       <r>   -3.0671    1.0000 </r>
       <r>   -3.0671    1.0000 </r>
       <r>   -2.9821    1.0000 </r>
       <r>   -2.4592    1.0000 </r>
       <r>   -2.3250    1.0000 </r>
       <r>   -2.3250    1.0000 </r>
       <r>   -2.3005    1.0000 </r>
       <r>   -2.3005    1.0000 </r>
       <r>   -2.3005    1.0000 </r>
       <r>   -2.3005    1.0000 </r>
       <r>   -2.2995    1.0000 </r>
       <r>   -2.2995    1.0000 </r>
       <r>   -1.9579    1.0000 </r>
       <r>   -1.9579    1.0000 </r>
       <r>   -1.9227    1.0000 </r>
       <r>   -1.9227    1.0000 </r>
       <r>   -1.9203    1.0000 </r>
       <r>   -1.9203    1.0000 </r>
       <r>   -1.9203    1.0000 </r>
       <r>   -1.9203    1.0000 </r>
       <r>   -1.8920    1.0000 </r>
       <r>   -1.8126    1.0000 </r>
       <r>   -1.8126    1.0000 </r>
       <r>   -1.8126    1.0000 </r>
       <r>   -1.8126    1.0000 </r>
       <r>   -1.8059    1.0000 </r>
       <r>   -1.8059    1.0000 </r>
       <r>   -1.7167    1.0000 </r>
       <r>   -1.5534    1.0000 </r>
       <r>   -1.5534    1.0000 </r>
       <r>   -1.4730    1.0000 </r>
       <r>   -1.4730    1.0000 </r>
       <r>   -1.4624    1.0000 </r>
       <r>   -1.4624    1.0000 </r>
       <r>   -1.4624    1.0000 </r>
       <r>   -1.4624    1.0000 </r>
       <r>   -1.3718    1.0000 </r>
       <r>   -1.3718    1.0000 </r>
       <r>   -1.3412    1.0000 </r>
       <r>   -1.2611    1.0000 </r>
       <r>   -1.2611    1.0000 </r>
       <r>   -1.2611    1.0000 </r>
       <r>   -1.2611    1.0000 </r>
       <r>   -1.2567    1.0000 </r>
       <r>   -1.2567    1.0000 </r>
       <r>   -0.7008    1.0000 </r>
       <r>   -0.6916    1.0000 </r>
       <r>   -0.6916    1.0000 </r>
       <r>   -0.6694    1.0000 </r>
       <r>   -0.6694    1.0000 </r>
       <r>   -0.6545    1.0000 </r>
       <r>   -0.6545    1.0000 </r>
       <r>   -0.6545    1.0000 </r>
       <r>   -0.6545    1.0000 </r>
       <r>   -0.6187    1.0000 </r>
       <r>   -0.6187    1.0000 </r>
       <r>   -0.6187    1.0000 </r>
       <r>   -0.6187    1.0000 </r>
       <r>   -0.6183    1.0000 </r>
       <r>   -0.6183    1.0000 </r>
       <r>   -0.6009    1.0000 </r>
       <r>   -0.6009    1.0000 </r>
       <r>   -0.5588    1.0000 </r>
       <r>    0.0077    1.0000 </r>
       <r>    0.0077    1.0000 </r>
       <r>    0.0961    1.0000 </r>
       <r>    0.0961    1.0000 </r>
       <r>    0.0961    1.0000 </r>
       <r>    0.0961    1.0000 </r>
       <r>    0.2744    1.0000 </r>
       <r>    0.2744    1.0000 </r>
       <r>    0.3222    1.0000 </r>
       <r>    0.3343    1.0000 </r>
       <r>    0.3343    1.0000 </r>
       <r>    0.3343    1.0000 </r>
       <r>    0.3343    1.0000 </r>
       <r>    0.5343    1.0000 </r>
       <r>    0.5343    1.0000 </r>
       <r>    0.9189    1.0000 </r>
       <r>    0.9189    1.0000 </r>
       <r>    1.0682    1.0000 </r>
       <r>    1.0682    1.0000 </r>
       <r>    1.0835    1.0000 </r>
       <r>    1.0835    1.0000 </r>
       <r>    1.0835    1.0000 </r>
       <r>    1.0835    1.0000 </r>
       <r>    1.1825    1.0000 </r>
       <r>    1.2589    1.0000 </r>
       <r>    1.2589    1.0000 </r>
       <r>    1.2752    1.0000 </r>
       <r>    1.2752    1.0000 </r>
       <r>    1.3016    1.0000 </r>
       <r>    1.3016    1.0000 </r>
       <r>    1.3016    1.0000 </r>
       <r>    1.3016    1.0000 </r>
       <r>    1.3973    1.0000 </r>
       <r>    1.3973    1.0000 </r>
       <r>    1.4027    1.0000 </r>
       <r>    1.4027    1.0000 </r>
       <r>    1.4027    1.0000 </r>
       <r>    1.4027    1.0000 </r>
       <r>    1.5429    1.0000 </r>
       <r>    1.5925    1.0000 </r>
       <r>    1.5925    1.0000 </r>
       <r>    1.5925    1.0000 </r>
       <r>    1.5925    1.0000 </r>
       <r>    1.6360    1.0000 </r>
       <r>    1.6360    1.0000 </r>
       <r>    1.7830    1.0000 </r>
       <r>    1.7864    1.0000 </r>
       <r>    1.7864    1.0000 </r>
       <r>    1.9443    1.0000 </r>
       <r>    1.9443    1.0000 </r>
       <r>    1.9490    1.0000 </r>
       <r>    2.1644    1.0000 </r>
       <r>    2.1812    1.0000 </r>
       <r>    2.1812    1.0000 </r>
       <r>    2.1812    1.0000 </r>
       <r>    2.1812    1.0000 </r>
       <r>    2.2550    1.0000 </r>
       <r>    2.2550    1.0000 </r>
       <r>    2.4742    0.2364 </r>
       <r>    2.4742    0.2364 </r>
       <r>    2.4742    0.2364 </r>
       <r>    2.4742    0.2364 </r>
       <r>    2.5121    0.0368 </r>
       <r>    2.5121    0.0368 </r>
       <r>    2.6178    0.0000 </r>
       <r>    2.6191    0.0000 </r>
       <r>    2.6191    0.0000 </r>
       <r>    2.6399    0.0000 </r>
       <r>    2.6399    0.0000 </r>
       <r>    2.8724    0.0000 </r>
       <r>    2.8724    0.0000 </r>
       <r>    2.9408    0.0000 </r>
       <r>    2.9408    0.0000 </r>
       <r>    2.9408    0.0000 </r>
       <r>    2.9408    0.0000 </r>
       <r>    3.7708    0.0000 </r>
       <r>    3.7708    0.0000 </r>
       <r>    3.7708    0.0000 </r>
       <r>    3.7708    0.0000 </r>
       <r>    3.8649    0.0000 </r>
       <r>    3.8649    0.0000 </r>
       <r>    5.5036    0.0000 </r>
       <r>    5.5036    0.0000 </r>
       <r>    5.5643    0.0000 </r>
       <r>    5.5643    0.0000 </r>
       <r>    5.6532    0.0000 </r>
       <r>    5.6797    0.0000 </r>
       <r>    5.6797    0.0000 </r>
       <r>    5.6797    0.0000 </r>
       <r>    5.6797    0.0000 </r>
       <r>    7.5253    0.0000 </r>
       <r>    7.5253    0.0000 </r>
       <r>    7.7500    0.0000 </r>
       <r>    7.7500    0.0000 </r>
       <r>    7.7500    0.0000 </r>
       <r>    7.7500    0.0000 </r>
       <r>    7.8551    0.0000 </r>
       <r>    7.8551    0.0000 </r>
       <r>    8.1579    0.0000 </r>
       <r>    8.2174    0.0000 </r>
       <r>    8.2174    0.0000 </r>
       <r>    8.2394    0.0000 </r>
       <r>    8.2394    0.0000 </r>
       <r>    8.2394    0.0000 </r>
       <r>    8.2394    0.0000 </r>
       <r>    8.3882    0.0000 </r>
       <r>    8.8454    0.0000 </r>
       <r>    8.8454    0.0000 </r>
       <r>    8.8454    0.0000 </r>
       <r>    8.8454    0.0000 </r>
       <r>    8.8466    0.0000 </r>
       <r>    8.8466    0.0000 </r>
       <r>    9.2605    0.0000 </r>
       <r>    9.2605    0.0000 </r>
       <r>    9.3558    0.0000 </r>
       <r>    9.3558    0.0000 </r>
       <r>    9.3787    0.0000 </r>
       <r>    9.6429    0.0000 </r>
       <r>    9.6429    0.0000 </r>
       <r>    9.7712    0.0000 </r>
       <r>    9.7712    0.0000 </r>
       <r>    9.7848    0.0000 </r>
       <r>    9.7848    0.0000 </r>
       <r>    9.7848    0.0000 </r>
       <r>    9.7848    0.0000 </r>
       <r>    9.8423    0.0000 </r>
       <r>    9.8423    0.0000 </r>
       <r>    9.8803    0.0000 </r>
       <r>    9.9035    0.0000 </r>
       <r>    9.9035    0.0000 </r>
       <r>    9.9035    0.0000 </r>
       <r>    9.9035    0.0000 </r>
       <r>   10.2676    0.0000 </r>
       <r>   10.3137    0.0000 </r>
       <r>   10.3137    0.0000 </r>
       <r>   10.6778    0.0000 </r>
       <r>   10.6778    0.0000 </r>
       <r>   10.6778    0.0000 </r>
      </set>
      <set comment="kpoint 2">
       <r>  -32.0497    1.0000 </r>
       <r>  -32.0497    1.0000 </r>
       <r>  -32.0497    1.0000 </r>
       <r>  -31.0485    1.0000 </r>
       <r>  -31.0485    1.0000 </r>
       <r>  -31.0485    1.0000 </r>
       <r>  -31.0481    1.0000 </r>
       <r>  -31.0481    1.0000 </r>
       <r>  -31.0481    1.0000 </r>
       <r>  -30.0497    1.0000 </r>
       <r>  -30.0497    1.0000 </r>
       <r>  -30.0497    1.0000 </r>
       <r>  -14.9026    1.0000 </r>
       <r>  -14.8880    1.0000 </r>
       <r>  -14.8506    1.0000 </r>
       <r>  -14.7262    1.0000 </r>
       <r>  -14.6577    1.0000 </r>
       <r>  -14.6442    1.0000 </r>
       <r>  -14.4074    1.0000 </r>
       <r>  -14.3942    1.0000 </r>
       <r>  -14.3640    1.0000 </r>
       <r>  -14.3632    1.0000 </r>
       <r>  -14.3575    1.0000 </r>
       <r>  -14.3512    1.0000 </r>
       <r>  -14.1916    1.0000 </r>
       <r>  -14.1420    1.0000 </r>
       <r>  -14.1330    1.0000 </r>
       <r>  -13.9964    1.0000 </r>
       <r>  -13.9703    1.0000 </r>
       <r>  -13.9622    1.0000 </r>
       <r>  -13.9381    1.0000 </r>
       <r>  -13.9373    1.0000 </r>
       <r>  -13.8857    1.0000 </r>
       <r>  -13.8570    1.0000 </r>
       <r>  -13.8152    1.0000 </r>
       <r>  -13.7857    1.0000 </r>
       <r>  -13.7842    1.0000 </r>
       <r>  -13.7285    1.0000 </r>
       <r>  -13.6887    1.0000 </r>
       <r>  -13.5908    1.0000 </r>
       <r>  -13.5891    1.0000 </r>
       <r>  -13.5167    1.0000 </r>
       <r>  -13.4362    1.0000 </r>
       <r>  -13.4352    1.0000 </r>
       <r>  -13.4175    1.0000 </r>
       <r>  -13.4013    1.0000 </r>
       <r>  -13.3945    1.0000 </r>
       <r>  -13.3942    1.0000 </r>
       <r>  -13.1018    1.0000 </r>
       <r>  -13.0949    1.0000 </r>
       <r>  -13.0771    1.0000 </r>
       <r>  -12.9209    1.0000 </r>
       <r>  -12.9187    1.0000 </r>
       <r>  -12.9170    1.0000 </r>
       <r>  -12.9004    1.0000 </r>
       <r>  -12.9002    1.0000 </r>
       <r>  -12.8999    1.0000 </r>
       <r>  -12.8232    1.0000 </r>
       <r>  -12.8191    1.0000 </r>
       <r>  -12.8183    1.0000 </r>
       <r>  -12.8168    1.0000 </r>
       <r>  -12.8155    1.0000 </r>
       <r>  -12.8048    1.0000 </r>
       <r>  -12.7537    1.0000 </r>
       <r>  -12.7506    1.0000 </r>
       <r>  -12.7485    1.0000 </r>
       <r>  -11.9680    1.0000 </r>
       <r>  -11.9667    1.0000 </r>
       <r>  -11.9663    1.0000 </r>
       <r>  -11.9388    1.0000 </r>
       <r>  -11.9361    1.0000 </r>
       <r>  -11.9312    1.0000 </r>
       <r>  -11.8880    1.0000 </r>
       <r>  -11.8874    1.0000 </r>
       <r>  -11.8874    1.0000 </r>
       <r>   -2.8462    1.0000 </r>
       <r>   -2.8253    1.0000 </r>
       <r>   -2.7967    1.0000 </r>
       <r>   -2.5750    1.0000 </r>
       <r>   -2.5353    1.0000 </r>
       <r>   -2.5259    1.0000 </r>
       <r>   -2.3050    1.0000 </r>
       <r>   -2.3047    1.0000 </r>
       <r>   -2.3033    1.0000 </r>
       <r>   -2.1910    1.0000 </r>
       <r>   -2.1587    1.0000 </r>
       <r>   -2.1481    1.0000 </r>
       <r>   -2.0002    1.0000 </r>
       <r>   -1.9792    1.0000 </r>
       <r>   -1.9633    1.0000 </r>
       <r>   -1.9550    1.0000 </r>
       <r>   -1.9524    1.0000 </r>
       <r>   -1.9500    1.0000 </r>
       <r>   -1.9149    1.0000 </r>
       <r>   -1.9126    1.0000 </r>
       <r>   -1.9105    1.0000 </r>
       <r>   -1.8633    1.0000 </r>
       <r>   -1.8420    1.0000 </r>
       <r>   -1.8162    1.0000 </r>
       <r>   -1.7306    1.0000 </r>
       <r>   -1.7281    1.0000 </r>
       <r>   -1.7235    1.0000 </r>
       <r>   -1.6075    1.0000 </r>
       <r>   -1.5532    1.0000 </r>
       <r>   -1.5396    1.0000 </r>
       <r>   -1.5371    1.0000 </r>
       <r>   -1.5320    1.0000 </r>
       <r>   -1.4967    1.0000 </r>
       <r>   -1.4728    1.0000 </r>
       <r>   -1.4666    1.0000 </r>
       <r>   -1.4657    1.0000 </r>
       <r>   -1.3034    1.0000 </r>
       <r>   -1.2920    1.0000 </r>
       <r>   -1.2864    1.0000 </r>
       <r>   -1.2186    1.0000 </r>
       <r>   -1.2183    1.0000 </r>
       <r>   -1.2140    1.0000 </r>
       <r>   -1.2071    1.0000 </r>
       <r>   -1.1749    1.0000 </r>
       <r>   -1.1592    1.0000 </r>
       <r>   -0.7744    1.0000 </r>
       <r>   -0.7714    1.0000 </r>
       <r>   -0.7422    1.0000 </r>
       <r>   -0.7119    1.0000 </r>
       <r>   -0.7061    1.0000 </r>
       <r>   -0.7027    1.0000 </r>
       <r>   -0.6945    1.0000 </r>
       <r>   -0.6775    1.0000 </r>
       <r>   -0.6753    1.0000 </r>
       <r>   -0.6738    1.0000 </r>
       <r>   -0.6660    1.0000 </r>
       <r>   -0.6658    1.0000 </r>
       <r>   -0.6565    1.0000 </r>
       <r>   -0.6437    1.0000 </r>
       <r>   -0.6332    1.0000 </r>
       <r>   -0.6110    1.0000 </r>
       <r>   -0.5941    1.0000 </r>
       <r>   -0.5898    1.0000 </r>
       <r>    0.0207    1.0000 </r>
       <r>    0.1117    1.0000 </r>
       <r>    0.1126    1.0000 </r>
       <r>    0.1597    1.0000 </r>
       <r>    0.1881    1.0000 </r>
       <r>    0.2391    1.0000 </r>
       <r>    0.3541    1.0000 </r>
       <r>    0.3750    1.0000 </r>
       <r>    0.3768    1.0000 </r>
       <r>    0.4094    1.0000 </r>
       <r>    0.4421    1.0000 </r>
       <r>    0.5581    1.0000 </r>
       <r>    0.5642    1.0000 </r>
       <r>    0.5922    1.0000 </r>
       <r>    0.5976    1.0000 </r>
       <r>    0.7644    1.0000 </r>
       <r>    0.8425    1.0000 </r>
       <r>    0.9033    1.0000 </r>
       <r>    0.9721    1.0000 </r>
       <r>    1.0152    1.0000 </r>
       <r>    1.0378    1.0000 </r>
       <r>    1.0481    1.0000 </r>
       <r>    1.0790    1.0000 </r>
       <r>    1.1250    1.0000 </r>
       <r>    1.1479    1.0000 </r>
       <r>    1.1616    1.0000 </r>
       <r>    1.1894    1.0000 </r>
       <r>    1.1988    1.0000 </r>
       <r>    1.2057    1.0000 </r>
       <r>    1.2510    1.0000 </r>
       <r>    1.2753    1.0000 </r>
       <r>    1.2848    1.0000 </r>
       <r>    1.2857    1.0000 </r>
       <r>    1.3061    1.0000 </r>
       <r>    1.3645    1.0000 </r>
       <r>    1.3669    1.0000 </r>
       <r>    1.4232    1.0000 </r>
       <r>    1.4545    1.0000 </r>
       <r>    1.4655    1.0000 </r>
       <r>    1.4905    1.0000 </r>
       <r>    1.4919    1.0000 </r>
       <r>    1.5040    1.0000 </r>
       <r>    1.5462    1.0000 </r>
       <r>    1.5631    1.0000 </r>
       <r>    1.5811    1.0000 </r>
       <r>    1.5859    1.0000 </r>
       <r>    1.5986    1.0000 </r>
       <r>    1.6165    1.0000 </r>
       <r>    1.8035    1.0000 </r>
       <r>    1.8103    1.0000 </r>
       <r>    1.8196    1.0000 </r>
       <r>    1.8419    1.0000 </r>
       <r>    1.9009    1.0000 </r>
       <r>    1.9509    1.0000 </r>
       <r>    2.0365    1.0000 </r>
       <r>    2.0503    1.0000 </r>
       <r>    2.1119    1.0000 </r>
       <r>    2.1878    1.0000 </r>
       <r>    2.2033    1.0000 </r>
       <r>    2.2176    1.0000 </r>
       <r>    2.3276    0.9997 </r>
       <r>    2.3727    0.9843 </r>
       <r>    2.3744    0.9823 </r>
       <r>    2.3763    0.9799 </r>
       <r>    2.3833    0.9681 </r>
       <r>    2.3942    0.9386 </r>
       <r>    2.4390    0.6091 </r>
       <r>    2.4574    0.4040 </r>
       <r>    2.4763    0.2185 </r>
       <r>    2.7053    0.0000 </r>
       <r>    2.8342    0.0000 </r>
       <r>    2.8793    0.0000 </r>
       <r>    2.9088    0.0000 </r>
       <r>    2.9112    0.0000 </r>
       <r>    2.9933    0.0000 </r>
       <r>    3.1834    0.0000 </r>
       <r>    3.2036    0.0000 </r>
       <r>    3.3786    0.0000 </r>
       <r>    3.7849    0.0000 </r>
       <r>    3.7862    0.0000 </r>
       <r>    3.8689    0.0000 </r>
       <r>    4.3833    0.0000 </r>
       <r>    4.4883    0.0000 </r>
       <r>    4.5306    0.0000 </r>
       <r>    5.8857    0.0000 </r>
       <r>    5.9415    0.0000 </r>
       <r>    5.9803    0.0000 </r>
       <r>    7.0692    0.0000 </r>
       <r>    7.1109    0.0000 </r>
       <r>    7.1555    0.0000 </r>
       <r>    7.2912    0.0000 </r>
       <r>    7.3326    0.0000 </r>
       <r>    7.3812    0.0000 </r>
       <r>    7.5999    0.0000 </r>
       <r>    7.6715    0.0000 </r>
       <r>    7.7838    0.0000 </r>
       <r>    7.8762    0.0000 </r>
       <r>    7.9412    0.0000 </r>
       <r>    8.0635    0.0000 </r>
       <r>    8.3532    0.0000 </r>
       <r>    8.4292    0.0000 </r>
       <r>    8.5942    0.0000 </r>
       <r>    8.6186    0.0000 </r>
       <r>    8.6263    0.0000 </r>
       <r>    8.6291    0.0000 </r>
       <r>    8.9848    0.0000 </r>
       <r>    9.0090    0.0000 </r>
       <r>    9.0845    0.0000 </r>
       <r>    9.2018    0.0000 </r>
       <r>    9.2427    0.0000 </r>
       <r>    9.2822    0.0000 </r>
       <r>    9.3213    0.0000 </r>
       <r>    9.4111    0.0000 </r>
       <r>    9.4329    0.0000 </r>
       <r>    9.4675    0.0000 </r>
       <r>    9.5352    0.0000 </r>
       <r>    9.6580    0.0000 </r>
       <r>    9.6612    0.0000 </r>
       <r>    9.7173    0.0000 </r>
       <r>    9.7509    0.0000 </r>
       <r>    9.8064    0.0000 </r>
       <r>    9.8301    0.0000 </r>
       <r>    9.8775    0.0000 </r>
       <r>   10.0343    0.0000 </r>
       <r>   10.0601    0.0000 </r>
       <r>   10.0905    0.0000 </r>
       <r>   10.1275    0.0000 </r>
       <r>   10.1543    0.0000 </r>
       <r>   10.2416    0.0000 </r>
       <r>   10.2873    0.0000 </r>
       <r>   10.4164    0.0000 </r>
       <r>   10.4652    0.0000 </r>
       <r>   10.5102    0.0000 </r>
       <r>   10.5359    0.0000 </r>
       <r>   10.5966    0.0000 </r>
       <r>   10.6024    0.0000 </r>
       <r>   10.7283    0.0000 </r>
       <r>   10.8303    0.0000 </r>
      </set>
      <set comment="kpoint 3">
       <r>  -32.0495    1.0000 </r>
       <r>  -32.0495    1.0000 </r>
       <r>  -32.0495    1.0000 </r>
       <r>  -31.0481    1.0000 </r>
       <r>  -31.0480    1.0000 </r>
       <r>  -31.0480    1.0000 </r>
       <r>  -31.0479    1.0000 </r>
       <r>  -31.0479    1.0000 </r>
       <r>  -31.0479    1.0000 </r>
       <r>  -30.0494    1.0000 </r>
       <r>  -30.0494    1.0000 </r>
       <r>  -30.0494    1.0000 </r>
       <r>  -14.9180    1.0000 </r>
       <r>  -14.8673    1.0000 </r>
       <r>  -14.8673    1.0000 </r>
       <r>  -14.6993    1.0000 </r>
       <r>  -14.6993    1.0000 </r>
       <r>  -14.6178    1.0000 </r>
       <r>  -14.5010    1.0000 </r>
       <r>  -14.4584    1.0000 </r>
       <r>  -14.4584    1.0000 </r>
       <r>  -14.3973    1.0000 </r>
       <r>  -14.3798    1.0000 </r>
       <r>  -14.3798    1.0000 </r>
       <r>  -14.2822    1.0000 </r>
       <r>  -14.2822    1.0000 </r>
       <r>  -14.1559    1.0000 </r>
       <r>  -14.0492    1.0000 </r>
       <r>  -14.0492    1.0000 </r>
       <r>  -14.0385    1.0000 </r>
       <r>  -13.9463    1.0000 </r>
       <r>  -13.9337    1.0000 </r>
       <r>  -13.9337    1.0000 </r>
       <r>  -13.9284    1.0000 </r>
       <r>  -13.8836    1.0000 </r>
       <r>  -13.8836    1.0000 </r>
       <r>  -13.8657    1.0000 </r>
       <r>  -13.7585    1.0000 </r>
       <r>  -13.7585    1.0000 </r>
       <r>  -13.7045    1.0000 </r>
       <r>  -13.7045    1.0000 </r>
       <r>  -13.6939    1.0000 </r>
       <r>  -13.4134    1.0000 </r>
       <r>  -13.4134    1.0000 </r>
       <r>  -13.3906    1.0000 </r>
       <r>  -13.3906    1.0000 </r>
       <r>  -13.3878    1.0000 </r>
       <r>  -13.3671    1.0000 </r>
       <r>  -12.9955    1.0000 </r>
       <r>  -12.9793    1.0000 </r>
       <r>  -12.9793    1.0000 </r>
       <r>  -12.9545    1.0000 </r>
       <r>  -12.9545    1.0000 </r>
       <r>  -12.9470    1.0000 </r>
       <r>  -12.8217    1.0000 </r>
       <r>  -12.8188    1.0000 </r>
       <r>  -12.8188    1.0000 </r>
       <r>  -12.7671    1.0000 </r>
       <r>  -12.7671    1.0000 </r>
       <r>  -12.7668    1.0000 </r>
       <r>  -12.6717    1.0000 </r>
       <r>  -12.6717    1.0000 </r>
       <r>  -12.6553    1.0000 </r>
       <r>  -12.6264    1.0000 </r>
       <r>  -12.6104    1.0000 </r>
       <r>  -12.6104    1.0000 </r>
       <r>  -11.9213    1.0000 </r>
       <r>  -11.9213    1.0000 </r>
       <r>  -11.9146    1.0000 </r>
       <r>  -11.8985    1.0000 </r>
       <r>  -11.8985    1.0000 </r>
       <r>  -11.8972    1.0000 </r>
       <r>  -11.7521    1.0000 </r>
       <r>  -11.7521    1.0000 </r>
       <r>  -11.7505    1.0000 </r>
       <r>   -2.7120    1.0000 </r>
       <r>   -2.7110    1.0000 </r>
       <r>   -2.7110    1.0000 </r>
       <r>   -2.4659    1.0000 </r>
       <r>   -2.4659    1.0000 </r>
       <r>   -2.4646    1.0000 </r>
       <r>   -2.3099    1.0000 </r>
       <r>   -2.3079    1.0000 </r>
       <r>   -2.3079    1.0000 </r>
       <r>   -2.2238    1.0000 </r>
       <r>   -2.2238    1.0000 </r>
       <r>   -2.2115    1.0000 </r>
       <r>   -2.1200    1.0000 </r>
       <r>   -2.0972    1.0000 </r>
       <r>   -2.0972    1.0000 </r>
       <r>   -2.0308    1.0000 </r>
       <r>   -1.9955    1.0000 </r>
       <r>   -1.9955    1.0000 </r>
       <r>   -1.9128    1.0000 </r>
       <r>   -1.9128    1.0000 </r>
       <r>   -1.9073    1.0000 </r>
       <r>   -1.6507    1.0000 </r>
       <r>   -1.6507    1.0000 </r>
       <r>   -1.6352    1.0000 </r>
       <r>   -1.6002    1.0000 </r>
       <r>   -1.5818    1.0000 </r>
       <r>   -1.5818    1.0000 </r>
       <r>   -1.5613    1.0000 </r>
       <r>   -1.5568    1.0000 </r>
       <r>   -1.5568    1.0000 </r>
       <r>   -1.5520    1.0000 </r>
       <r>   -1.5520    1.0000 </r>
       <r>   -1.5161    1.0000 </r>
       <r>   -1.5109    1.0000 </r>
       <r>   -1.5109    1.0000 </r>
       <r>   -1.5058    1.0000 </r>
       <r>   -1.2877    1.0000 </r>
       <r>   -1.2877    1.0000 </r>
       <r>   -1.2843    1.0000 </r>
       <r>   -1.1903    1.0000 </r>
       <r>   -1.1874    1.0000 </r>
       <r>   -1.1874    1.0000 </r>
       <r>   -1.0754    1.0000 </r>
       <r>   -1.0754    1.0000 </r>
       <r>   -1.0105    1.0000 </r>
       <r>   -0.8632    1.0000 </r>
       <r>   -0.8346    1.0000 </r>
       <r>   -0.8346    1.0000 </r>
       <r>   -0.7786    1.0000 </r>
       <r>   -0.7696    1.0000 </r>
       <r>   -0.7696    1.0000 </r>
       <r>   -0.7461    1.0000 </r>
       <r>   -0.7461    1.0000 </r>
       <r>   -0.7359    1.0000 </r>
       <r>   -0.7275    1.0000 </r>
       <r>   -0.7275    1.0000 </r>
       <r>   -0.6992    1.0000 </r>
       <r>   -0.6845    1.0000 </r>
       <r>   -0.6845    1.0000 </r>
       <r>   -0.6512    1.0000 </r>
       <r>   -0.6124    1.0000 </r>
       <r>   -0.6124    1.0000 </r>
       <r>   -0.6102    1.0000 </r>
       <r>    0.0354    1.0000 </r>
       <r>    0.1206    1.0000 </r>
       <r>    0.1206    1.0000 </r>
       <r>    0.1254    1.0000 </r>
       <r>    0.3809    1.0000 </r>
       <r>    0.3809    1.0000 </r>
       <r>    0.4253    1.0000 </r>
       <r>    0.4253    1.0000 </r>
       <r>    0.5404    1.0000 </r>
       <r>    0.5490    1.0000 </r>
       <r>    0.5505    1.0000 </r>
       <r>    0.5505    1.0000 </r>
       <r>    0.7175    1.0000 </r>
       <r>    0.7912    1.0000 </r>
       <r>    0.7912    1.0000 </r>
       <r>    0.9616    1.0000 </r>
       <r>    0.9616    1.0000 </r>
       <r>    0.9667    1.0000 </r>
       <r>    0.9738    1.0000 </r>
       <r>    0.9738    1.0000 </r>
       <r>    1.0916    1.0000 </r>
       <r>    1.1033    1.0000 </r>
       <r>    1.1033    1.0000 </r>
       <r>    1.1068    1.0000 </r>
       <r>    1.1413    1.0000 </r>
       <r>    1.1413    1.0000 </r>
       <r>    1.1414    1.0000 </r>
       <r>    1.1420    1.0000 </r>
       <r>    1.1837    1.0000 </r>
       <r>    1.1837    1.0000 </r>
       <r>    1.2279    1.0000 </r>
       <r>    1.2450    1.0000 </r>
       <r>    1.2450    1.0000 </r>
       <r>    1.2567    1.0000 </r>
       <r>    1.2567    1.0000 </r>
       <r>    1.2811    1.0000 </r>
       <r>    1.2811    1.0000 </r>
       <r>    1.2954    1.0000 </r>
       <r>    1.2979    1.0000 </r>
       <r>    1.3000    1.0000 </r>
       <r>    1.3000    1.0000 </r>
       <r>    1.3071    1.0000 </r>
       <r>    1.3345    1.0000 </r>
       <r>    1.3345    1.0000 </r>
       <r>    1.3413    1.0000 </r>
       <r>    1.3413    1.0000 </r>
       <r>    1.3413    1.0000 </r>
       <r>    1.4336    1.0000 </r>
       <r>    1.5620    1.0000 </r>
       <r>    1.5977    1.0000 </r>
       <r>    1.5977    1.0000 </r>
       <r>    1.8390    1.0000 </r>
       <r>    1.8390    1.0000 </r>
       <r>    1.8450    1.0000 </r>
       <r>    1.8450    1.0000 </r>
       <r>    1.8554    1.0000 </r>
       <r>    1.8622    1.0000 </r>
       <r>    2.0849    1.0000 </r>
       <r>    2.0849    1.0000 </r>
       <r>    2.0881    1.0000 </r>
       <r>    2.0881    1.0000 </r>
       <r>    2.1204    1.0000 </r>
       <r>    2.1387    1.0000 </r>
       <r>    2.1387    1.0000 </r>
       <r>    2.1428    1.0000 </r>
       <r>    2.1877    1.0000 </r>
       <r>    2.3858    0.9626 </r>
       <r>    2.3858    0.9626 </r>
       <r>    2.4197    0.7952 </r>
       <r>    2.4237    0.7610 </r>
       <r>    2.4343    0.6595 </r>
       <r>    2.4343    0.6595 </r>
       <r>    2.7979    0.0000 </r>
       <r>    2.8823    0.0000 </r>
       <r>    2.8823    0.0000 </r>
       <r>    3.5355    0.0000 </r>
       <r>    3.5523    0.0000 </r>
       <r>    3.5523    0.0000 </r>
       <r>    3.5999    0.0000 </r>
       <r>    3.7770    0.0000 </r>
       <r>    3.7770    0.0000 </r>
       <r>    3.8230    0.0000 </r>
       <r>    3.8230    0.0000 </r>
       <r>    3.8804    0.0000 </r>
       <r>    6.3243    0.0000 </r>
       <r>    6.3243    0.0000 </r>
       <r>    6.3486    0.0000 </r>
       <r>    6.5600    0.0000 </r>
       <r>    6.6393    0.0000 </r>
       <r>    6.6393    0.0000 </r>
       <r>    6.9799    0.0000 </r>
       <r>    6.9799    0.0000 </r>
       <r>    7.0379    0.0000 </r>
       <r>    7.8612    0.0000 </r>
       <r>    7.8612    0.0000 </r>
       <r>    7.8963    0.0000 </r>
       <r>    8.5660    0.0000 </r>
       <r>    8.5660    0.0000 </r>
       <r>    8.5691    0.0000 </r>
       <r>    8.7357    0.0000 </r>
       <r>    8.7357    0.0000 </r>
       <r>    8.8849    0.0000 </r>
       <r>    9.2469    0.0000 </r>
       <r>    9.2469    0.0000 </r>
       <r>    9.3838    0.0000 </r>
       <r>    9.5031    0.0000 </r>
       <r>    9.5038    0.0000 </r>
       <r>    9.5512    0.0000 </r>
       <r>    9.5512    0.0000 </r>
       <r>    9.6223    0.0000 </r>
       <r>    9.6223    0.0000 </r>
       <r>    9.7471    0.0000 </r>
       <r>    9.7707    0.0000 </r>
       <r>    9.7707    0.0000 </r>
       <r>    9.8644    0.0000 </r>
       <r>    9.9139    0.0000 </r>
       <r>    9.9139    0.0000 </r>
       <r>    9.9409    0.0000 </r>
       <r>    9.9425    0.0000 </r>
       <r>    9.9425    0.0000 </r>
       <r>    9.9824    0.0000 </r>
       <r>    9.9824    0.0000 </r>
       <r>   10.1454    0.0000 </r>
       <r>   10.3269    0.0000 </r>
       <r>   10.3464    0.0000 </r>
       <r>   10.3464    0.0000 </r>
       <r>   10.3855    0.0000 </r>
       <r>   10.3855    0.0000 </r>
       <r>   10.4210    0.0000 </r>
       <r>   10.4690    0.0000 </r>
       <r>   10.6565    0.0000 </r>
       <r>   10.6565    0.0000 </r>
       <r>   10.7109    0.0000 </r>
       <r>   10.7318    0.0000 </r>
       <r>   10.8038    0.0000 </r>
       <r>   10.8136    0.0000 </r>
       <r>   10.8137    0.0000 </r>
       <r>   10.9755    0.0000 </r>
      </set>
      <set comment="kpoint 4">
       <r>  -32.0495    1.0000 </r>
       <r>  -32.0495    1.0000 </r>
       <r>  -32.0495    1.0000 </r>
       <r>  -31.0481    1.0000 </r>
       <r>  -31.0480    1.0000 </r>
       <r>  -31.0480    1.0000 </r>
       <r>  -31.0479    1.0000 </r>
       <r>  -31.0479    1.0000 </r>
       <r>  -31.0479    1.0000 </r>
       <r>  -30.0494    1.0000 </r>
       <r>  -30.0494    1.0000 </r>
       <r>  -30.0494    1.0000 </r>
       <r>  -14.8574    1.0000 </r>
       <r>  -14.8574    1.0000 </r>
       <r>  -14.8267    1.0000 </r>
       <r>  -14.6829    1.0000 </r>
       <r>  -14.6537    1.0000 </r>
       <r>  -14.6537    1.0000 </r>
       <r>  -14.4981    1.0000 </r>
       <r>  -14.4882    1.0000 </r>
       <r>  -14.4882    1.0000 </r>
       <r>  -14.4756    1.0000 </r>
       <r>  -14.4664    1.0000 </r>
       <r>  -14.4664    1.0000 </r>
       <r>  -14.2068    1.0000 </r>
       <r>  -14.1651    1.0000 </r>
       <r>  -14.1651    1.0000 </r>
       <r>  -14.1221    1.0000 </r>
       <r>  -14.1221    1.0000 </r>
       <r>  -14.1164    1.0000 </r>
       <r>  -14.0432    1.0000 </r>
       <r>  -14.0432    1.0000 </r>
       <r>  -13.9231    1.0000 </r>
       <r>  -13.9173    1.0000 </r>
       <r>  -13.8498    1.0000 </r>
       <r>  -13.8498    1.0000 </r>
       <r>  -13.7040    1.0000 </r>
       <r>  -13.7040    1.0000 </r>
       <r>  -13.6928    1.0000 </r>
       <r>  -13.6291    1.0000 </r>
       <r>  -13.6291    1.0000 </r>
       <r>  -13.6249    1.0000 </r>
       <r>  -13.4541    1.0000 </r>
       <r>  -13.4541    1.0000 </r>
       <r>  -13.4507    1.0000 </r>
       <r>  -13.3866    1.0000 </r>
       <r>  -13.3631    1.0000 </r>
       <r>  -13.3631    1.0000 </r>
       <r>  -13.0169    1.0000 </r>
       <r>  -13.0169    1.0000 </r>
       <r>  -13.0010    1.0000 </r>
       <r>  -12.9477    1.0000 </r>
       <r>  -12.9440    1.0000 </r>
       <r>  -12.9440    1.0000 </r>
       <r>  -12.7997    1.0000 </r>
       <r>  -12.7997    1.0000 </r>
       <r>  -12.7935    1.0000 </r>
       <r>  -12.7438    1.0000 </r>
       <r>  -12.7259    1.0000 </r>
       <r>  -12.7259    1.0000 </r>
       <r>  -12.6930    1.0000 </r>
       <r>  -12.6930    1.0000 </r>
       <r>  -12.6804    1.0000 </r>
       <r>  -12.6516    1.0000 </r>
       <r>  -12.6456    1.0000 </r>
       <r>  -12.6456    1.0000 </r>
       <r>  -11.9195    1.0000 </r>
       <r>  -11.9188    1.0000 </r>
       <r>  -11.9188    1.0000 </r>
       <r>  -11.8677    1.0000 </r>
       <r>  -11.8677    1.0000 </r>
       <r>  -11.8669    1.0000 </r>
       <r>  -11.7898    1.0000 </r>
       <r>  -11.7883    1.0000 </r>
       <r>  -11.7883    1.0000 </r>
       <r>   -2.6008    1.0000 </r>
       <r>   -2.6008    1.0000 </r>
       <r>   -2.5928    1.0000 </r>
       <r>   -2.5470    1.0000 </r>
       <r>   -2.5357    1.0000 </r>
       <r>   -2.5357    1.0000 </r>
       <r>   -2.4436    1.0000 </r>
       <r>   -2.4436    1.0000 </r>
       <r>   -2.4342    1.0000 </r>
       <r>   -2.1215    1.0000 </r>
       <r>   -2.0952    1.0000 </r>
       <r>   -2.0952    1.0000 </r>
       <r>   -2.0000    1.0000 </r>
       <r>   -1.9853    1.0000 </r>
       <r>   -1.9853    1.0000 </r>
       <r>   -1.9444    1.0000 </r>
       <r>   -1.9401    1.0000 </r>
       <r>   -1.9401    1.0000 </r>
       <r>   -1.9274    1.0000 </r>
       <r>   -1.9274    1.0000 </r>
       <r>   -1.9167    1.0000 </r>
       <r>   -1.8850    1.0000 </r>
       <r>   -1.8850    1.0000 </r>
       <r>   -1.8473    1.0000 </r>
       <r>   -1.6224    1.0000 </r>
       <r>   -1.5967    1.0000 </r>
       <r>   -1.5967    1.0000 </r>
       <r>   -1.5579    1.0000 </r>
       <r>   -1.5579    1.0000 </r>
       <r>   -1.5543    1.0000 </r>
       <r>   -1.5530    1.0000 </r>
       <r>   -1.5495    1.0000 </r>
       <r>   -1.5495    1.0000 </r>
       <r>   -1.5493    1.0000 </r>
       <r>   -1.5164    1.0000 </r>
       <r>   -1.5164    1.0000 </r>
       <r>   -1.2184    1.0000 </r>
       <r>   -1.2184    1.0000 </r>
       <r>   -1.1875    1.0000 </r>
       <r>   -1.1702    1.0000 </r>
       <r>   -1.1702    1.0000 </r>
       <r>   -1.1407    1.0000 </r>
       <r>   -1.1407    1.0000 </r>
       <r>   -1.1290    1.0000 </r>
       <r>   -1.0960    1.0000 </r>
       <r>   -0.8213    1.0000 </r>
       <r>   -0.8213    1.0000 </r>
       <r>   -0.7983    1.0000 </r>
       <r>   -0.7740    1.0000 </r>
       <r>   -0.7715    1.0000 </r>
       <r>   -0.7715    1.0000 </r>
       <r>   -0.7609    1.0000 </r>
       <r>   -0.7353    1.0000 </r>
       <r>   -0.7353    1.0000 </r>
       <r>   -0.7113    1.0000 </r>
       <r>   -0.7113    1.0000 </r>
       <r>   -0.7024    1.0000 </r>
       <r>   -0.7006    1.0000 </r>
       <r>   -0.6768    1.0000 </r>
       <r>   -0.6768    1.0000 </r>
       <r>   -0.6497    1.0000 </r>
       <r>   -0.6497    1.0000 </r>
       <r>   -0.6229    1.0000 </r>
       <r>    0.2231    1.0000 </r>
       <r>    0.2626    1.0000 </r>
       <r>    0.2704    1.0000 </r>
       <r>    0.2704    1.0000 </r>
       <r>    0.2831    1.0000 </r>
       <r>    0.3965    1.0000 </r>
       <r>    0.3965    1.0000 </r>
       <r>    0.4597    1.0000 </r>
       <r>    0.4597    1.0000 </r>
       <r>    0.6594    1.0000 </r>
       <r>    0.6594    1.0000 </r>
       <r>    0.7622    1.0000 </r>
       <r>    0.7622    1.0000 </r>
       <r>    0.7636    1.0000 </r>
       <r>    0.7860    1.0000 </r>
       <r>    0.8030    1.0000 </r>
       <r>    0.8130    1.0000 </r>
       <r>    0.8130    1.0000 </r>
       <r>    0.9067    1.0000 </r>
       <r>    0.9067    1.0000 </r>
       <r>    0.9539    1.0000 </r>
       <r>    0.9727    1.0000 </r>
       <r>    0.9727    1.0000 </r>
       <r>    1.0420    1.0000 </r>
       <r>    1.0575    1.0000 </r>
       <r>    1.0575    1.0000 </r>
       <r>    1.0687    1.0000 </r>
       <r>    1.1711    1.0000 </r>
       <r>    1.1711    1.0000 </r>
       <r>    1.1891    1.0000 </r>
       <r>    1.2014    1.0000 </r>
       <r>    1.2053    1.0000 </r>
       <r>    1.2053    1.0000 </r>
       <r>    1.2221    1.0000 </r>
       <r>    1.2415    1.0000 </r>
       <r>    1.2500    1.0000 </r>
       <r>    1.2500    1.0000 </r>
       <r>    1.2600    1.0000 </r>
       <r>    1.2600    1.0000 </r>
       <r>    1.3207    1.0000 </r>
       <r>    1.3207    1.0000 </r>
       <r>    1.3365    1.0000 </r>
       <r>    1.4661    1.0000 </r>
       <r>    1.4661    1.0000 </r>
       <r>    1.4777    1.0000 </r>
       <r>    1.5227    1.0000 </r>
       <r>    1.5227    1.0000 </r>
       <r>    1.5386    1.0000 </r>
       <r>    1.5497    1.0000 </r>
       <r>    1.5534    1.0000 </r>
       <r>    1.5534    1.0000 </r>
       <r>    1.6953    1.0000 </r>
[...]
       <r>     9.2058     8.4039   243.8187 </r>
       <r>     9.3637    14.5247   246.1114 </r>
       <r>     9.5215    18.4582   249.0250 </r>
       <r>     9.6794    15.8305   251.5238 </r>
       <r>     9.8372    25.9638   255.6221 </r>
       <r>     9.9951    20.6872   258.8875 </r>
       <r>    10.1529    22.2166   262.3944 </r>
       <r>    10.3107    16.6015   265.0149 </r>
       <r>    10.4686    21.2720   268.3726 </r>
       <r>    10.6264    15.8174   270.8694 </r>
       <r>    10.7843    14.3965   273.1418 </r>
       <r>    10.9421    11.1970   274.9093 </r>
       <r>    11.1000     6.9025   275.9988 </r>
       <r>    11.2578     0.0077   276.0000 </r>
       <r>    11.4157     0.0000   276.0000 </r>
       <r>    11.5735     0.0000   276.0000 </r>
       <r>    11.7314     0.0000   276.0000 </r>
       <r>    11.8892     0.0000   276.0000 </r>
       <r>    12.0471     0.0000   276.0000 </r>
       <r>    12.2049     0.0000   276.0000 </r>
       <r>    12.3628     0.0000   276.0000 </r>
       <r>    12.5206     0.0000   276.0000 </r>
       <r>    12.6785     0.0000   276.0000 </r>
       <r>    12.8363     0.0000   276.0000 </r>
       <r>    12.9942     0.0000   276.0000 </r>
       <r>    13.1520     0.0000   276.0000 </r>
      </set>
      <set comment="spin 2">
       <r>   -34.2023     0.0000     0.0000 </r>
       <r>   -34.0445     0.0000     0.0000 </r>
       <r>   -33.8866     0.0000     0.0000 </r>
       <r>   -33.7288     0.0000     0.0000 </r>
       <r>   -33.5709     0.0000     0.0000 </r>
       <r>   -33.4131     0.0000     0.0000 </r>
       <r>   -33.2552     0.0000     0.0000 </r>
       <r>   -33.0974     0.0000     0.0000 </r>
       <r>   -32.9395     0.0000     0.0000 </r>
       <r>   -32.7817     0.0000     0.0000 </r>
       <r>   -32.6239     0.0000     0.0000 </r>
       <r>   -32.4660     0.0000     0.0000 </r>
       <r>   -32.3082     0.0000     0.0000 </r>
       <r>   -32.1503     0.0375     0.0059 </r>
       <r>   -31.9925    17.8880     2.8295 </r>
       <r>   -31.8346     1.0802     3.0000 </r>
       <r>   -31.6768     0.0000     3.0000 </r>
       <r>   -31.5189     0.0000     3.0000 </r>
       <r>   -31.3611     0.0000     3.0000 </r>
       <r>   -31.2032     0.0002     3.0000 </r>
       <r>   -31.0454    19.5849     6.0915 </r>
       <r>   -30.8875    18.4261     9.0000 </r>
       <r>   -30.7297     0.0001     9.0000 </r>
       <r>   -30.5718     0.0000     9.0000 </r>
       <r>   -30.4140     0.0000     9.0000 </r>
       <r>   -30.2561     0.0000     9.0000 </r>
       <r>   -30.0983     1.5452     9.2439 </r>
       <r>   -29.9404    17.4400    11.9968 </r>
       <r>   -29.7826     0.0205    12.0000 </r>
       <r>   -29.6247     0.0000    12.0000 </r>
       <r>   -29.4669     0.0000    12.0000 </r>
       <r>   -29.3090     0.0000    12.0000 </r>
       <r>   -29.1512     0.0000    12.0000 </r>
       <r>   -28.9934     0.0000    12.0000 </r>
       <r>   -28.8355     0.0000    12.0000 </r>
       <r>   -28.6777     0.0000    12.0000 </r>
       <r>   -28.5198     0.0000    12.0000 </r>
       <r>   -28.3620     0.0000    12.0000 </r>
       <r>   -28.2041     0.0000    12.0000 </r>
       <r>   -28.0463     0.0000    12.0000 </r>
       <r>   -27.8884     0.0000    12.0000 </r>
       <r>   -27.7306     0.0000    12.0000 </r>
       <r>   -27.5727     0.0000    12.0000 </r>
       <r>   -27.4149     0.0000    12.0000 </r>
       <r>   -27.2570     0.0000    12.0000 </r>
       <r>   -27.0992     0.0000    12.0000 </r>
       <r>   -26.9413     0.0000    12.0000 </r>
       <r>   -26.7835     0.0000    12.0000 </r>
       <r>   -26.6256     0.0000    12.0000 </r>
       <r>   -26.4678     0.0000    12.0000 </r>
       <r>   -26.3099     0.0000    12.0000 </r>
       <r>   -26.1521     0.0000    12.0000 </r>
       <r>   -25.9942     0.0000    12.0000 </r>
       <r>   -25.8364     0.0000    12.0000 </r>
       <r>   -25.6785     0.0000    12.0000 </r>
       <r>   -25.5207     0.0000    12.0000 </r>
       <r>   -25.3629     0.0000    12.0000 </r>
       <r>   -25.2050     0.0000    12.0000 </r>
       <r>   -25.0472     0.0000    12.0000 </r>
       <r>   -24.8893     0.0000    12.0000 </r>
       <r>   -24.7315     0.0000    12.0000 </r>
       <r>   -24.5736     0.0000    12.0000 </r>
       <r>   -24.4158     0.0000    12.0000 </r>
       <r>   -24.2579     0.0000    12.0000 </r>
       <r>   -24.1001     0.0000    12.0000 </r>
       <r>   -23.9422     0.0000    12.0000 </r>
       <r>   -23.7844     0.0000    12.0000 </r>
       <r>   -23.6265     0.0000    12.0000 </r>
       <r>   -23.4687     0.0000    12.0000 </r>
       <r>   -23.3108     0.0000    12.0000 </r>
       <r>   -23.1530     0.0000    12.0000 </r>
       <r>   -22.9951     0.0000    12.0000 </r>
       <r>   -22.8373     0.0000    12.0000 </r>
       <r>   -22.6794     0.0000    12.0000 </r>
       <r>   -22.5216     0.0000    12.0000 </r>
       <r>   -22.3637     0.0000    12.0000 </r>
       <r>   -22.2059     0.0000    12.0000 </r>
       <r>   -22.0480     0.0000    12.0000 </r>
       <r>   -21.8902     0.0000    12.0000 </r>
       <r>   -21.7324     0.0000    12.0000 </r>
       <r>   -21.5745     0.0000    12.0000 </r>
       <r>   -21.4167     0.0000    12.0000 </r>
       <r>   -21.2588     0.0000    12.0000 </r>
       <r>   -21.1010     0.0000    12.0000 </r>
       <r>   -20.9431     0.0000    12.0000 </r>
       <r>   -20.7853     0.0000    12.0000 </r>
       <r>   -20.6274     0.0000    12.0000 </r>
       <r>   -20.4696     0.0000    12.0000 </r>
       <r>   -20.3117     0.0000    12.0000 </r>
       <r>   -20.1539     0.0000    12.0000 </r>
       <r>   -19.9960     0.0000    12.0000 </r>
       <r>   -19.8382     0.0000    12.0000 </r>
       <r>   -19.6803     0.0000    12.0000 </r>
       <r>   -19.5225     0.0000    12.0000 </r>
       <r>   -19.3646     0.0000    12.0000 </r>
       <r>   -19.2068     0.0000    12.0000 </r>
       <r>   -19.0489     0.0000    12.0000 </r>
       <r>   -18.8911     0.0000    12.0000 </r>
       <r>   -18.7332     0.0000    12.0000 </r>
       <r>   -18.5754     0.0000    12.0000 </r>
       <r>   -18.4175     0.0000    12.0000 </r>
       <r>   -18.2597     0.0000    12.0000 </r>
       <r>   -18.1019     0.0000    12.0000 </r>
       <r>   -17.9440     0.0000    12.0000 </r>
       <r>   -17.7862     0.0000    12.0000 </r>
       <r>   -17.6283     0.0000    12.0000 </r>
       <r>   -17.4705     0.0000    12.0000 </r>
       <r>   -17.3126     0.0000    12.0000 </r>
       <r>   -17.1548     0.0000    12.0000 </r>
       <r>   -16.9969     0.0000    12.0000 </r>
       <r>   -16.8391     0.0000    12.0000 </r>
       <r>   -16.6812     0.0000    12.0000 </r>
       <r>   -16.5234     0.0000    12.0000 </r>
       <r>   -16.3655     0.0000    12.0000 </r>
       <r>   -16.2077     0.0000    12.0000 </r>
       <r>   -16.0498     0.0000    12.0000 </r>
       <r>   -15.8920     0.0000    12.0000 </r>
       <r>   -15.7341     0.0000    12.0000 </r>
       <r>   -15.5763     0.0000    12.0000 </r>
       <r>   -15.4184     0.0000    12.0000 </r>
       <r>   -15.2606     0.0000    12.0000 </r>
       <r>   -15.1027     0.0002    12.0000 </r>
       <r>   -14.9449     5.8534    12.9240 </r>
       <r>   -14.7870    16.8726    15.5873 </r>
       <r>   -14.6292    14.8837    17.9366 </r>
       <r>   -14.4714    16.3810    20.5223 </r>
       <r>   -14.3135    25.0812    24.4814 </r>
       <r>   -14.1557    21.4281    27.8637 </r>
       <r>   -13.9978    25.3007    31.8574 </r>
       <r>   -13.8400    27.4436    36.1893 </r>
       <r>   -13.6821    29.7541    40.8859 </r>
       <r>   -13.5243    25.1230    44.8515 </r>
       <r>   -13.3664    19.5033    47.9301 </r>
       <r>   -13.2086     0.8903    48.0706 </r>
       <r>   -13.0507    13.2690    50.1651 </r>
       <r>   -12.8929    33.5672    55.4636 </r>
       <r>   -12.7350    42.2086    62.1261 </r>
       <r>   -12.5772    24.1355    65.9359 </r>
       <r>   -12.4193     0.4063    66.0000 </r>
       <r>   -12.2615     0.0000    66.0000 </r>
       <r>   -12.1036     0.1052    66.0166 </r>
       <r>   -11.9458    16.1918    68.5724 </r>
       <r>   -11.7879    36.7077    74.3667 </r>
       <r>   -11.6301     4.0122    75.0000 </r>
       <r>   -11.4722     0.0001    75.0000 </r>
       <r>   -11.3144     0.0000    75.0000 </r>
       <r>   -11.1566     0.0000    75.0000 </r>
       <r>   -10.9987     0.0000    75.0000 </r>
       <r>   -10.8409     0.0000    75.0000 </r>
       <r>   -10.6830     0.0000    75.0000 </r>
       <r>   -10.5252     0.0000    75.0000 </r>
       <r>   -10.3673     0.0000    75.0000 </r>
       <r>   -10.2095     0.0000    75.0000 </r>
       <r>   -10.0516     0.0000    75.0000 </r>
       <r>    -9.8938     0.0000    75.0000 </r>
       <r>    -9.7359     0.0000    75.0000 </r>
       <r>    -9.5781     0.0000    75.0000 </r>
       <r>    -9.4202     0.0000    75.0000 </r>
       <r>    -9.2624     0.0000    75.0000 </r>
       <r>    -9.1045     0.0000    75.0000 </r>
       <r>    -8.9467     0.0000    75.0000 </r>
       <r>    -8.7888     0.0000    75.0000 </r>
       <r>    -8.6310     0.0000    75.0000 </r>
       <r>    -8.4731     0.0000    75.0000 </r>
       <r>    -8.3153     0.0000    75.0000 </r>
       <r>    -8.1574     0.0000    75.0000 </r>
       <r>    -7.9996     0.0000    75.0000 </r>
       <r>    -7.8417     0.0000    75.0000 </r>
       <r>    -7.6839     0.0000    75.0000 </r>
       <r>    -7.5261     0.0000    75.0000 </r>
       <r>    -7.3682     0.0000    75.0000 </r>
       <r>    -7.2104     0.0000    75.0000 </r>
       <r>    -7.0525     0.0000    75.0000 </r>
       <r>    -6.8947     0.0000    75.0000 </r>
       <r>    -6.7368     0.0000    75.0000 </r>
       <r>    -6.5790     0.0000    75.0000 </r>
       <r>    -6.4211     0.0000    75.0000 </r>
       <r>    -6.2633     0.0000    75.0000 </r>
       <r>    -6.1054     0.0000    75.0000 </r>
       <r>    -5.9476     0.0000    75.0000 </r>
       <r>    -5.7897     0.0000    75.0000 </r>
       <r>    -5.6319     0.0000    75.0000 </r>
       <r>    -5.4740     0.0000    75.0000 </r>
       <r>    -5.3162     0.0000    75.0000 </r>
       <r>    -5.1583     0.0000    75.0000 </r>
       <r>    -5.0005     0.0000    75.0000 </r>
       <r>    -4.8426     0.0000    75.0000 </r>
       <r>    -4.6848     0.0000    75.0000 </r>
       <r>    -4.5269     0.0000    75.0000 </r>
       <r>    -4.3691     0.0000    75.0000 </r>
       <r>    -4.2112     0.0000    75.0000 </r>
       <r>    -4.0534     0.0000    75.0000 </r>
       <r>    -3.8956     0.0000    75.0000 </r>
       <r>    -3.7377     0.0000    75.0000 </r>
       <r>    -3.5799     0.0000    75.0000 </r>
       <r>    -3.4220     0.0000    75.0000 </r>
       <r>    -3.2642     0.0001    75.0000 </r>
       <r>    -3.1063     0.6172    75.0974 </r>
       <r>    -2.9485     1.0449    75.2624 </r>
       <r>    -2.7906     7.5959    76.4614 </r>
       <r>    -2.6328     9.9360    78.0297 </r>
       <r>    -2.4749    21.3473    81.3993 </r>
       <r>    -2.3171    15.2942    83.8135 </r>
       <r>    -2.1592    15.4305    86.2492 </r>
       <r>    -2.0014    29.6278    90.9258 </r>
       <r>    -1.8435    45.9484    98.1787 </r>
       <r>    -1.6857    12.0393   100.0791 </r>
       <r>    -1.5278    51.6366   108.2298 </r>
       <r>    -1.3700    25.3780   112.2357 </r>
       <r>    -1.2121    37.0337   118.0813 </r>
       <r>    -1.0543    11.9107   119.9614 </r>
       <r>    -0.8964     1.4641   120.1925 </r>
       <r>    -0.7386    46.7583   127.5732 </r>
       <r>    -0.5807    64.6897   137.7843 </r>
       <r>    -0.4229     1.3663   138.0000 </r>
       <r>    -0.2651     0.0000   138.0000 </r>
       <r>    -0.1072     0.0242   138.0038 </r>
       <r>     0.0506     6.6776   139.0579 </r>
       <r>     0.2085    17.5536   141.8287 </r>
       <r>     0.3663    26.3824   145.9931 </r>
       <r>     0.5242    19.9548   149.1429 </r>
       <r>     0.6820    14.9128   151.4968 </r>
       <r>     0.8399    24.2348   155.3222 </r>
       <r>     0.9977    29.2771   159.9436 </r>
       <r>     1.1556    55.7130   168.7377 </r>
       <r>     1.3134    59.3919   178.1126 </r>
       <r>     1.4713    40.8259   184.5569 </r>
       <r>     1.6291    25.2432   188.5415 </r>
       <r>     1.7870    23.0499   192.1799 </r>
       <r>     1.9448    20.3452   195.3913 </r>
       <r>     2.1027    33.2648   200.6421 </r>
       <r>     2.2605    26.8904   204.8867 </r>
       <r>     2.4184    17.8502   207.7043 </r>
       <r>     2.5762     3.3202   208.2284 </r>
       <r>     2.7341     5.8725   209.1553 </r>
       <r>     2.8919    12.8138   211.1780 </r>
       <r>     3.0498     7.6495   212.3854 </r>
       <r>     3.2076    10.9575   214.1150 </r>
       <r>     3.3654     9.1736   215.5631 </r>
       <r>     3.5233     3.1194   216.0554 </r>
       <r>     3.6811    10.6146   217.7309 </r>
       <r>     3.8390    11.4666   219.5409 </r>
       <r>     3.9968     2.6881   219.9652 </r>
       <r>     4.1547     2.9286   220.4275 </r>
       <r>     4.3125     1.7281   220.7003 </r>
       <r>     4.4704     3.6186   221.2715 </r>
       <r>     4.6282     3.4260   221.8123 </r>
       <r>     4.7861     0.0015   221.8125 </r>
       <r>     4.9439     0.0000   221.8125 </r>
       <r>     5.1018     0.0000   221.8125 </r>
       <r>     5.2596     0.0000   221.8125 </r>
       <r>     5.4175     0.0084   221.8138 </r>
       <r>     5.5753     1.2398   222.0095 </r>
       <r>     5.7332     8.0569   223.2813 </r>
       <r>     5.8910     3.1981   223.7861 </r>
       <r>     6.0489     5.2777   224.6192 </r>
       <r>     6.2067     0.0376   224.6251 </r>
       <r>     6.3646     2.7759   225.0633 </r>
       <r>     6.5224     0.9938   225.2201 </r>
       <r>     6.6803     3.1757   225.7214 </r>
       <r>     6.8381     1.7519   225.9980 </r>
       <r>     6.9959     7.2525   227.1428 </r>
       <r>     7.1538     7.3773   228.3073 </r>
       <r>     7.3116     4.1666   228.9650 </r>
       <r>     7.4695    10.8759   230.6817 </r>
       <r>     7.6273     3.6673   231.2606 </r>
       <r>     7.7852     5.3639   232.1072 </r>
       <r>     7.9430     9.4146   233.5933 </r>
       <r>     8.1009     3.2903   234.1127 </r>
       <r>     8.2587     7.9947   235.3746 </r>
       <r>     8.4166    10.9948   237.1101 </r>
       <r>     8.5744     8.9951   238.5300 </r>
       <r>     8.7323    14.2912   240.7858 </r>
       <r>     8.8901     5.4790   241.6507 </r>
       <r>     9.0480     5.5000   242.5189 </r>
       <r>     9.2058     8.7531   243.9005 </r>
       <r>     9.3637    14.5015   246.1895 </r>
       <r>     9.5215    18.3076   249.0794 </r>
       <r>     9.6794    16.4538   251.6766 </r>
       <r>     9.8372    25.7499   255.7411 </r>
       <r>     9.9951    21.2760   259.0995 </r>
       <r>    10.1529    22.1604   262.5975 </r>
       <r>    10.3107    16.4543   265.1947 </r>
       <r>    10.4686    21.2230   268.5447 </r>
       <r>    10.6264    15.3815   270.9727 </r>
       <r>    10.7843    13.5178   273.1064 </r>
       <r>    10.9421    12.6429   275.1021 </r>
       <r>    11.1000     5.6854   275.9995 </r>
       <r>    11.2578     0.0030   276.0000 </r>
       <r>    11.4157     0.0000   276.0000 </r>
       <r>    11.5735     0.0000   276.0000 </r>
       <r>    11.7314     0.0000   276.0000 </r>
       <r>    11.8892     0.0000   276.0000 </r>
       <r>    12.0471     0.0000   276.0000 </r>
       <r>    12.2049     0.0000   276.0000 </r>
       <r>    12.3628     0.0000   276.0000 </r>
       <r>    12.5206     0.0000   276.0000 </r>
       <r>    12.6785     0.0000   276.0000 </r>
       <r>    12.8363     0.0000   276.0000 </r>
       <r>    12.9942     0.0000   276.0000 </r>
       <r>    13.1520     0.0000   276.0000 </r>
      </set>
     </set>
    </array>
   </total>
  </dos>
 </calculation>
 <structure name="finalpos" >
  <crystal>
   <varray name="basis" >
    <v>       5.65685425       0.00000000       0.00000000 </v>
    <v>      -2.82842712       4.89897949       0.00000000 </v>
    <v>       0.00000000       0.00000000      27.71281292 </v>
   </varray>
   <i name="volume">    768.00000000 </i>
   <varray name="rec_basis" >
    <v>       0.17677670       0.10206207       0.00000000 </v>
    <v>       0.00000000       0.20412415       0.00000000 </v>
    <v>       0.00000000       0.00000000       0.03608439 </v>
   </varray>
  </crystal>
  <varray name="positions" >
   <v>       0.00000000       0.00000000       0.25000000 </v>
   <v>       0.00000000       0.00000000       0.00000000 </v>
   <v>       0.66666667       0.33333333       0.08333333 </v>
   <v>       0.33333333       0.66666667       0.16666667 </v>
   <v>       0.66666667       0.33333333       0.58333333 </v>
   <v>       0.66666667       0.33333333       0.33333333 </v>
   <v>       0.33333333       0.66666667       0.41666667 </v>
   <v>       0.00000000       0.00000000       0.50000000 </v>
   <v>       0.33333333       0.66666667       0.91666667 </v>
   <v>       0.33333333       0.66666667       0.66666667 </v>
   <v>       0.00000000       0.00000000       0.75000000 </v>
   <v>       0.66666667       0.33333333       0.83333333 </v>
   <v>       0.66666667       0.33333333       0.20833333 </v>
   <v>       0.66666667       0.33333333       0.95833333 </v>
   <v>       0.33333333       0.66666667       0.04166667 </v>
   <v>       0.00000000       0.00000000       0.12500000 </v>
   <v>       0.33333333       0.66666667       0.54166667 </v>
   <v>       0.33333333       0.66666667       0.29166667 </v>
   <v>       0.00000000       0.00000000       0.37500000 </v>
   <v>       0.66666667       0.33333333       0.45833333 </v>
   <v>       0.00000000       0.00000000       0.87500000 </v>
   <v>       0.00000000       0.00000000       0.62500000 </v>
   <v>       0.66666667       0.33333333       0.70833333 </v>
   <v>       0.33333333       0.66666667       0.79166667 </v>
   <v>       0.00000000       0.50000000       0.25000000 </v>
   <v>       0.00000000       0.50000000       0.00000000 </v>
   <v>       0.66666667       0.83333333       0.08333333 </v>
   <v>       0.50000000       0.50000000       0.25000000 </v>
   <v>       0.50000000       0.50000000       0.00000000 </v>
   <v>       0.16666667       0.83333333       0.08333333 </v>
   <v>       0.50000000       0.00000000       0.25000000 </v>
   <v>       0.50000000       0.00000000       0.00000000 </v>
   <v>       0.16666667       0.33333333       0.08333333 </v>
   <v>       0.66666667       0.83333333       0.58333333 </v>
   <v>       0.66666667       0.83333333       0.33333333 </v>
   <v>       0.33333333       0.16666667       0.41666667 </v>
   <v>       0.16666667       0.83333333       0.58333333 </v>
   <v>       0.16666667       0.83333333       0.33333333 </v>
   <v>       0.83333333       0.16666667       0.41666667 </v>
   <v>       0.16666667       0.33333333       0.58333333 </v>
   <v>       0.16666667       0.33333333       0.33333333 </v>
   <v>       0.83333333       0.66666667       0.41666667 </v>
   <v>       0.33333333       0.16666667       0.91666667 </v>
   <v>       0.33333333       0.16666667       0.66666667 </v>
   <v>       0.00000000       0.50000000       0.75000000 </v>
   <v>       0.83333333       0.16666667       0.91666667 </v>
   <v>       0.83333333       0.16666667       0.66666667 </v>
   <v>       0.50000000       0.50000000       0.75000000 </v>
   <v>       0.83333333       0.66666667       0.91666667 </v>
   <v>       0.83333333       0.66666667       0.66666667 </v>
   <v>       0.50000000       0.00000000       0.75000000 </v>
  </varray>
 </structure>
</modeling>
