<?xml version="1.0" encoding="ISO-8859-1"?>
<modeling>
 <generator>
  <i name="program" type="string">vasp </i>
  <i name="version" type="string">5.3.5  </i>
  <i name="subversion" type="string">31Mar14 (build Jun 20 2014 13:15:13) complex                          parallel </i>
  <i name="platform" type="string">LinuxIFC </i>
  <i name="date" type="string">2025 12 12 </i>
  <i name="time" type="string">12:54:18 </i>
 </generator>
 <incar>
  <i type="string" name="PREC">accurate</i>
  <i type="int" name="IALGO">    38</i>
  <i type="logical" name="ADDGRID"> T  </i>
  <i type="int" name="ISPIN">     2</i>
  <i type="int" name="NELM">   100</i>
  <i type="int" name="NELMIN">     4</i>
  <i name="EDIFF">      0.00000100</i>
  <i name="ENCUT">    500.00000000</i>
  <i type="logical" name="LREAL"> F  </i>
  <i type="int" name="ISMEAR">     0</i>
  <i name="SIGMA">      0.05000000</i>
  <i type="logical" name="LWAVE"> F  </i>
  <i type="logical" name="LCHARG"> F  </i>
  <i type="int" name="NELM">   100</i>
  <i type="logical" name="LDAU"> T  </i>
  <v name="LDAUU">      0.00000000      4.00000000      0.00000000</v>
  <v name="LDAUJ">      0.00000000      0.00000000      0.00000000</v>
 </incar>
 <kpoints>
  <generation param="Auto">
   <i name="subdivisionlength">     20.00000000 </i>
   <v type="int" name="divisions">       3        3        1 </v>
   <v name="usershift">      0.00000000       0.00000000       0.00000000 </v>
   <v name="genvec1">      0.33333333       0.00000000       0.00000000 </v>
   <v name="genvec2">      0.00000000       0.33333333       0.00000000 </v>
   <v name="genvec3">      0.00000000       0.00000000       1.00000000 </v>
   <v name="shift">      0.00000000       0.00000000       0.00000000 </v>
  </generation>
  <varray name="kpointlist" >
   <v>       0.00000000       0.00000000       0.00000000 </v>
   <v>       0.33333333       0.00000000       0.00000000 </v>
   <v>       0.00000000       0.33333333       0.00000000 </v>
   <v>       0.33333333       0.33333333       0.00000000 </v>
  </varray>
  <varray name="weights" >
   <v>       0.11111111 </v>
   <v>       0.22222222 </v>
   <v>       0.22222222 </v>
   <v>       0.44444444 </v>
  </varray>
 </kpoints>
 <parameters>
  <separator name="general" >
   <i type="string" name="SYSTEM">unknown system</i>
   <i type="logical" name="LCOMPAT"> F  </i>
  </separator>
  <separator name="electronic" >
   <i type="string" name="PREC">accura</i>
   <i name="ENMAX">    500.00000000</i>
   <i name="ENAUG">    586.98000000</i>
   <i name="EDIFF">      0.00000100</i>
   <i type="int" name="IALGO">    38</i>
   <i type="int" name="IWAVPR">    10</i>
   <i type="int" name="NBANDS">   348</i>
   <i name="NELECT">    528.00000000</i>
   <i type="int" name="TURBO">     0</i>
   <i type="int" name="IRESTART">     0</i>
   <i type="int" name="NREBOOT">     0</i>
   <i type="int" name="NMIN">     0</i>
   <i name="EREF">      0.00000000</i>
   <separator name="electronic smearing" >
    <i type="int" name="ISMEAR">     0</i>
    <i name="SIGMA">      0.05000000</i>
    <i name="KSPACING">      0.50000000</i>
    <i type="logical" name="KGAMMA"> T  </i>
   </separator>
   <separator name="electronic projectors" >
    <i type="logical" name="LREAL"> F  </i>
    <v name="ROPT">      0.00000000      0.00000000      0.00000000</v>
    <i type="int" name="LMAXPAW">  -100</i>
    <i type="int" name="LMAXMIX">     2</i>
    <i type="logical" name="NLSPLINE"> F  </i>
   </separator>
   <separator name="electronic startup" >
    <i type="int" name="ISTART">     0</i>
    <i type="int" name="ICHARG">     2</i>
    <i type="int" name="INIWAV">     1</i>
   </separator>
   <separator name="electronic spin" >
    <i type="int" name="ISPIN">     2</i>
    <i type="logical" name="LNONCOLLINEAR"> F  </i>
    <v name="MAGMOM">      1.00000000      1.00000000      1.00000000      1.00000000      1.00000000      1.00000000      1.00000000      1.00000000      1.00000000      1.00000000      1.00000000      1.00000000      1.00000000      1.00000000      1.00000000      1.00000000      1.00000000      1.00000000      1.00000000      1.00000000
      1.00000000      1.00000000      1.00000000      1.00000000      1.00000000      1.00000000      1.00000000      1.00000000      1.00000000      1.00000000      1.00000000      1.00000000      1.00000000      1.00000000      1.00000000      1.00000000      1.00000000      1.00000000      1.00000000      1.00000000
      1.00000000      1.00000000      1.00000000      1.00000000      1.00000000      1.00000000      1.00000000      1.00000000      1.00000000      1.00000000      1.00000000      1.00000000      1.00000000      1.00000000      1.00000000      1.00000000      1.00000000      1.00000000      1.00000000      1.00000000
      1.00000000      1.00000000      1.00000000      1.00000000</v>
    <i name="NUPDOWN">     -1.00000000</i>
    <i type="logical" name="LSORBIT"> F  </i>
    <v name="SAXIS">      0.00000000      0.00000000      1.00000000</v>
    <i type="logical" name="LSPIRAL"> F  </i>
    <v name="QSPIRAL">      0.00000000      0.00000000      0.00000000</v>
    <i type="logical" name="LZEROZ"> F  </i>
   </separator>
   <separator name="electronic exchange-correlation" >
    <i type="logical" name="LASPH"> F  </i>
    <i type="logical" name="LMETAGGA"> F  </i>
   </separator>
   <separator name="electronic convergence" >
    <i type="int" name="NELM">   100</i>
    <i type="int" name="NELMDL">    -5</i>
    <i type="int" name="NELMIN">     4</i>
    <i name="ENINI">    500.00000000</i>
    <separator name="electronic convergence detail" >
     <i type="logical" name="LDIAG"> T  </i>
     <i type="logical" name="LSUBROT"> F  </i>
     <i name="WEIMIN">      0.00000000</i>
     <i name="EBREAK">      0.00000000</i>
     <i name="DEPER">      0.30000000</i>
     <i type="int" name="NRMM">     4</i>
     <i name="TIME">      0.40000000</i>
    </separator>
   </separator>
   <separator name="electronic mixer" >
    <i name="AMIX">      0.40000000</i>
    <i name="BMIX">      1.00000000</i>
    <i name="AMIN">      0.10000000</i>
    <i name="AMIX_MAG">      1.60000000</i>
    <i name="BMIX_MAG">      1.00000000</i>
    <separator name="electronic mixer details" >
     <i type="int" name="IMIX">     4</i>
     <i type="int" name="MAXMIX">   -45</i>
     <i name="WC">    100.00000000</i>
     <i type="int" name="INIMIX">     1</i>
     <i type="int" name="MIXPRE">     1</i>
     <i type="int" name="MREMOVE">     5</i>
    </separator>
   </separator>
   <separator name="electronic dipolcorrection" >
    <i type="logical" name="LDIPOL"> F  </i>
    <i type="logical" name="LMONO"> F  </i>
    <i type="int" name="IDIPOL">     0</i>
    <i name="EPSILON">      1.00000000</i>
    <v name="DIPOL">   -100.00000000   -100.00000000   -100.00000000</v>
    <i name="EFIELD">      0.00000000</i>
   </separator>
  </separator>
  <separator name="grids" >
   <i type="int" name="NGX">    60</i>
   <i type="int" name="NGY">    60</i>
   <i type="int" name="NGZ">   120</i>
   <i type="int" name="NGXF">   120</i>
   <i type="int" name="NGYF">   120</i>
   <i type="int" name="NGZF">   240</i>
   <i type="logical" name="ADDGRID"> T  </i>
  </separator>
  <separator name="ionic" >
   <i type="int" name="NSW">     0</i>
   <i type="int" name="IBRION">    -1</i>
   <i type="int" name="ISIF">     2</i>
   <i name="PSTRESS">      0.00000000</i>
   <i name="EDIFFG">      0.00001000</i>
   <i type="int" name="NFREE">     0</i>
   <i name="POTIM">      0.50000000</i>
   <i name="SMASS">     -3.00000000</i>
   <i name="SCALEE">      1.00000000</i>
  </separator>
  <separator name="ionic md" >
   <i name="TEBEG">      0.00010000</i>
   <i name="TEEND">      0.00010000</i>
   <i type="int" name="NBLOCK">     1</i>
   <i type="int" name="KBLOCK">     1</i>
   <i type="int" name="NPACO">   256</i>
   <i name="APACO">     16.00000000</i>
  </separator>
  <separator name="symmetry" >
   <i type="int" name="ISYM">     2</i>
   <i name="SYMPREC">      0.00001000</i>
  </separator>
  <separator name="dos" >
   <i type="logical" name="LORBIT"> F  </i>
   <v name="RWIGS">     -1.00000000     -1.00000000     -1.00000000</v>
   <i type="int" name="NEDOS">   301</i>
   <i name="EMIN">     10.00000000</i>
   <i name="EMAX">    -10.00000000</i>
   <i name="EFERMI">      0.00000000</i>
  </separator>
  <separator name="writing" >
   <i type="int" name="NWRITE">     2</i>
   <i type="logical" name="LWAVE"> F  </i>
   <i type="logical" name="LCHARG"> F  </i>
   <i type="logical" name="LPARD"> F  </i>
   <i type="logical" name="LVTOT"> F  </i>
   <i type="logical" name="LVHAR"> F  </i>
   <i type="logical" name="LELF"> F  </i>
   <i type="logical" name="LOPTICS"> F  </i>
   <v name="STM">      0.00000000      0.00000000      0.00000000      0.00000000      0.00000000      0.00000000      0.00000000</v>
  </separator>
  <separator name="performance" >
   <i type="int" name="NPAR">     4</i>
   <i type="int" name="NSIM">     4</i>
   <i type="int" name="NBLK">    -1</i>
   <i type="logical" name="LPLANE"> T  </i>
   <i type="logical" name="LSCALAPACK"> T  </i>
   <i type="logical" name="LSCAAWARE"> F  </i>
   <i type="logical" name="LSCALU"> F  </i>
   <i type="logical" name="LASYNC"> F  </i>
   <i type="logical" name="LORBITALREAL"> F  </i>
  </separator>
  <separator name="miscellaneous" >
   <i type="int" name="IDIOT">     3</i>
   <i type="logical" name="LMUSIC"> F  </i>
   <v name="POMASS">     87.62000000     63.54600000     16.00000000</v>
   <v name="DARWINR">      0.00000000      0.00000000      0.00000000</v>
   <v name="DARWINV">      1.00000000      1.00000000      1.00000000</v>
   <i type="logical" name="LCORR"> T  </i>
  </separator>
  <i type="logical" name="GGA_COMPAT"> T  </i>
  <i type="logical" name="LBERRY"> F  </i>
  <i type="int" name="ICORELEVEL">     0</i>
  <i type="logical" name="LDAU"> T  </i>
  <v type="int" name="LDAUTYPE">     2</v>
  <v type="int" name="LDAUL">     2</v>
  <v name="LDAUU">      0.00000000</v>
  <v name="LDAUJ">      0.00000000</v>
  <i type="int" name="LDAUPRINT">     0</i>
  <i type="int" name="I_CONSTRAINED_M">     0</i>
  <separator name="electronic exchange-correlation" >
   <i type="string" name="GGA">--</i>
   <i type="int" name="VOSKOWN">     0</i>
   <i type="logical" name="LHFCALC"> F  </i>
   <i type="string" name="PRECFOCK"></i>
   <i type="logical" name="LSYMGRAD"> F  </i>
   <i type="logical" name="LHFONE"> F  </i>
   <i type="logical" name="LRHFCALC"> F  </i>
   <i type="logical" name="LTHOMAS"> F  </i>
   <i type="logical" name="LMODELHF"> F  </i>
   <i name="ENCUT4O">     -1.00000000</i>
   <i type="int" name="EXXOEP">     0</i>
   <i type="int" name="FOURORBIT">     0</i>
   <i name="AEXX">      0.00000000</i>
   <i name="HFALPHA">      0.00000000</i>
   <i name="MCALPHA">      0.00000000</i>
   <i name="ALDAX">      1.00000000</i>
   <i name="AGGAX">      1.00000000</i>
   <i name="ALDAC">      1.00000000</i>
   <i name="AGGAC">      1.00000000</i>
   <i type="int" name="NKREDX">     1</i>
   <i type="int" name="NKREDY">     1</i>
   <i type="int" name="NKREDZ">     1</i>
   <i type="logical" name="SHIFTRED"> F  </i>
   <i type="logical" name="ODDONLY"> F  </i>
   <i type="logical" name="EVENONLY"> F  </i>
   <i type="int" name="LMAXFOCK">     0</i>
   <i type="int" name="NMAXFOCKAE">     0</i>
   <i type="logical" name="LFOCKAEDFT"> F  </i>
   <i name="HFSCREEN">      0.00000000</i>
   <i name="HFSCREENC">      0.00000000</i>
   <i type="int" name="NBANDSGWLOW">     0</i>
  </separator>
  <separator name="vdW DFT" >
   <i type="logical" name="LUSE_VDW"> F  </i>
   <i name="Zab_VDW">     -0.84910000</i>
   <i name="PARAM1">      0.12340000</i>
   <i name="PARAM2">      1.00000000</i>
   <i name="PARAM3">      0.00000000</i>
  </separator>
  <separator name="model GW" >
   <i type="int" name="MODEL_GW">     0</i>
   <i name="MODEL_EPS0">      9.60000000</i>
   <i name="MODEL_ALPHA">      1.00000000</i>
  </separator>
  <separator name="linear response parameters" >
   <i type="logical" name="LEPSILON"> F  </i>
   <i type="logical" name="LRPA"> F  </i>
   <i type="logical" name="LNABLA"> F  </i>
   <i type="logical" name="LVEL"> F  </i>
   <i type="int" name="KINTER">     0</i>
   <i name="CSHIFT">      0.10000000</i>
   <i name="OMEGAMAX">     -1.00000000</i>
   <i name="DEG_THRESHOLD">      0.00200000</i>
  </separator>
  <separator name="orbital magnetization" >
   <i type="logical" name="NUCIND"> F  </i>
   <v name="MAGPOS">      0.00000000      0.00000000      0.00000000</v>
   <i type="logical" name="LNICSALL"> T  </i>
   <i type="logical" name="ORBITALMAG"> F  </i>
   <i type="logical" name="LMAGBLOCH"> F  </i>
   <i type="logical" name="LCHIMAG"> F  </i>
   <i type="logical" name="LGAUGE"> T  </i>
   <i type="int" name="MAGATOM">     0</i>
   <v name="MAGDIPOL">      0.00000000      0.00000000      0.00000000</v>
   <v name="AVECCONST">      0.00000000      0.00000000      0.00000000</v>
  </separator>
  <separator name="response functions" >
   <i type="logical" name="LADDER"> F  </i>
   <i type="logical" name="LFXC"> F  </i>
   <i type="logical" name="LHARTREE"> T  </i>
   <i type="int" name="IBSE">     0</i>
   <i type="logical" name="LTCTE"> F  </i>
   <i type="logical" name="LTETE"> F  </i>
   <i type="logical" name="LTRIPLET"> F  </i>
   <i type="logical" name="LFXCEPS"> F  </i>
   <i type="logical" name="LFXHEG"> F  </i>
   <i type="logical" name="L2ORDER"> F  </i>
   <i type="logical" name="LUSEW"> F  </i>
   <i name="ENCUTGW">     -2.00000000</i>
   <i name="ENCUTGWSOFT">     -2.00000000</i>
   <i name="ENCUTLF">     -1.00000000</i>
   <i type="int" name="LMAXMP2">    -1</i>
   <i name="SCISSOR">      0.00000000</i>
   <i type="int" name="NOMEGA">     0</i>
   <i type="int" name="NOMEGAR">     0</i>
   <i type="int" name="NBANDSGW">    -1</i>
   <i type="int" name="NBANDSO">    -1</i>
   <i type="int" name="NBANDSV">    -1</i>
   <i type="int" name="NELM">   100</i>
   <i type="int" name="DIM">     3</i>
   <i type="int" name="ANTIRES">     0</i>
   <i name="OMEGAMAX">    -30.00000000</i>
   <i name="OMEGAMIN">    -30.00000000</i>
   <i name="OMEGATL">   -200.00000000</i>
   <i type="int" name="OMEGAGRID">     0</i>
   <i name="CSHIFT">     -0.10000000</i>
   <i type="logical" name="SELFENERGY"> F  </i>
   <i type="logical" name="LSPECTRAL"> F  </i>
   <i type="logical" name="ODDONLYGW"> F  </i>
   <i type="logical" name="EVENONLYGW"> F  </i>
   <i type="int" name="NKREDLFX">     1</i>
   <i type="int" name="NKREDLFY">     1</i>
   <i type="int" name="NKREDLFZ">     1</i>
   <i type="int" name="MAXMEM">  1800</i>
   <i type="int" name="TELESCOPE">     0</i>
   <i type="int" name="TAUPAR">     1</i>
  </separator>
  <separator name="External order field" >
   <i name="OFIELD_KAPPA">      0.00000000</i>
   <v name="OFIELD_K">      0.00000000      0.00000000      0.00000000</v>
   <i name="OFIELD_Q6_NEAR">      0.00000000</i>
   <i name="OFIELD_Q6_FAR">      0.00000000</i>
   <i name="OFIELD_A">      0.00000000</i>
  </separator>
 </parameters>
 <atominfo>
  <atoms>      64 </atoms>
  <types>       3 </types>
  <array name="atoms" >
   <dimension dim="1">ion</dimension>
   <field type="string">element</field>
   <field type="int">atomtype</field>
   <set>
    <rc><c>Sr</c><c>   1</c></rc>
    <rc><c>Sr</c><c>   1</c></rc>
    <rc><c>Sr</c><c>   1</c></rc>
    <rc><c>Sr</c><c>   1</c></rc>
    <rc><c>Sr</c><c>   1</c></rc>
    <rc><c>Sr</c><c>   1</c></rc>
    <rc><c>Sr</c><c>   1</c></rc>
    <rc><c>Sr</c><c>   1</c></rc>
    <rc><c>Sr</c><c>   1</c></rc>
    <rc><c>Sr</c><c>   1</c></rc>
    <rc><c>Sr</c><c>   1</c></rc>
    <rc><c>Sr</c><c>   1</c></rc>
    <rc><c>Sr</c><c>   1</c></rc>
    <rc><c>Sr</c><c>   1</c></rc>
    <rc><c>Sr</c><c>   1</c></rc>
    <rc><c>Sr</c><c>   1</c></rc>
    <rc><c>Cu</c><c>   2</c></rc>
    <rc><c>Cu</c><c>   2</c></rc>
    <rc><c>Cu</c><c>   2</c></rc>
    <rc><c>Cu</c><c>   2</c></rc>
    <rc><c>Cu</c><c>   2</c></rc>
    <rc><c>Cu</c><c>   2</c></rc>
    <rc><c>Cu</c><c>   2</c></rc>
    <rc><c>Cu</c><c>   2</c></rc>
    <rc><c>Cu</c><c>   2</c></rc>
    <rc><c>Cu</c><c>   2</c></rc>
    <rc><c>Cu</c><c>   2</c></rc>
    <rc><c>Cu</c><c>   2</c></rc>
    <rc><c>Cu</c><c>   2</c></rc>
    <rc><c>Cu</c><c>   2</c></rc>
    <rc><c>Cu</c><c>   2</c></rc>
    <rc><c>Cu</c><c>   2</c></rc>
    <rc><c>O </c><c>   3</c></rc>
    <rc><c>O </c><c>   3</c></rc>
    <rc><c>O </c><c>   3</c></rc>
    <rc><c>O </c><c>   3</c></rc>
    <rc><c>O </c><c>   3</c></rc>
    <rc><c>O </c><c>   3</c></rc>
    <rc><c>O </c><c>   3</c></rc>
    <rc><c>O </c><c>   3</c></rc>
    <rc><c>O </c><c>   3</c></rc>
    <rc><c>O </c><c>   3</c></rc>
    <rc><c>O </c><c>   3</c></rc>
    <rc><c>O </c><c>   3</c></rc>
    <rc><c>O </c><c>   3</c></rc>
    <rc><c>O </c><c>   3</c></rc>
    <rc><c>O </c><c>   3</c></rc>
    <rc><c>O </c><c>   3</c></rc>
    <rc><c>O </c><c>   3</c></rc>
    <rc><c>O </c><c>   3</c></rc>
    <rc><c>O </c><c>   3</c></rc>
    <rc><c>O </c><c>   3</c></rc>
    <rc><c>O </c><c>   3</c></rc>
    <rc><c>O </c><c>   3</c></rc>
    <rc><c>O </c><c>   3</c></rc>
    <rc><c>O </c><c>   3</c></rc>
    <rc><c>O </c><c>   3</c></rc>
    <rc><c>O </c><c>   3</c></rc>
    <rc><c>O </c><c>   3</c></rc>
    <rc><c>O </c><c>   3</c></rc>
    <rc><c>O </c><c>   3</c></rc>
    <rc><c>O </c><c>   3</c></rc>
    <rc><c>O </c><c>   3</c></rc>
    <rc><c>O </c><c>   3</c></rc>
   </set>
  </array>
  <array name="atomtypes" >
   <dimension dim="1">type</dimension>
   <field type="int">atomspertype</field>
   <field type="string">element</field>
   <field>mass</field>
   <field>valence</field>
   <field type="string">pseudopotential</field>
   <set>
    <rc><c>  16</c><c>Sr</c><c>     87.62000000</c><c>     10.00000000</c><c>  PAW_PBE Sr_sv 07Sep2000               </c></rc>
    <rc><c>  16</c><c>Cu</c><c>     63.54600000</c><c>     11.00000000</c><c>  PAW_PBE Cu 22Jun2005                  </c></rc>
    <rc><c>  32</c><c>O </c><c>     16.00000000</c><c>      6.00000000</c><c>  PAW_PBE O_s 07Sep2000                 </c></rc>
   </set>
  </array>
 </atominfo>
 <structure name="initialpos" >
  <crystal>
   <varray name="basis" >
    <v>       8.00000000       0.00000000       0.00000000 </v>
    <v>       0.00000000       8.00000000       0.00000000 </v>
    <v>       0.00000000       0.00000000      16.00000000 </v>
   </varray>
   <i name="volume">   1024.00000000 </i>
   <varray name="rec_basis" >
    <v>       0.12500000       0.00000000       0.00000000 </v>
    <v>       0.00000000       0.12500000       0.00000000 </v>
    <v>       0.00000000       0.00000000       0.06250000 </v>
   </varray>
  </crystal>
  <varray name="positions" >
   <v>       0.25000000       0.00000000       0.12500000 </v>
   <v>       0.25000000       0.00000000       0.37500000 </v>
   <v>       0.25000000       0.50000000       0.12500000 </v>
   <v>       0.25000000       0.50000000       0.37500000 </v>
   <v>       0.25000000       0.50000000       0.62500000 </v>
   <v>       0.25000000       0.50000000       0.87500000 </v>
   <v>       0.25000000       0.00000000       0.62500000 </v>
   <v>       0.25000000       0.00000000       0.87500000 </v>
   <v>       0.75000000       0.00000000       0.62500000 </v>
   <v>       0.75000000       0.00000000       0.87500000 </v>
   <v>       0.75000000       0.50000000       0.62500000 </v>
   <v>       0.75000000       0.50000000       0.87500000 </v>
   <v>       0.75000000       0.50000000       0.12500000 </v>
   <v>       0.75000000       0.50000000       0.37500000 </v>
   <v>       0.75000000       0.00000000       0.12500000 </v>
   <v>       0.75000000       0.00000000       0.37500000 </v>
   <v>       0.00000000       0.25000000       0.25000000 </v>
   <v>       0.00000000       0.25000000       0.50000000 </v>
   <v>       0.50000000       0.25000000       0.25000000 </v>
   <v>       0.50000000       0.25000000       0.50000000 </v>
   <v>       0.00000000       0.75000000       0.75000000 </v>
   <v>       0.00000000       0.75000000       0.00000000 </v>
   <v>       0.50000000       0.75000000       0.75000000 </v>
   <v>       0.50000000       0.75000000       0.00000000 </v>
   <v>       0.50000000       0.25000000       0.75000000 </v>
   <v>       0.50000000       0.25000000       0.00000000 </v>
   <v>       0.00000000       0.25000000       0.75000000 </v>
   <v>       0.00000000       0.25000000       0.00000000 </v>
   <v>       0.50000000       0.75000000       0.25000000 </v>
   <v>       0.50000000       0.75000000       0.50000000 </v>
   <v>       0.00000000       0.75000000       0.25000000 </v>
   <v>       0.00000000       0.75000000       0.50000000 </v>
   <v>       0.00000000       0.25000000       0.12500000 </v>
   <v>       0.00000000       0.25000000       0.37500000 </v>
   <v>       0.50000000       0.25000000       0.12500000 </v>
   <v>       0.50000000       0.25000000       0.37500000 </v>
   <v>       0.00000000       0.00000000       0.50000000 </v>
   <v>       0.25000000       0.75000000       0.50000000 </v>
   <v>       0.25000000       0.25000000       0.25000000 </v>
   <v>       0.25000000       0.25000000       0.50000000 </v>
   <v>       0.00000000       0.75000000       0.62500000 </v>
   <v>       0.00000000       0.75000000       0.87500000 </v>
   <v>       0.50000000       0.75000000       0.62500000 </v>
   <v>       0.50000000       0.75000000       0.87500000 </v>
   <v>       0.00000000       0.50000000       0.00000000 </v>
   <v>       0.25000000       0.25000000       0.00000000 </v>
   <v>       0.25000000       0.75000000       0.75000000 </v>
   <v>       0.25000000       0.75000000       0.00000000 </v>
   <v>       0.50000000       0.25000000       0.62500000 </v>
   <v>       0.50000000       0.25000000       0.87500000 </v>
   <v>       0.00000000       0.25000000       0.62500000 </v>
   <v>       0.00000000       0.25000000       0.87500000 </v>
   <v>       0.50000000       0.00000000       0.00000000 </v>
   <v>       0.75000000       0.75000000       0.00000000 </v>
   <v>       0.75000000       0.25000000       0.75000000 </v>
   <v>       0.75000000       0.25000000       0.00000000 </v>
   <v>       0.50000000       0.75000000       0.12500000 </v>
   <v>       0.50000000       0.75000000       0.37500000 </v>
   <v>       0.00000000       0.75000000       0.12500000 </v>
   <v>       0.00000000       0.75000000       0.37500000 </v>
   <v>       0.50000000       0.50000000       0.50000000 </v>
   <v>       0.75000000       0.25000000       0.50000000 </v>
   <v>       0.75000000       0.75000000       0.25000000 </v>
   <v>       0.75000000       0.75000000       0.50000000 </v>
  </varray>
 </structure>
 <calculation>
  <scstep>
   <time name="dav">   25.04   25.04</time>
   <time name="total">   25.84   25.86</time>
   <energy>
    <i name="alphaZ">   2394.61456575 </i>
    <i name="ewald"> -34429.76468882 </i>
    <i name="hartreedc"> -15346.85186592 </i>
    <i name="XCdc">   2172.60371895 </i>
    <i name="pawpsdc">  40755.87891872 </i>
    <i name="pawaedc"> -42070.93108500 </i>
    <i name="eentropy">     -0.01290676 </i>
    <i name="bandstr">   4077.83279835 </i>
    <i name="atom">  49580.02912945 </i>
    <i name="e_fr_energy">   7133.39858472 </i>
    <i name="e_wo_entrp">   7133.41149148 </i>
    <i name="e_0_energy">   7133.40503810 </i>
   </energy>
  </scstep>
  <scstep>
   <time name="dav">   25.42   25.43</time>
   <time name="total">   25.43   25.45</time>
   <energy>
    <i name="e_fr_energy">    925.79048401 </i>
    <i name="e_wo_entrp">    925.81052458 </i>
    <i name="e_0_energy">    925.80050429 </i>
   </energy>
  </scstep>
  <scstep>
   <time name="dav">   25.31   25.31</time>
   <time name="total">   25.31   25.33</time>
   <energy>
    <i name="e_fr_energy">   -266.26641151 </i>
    <i name="e_wo_entrp">   -266.24891599 </i>
    <i name="e_0_energy">   -266.25766375 </i>
   </energy>
  </scstep>
  <scstep>
   <time name="dav">   34.19   34.20</time>
   <time name="total">   34.19   34.22</time>
   <energy>
    <i name="e_fr_energy">   -381.19705619 </i>
    <i name="e_wo_entrp">   -381.17490643 </i>
    <i name="e_0_energy">   -381.18598131 </i>
   </energy>
  </scstep>
  <scstep>
   <time name="dav">   40.52   40.53</time>
   <time name="total">   41.94   41.96</time>
   <energy>
    <i name="e_fr_energy">   -388.20172073 </i>
    <i name="e_wo_entrp">   -388.17476341 </i>
    <i name="e_0_energy">   -388.18824207 </i>
   </energy>
  </scstep>
  <scstep>
   <time name="dav">   35.74   35.75</time>
   <time name="total">   37.95   37.99</time>
   <energy>
    <i name="e_fr_energy">   -337.48209707 </i>
    <i name="e_wo_entrp">   -337.45185796 </i>
    <i name="e_0_energy">   -337.46697751 </i>
   </energy>
  </scstep>
  <scstep>
   <time name="dav">   34.89   34.89</time>
   <time name="total">   37.09   37.11</time>
   <energy>
    <i name="e_fr_energy">   -315.08359682 </i>
    <i name="e_wo_entrp">   -315.03731782 </i>
    <i name="e_0_energy">   -315.06045732 </i>
   </energy>
  </scstep>
  <scstep>
   <time name="dav">   36.33   36.34</time>
   <time name="total">   38.54   38.56</time>
   <energy>
    <i name="e_fr_energy">   -316.15836412 </i>
    <i name="e_wo_entrp">   -316.10722500 </i>
    <i name="e_0_energy">   -316.13279456 </i>
   </energy>
  </scstep>
  <scstep>
   <time name="dav">   35.57   35.58</time>
   <time name="total">   37.78   37.80</time>
   <energy>
    <i name="e_fr_energy">   -321.16916163 </i>
    <i name="e_wo_entrp">   -321.13344074 </i>
    <i name="e_0_energy">   -321.15130119 </i>
   </energy>
  </scstep>
  <scstep>
   <time name="dav">   36.31   36.38</time>
   <time name="total">   38.51   38.60</time>
   <energy>
    <i name="e_fr_energy">   -313.60659554 </i>
    <i name="e_wo_entrp">   -313.57909371 </i>
    <i name="e_0_energy">   -313.59284462 </i>
   </energy>
  </scstep>
  <scstep>
   <time name="dav">   37.39   37.43</time>
   <time name="total">   39.60   39.65</time>
   <energy>
    <i name="e_fr_energy">   -311.72458952 </i>
    <i name="e_wo_entrp">   -311.69274448 </i>
    <i name="e_0_energy">   -311.70866700 </i>
   </energy>
  </scstep>
  <scstep>
   <time name="dav">   34.14   34.15</time>
   <time name="total">   36.35   36.37</time>
   <energy>
    <i name="e_fr_energy">   -312.09204265 </i>
    <i name="e_wo_entrp">   -312.05075087 </i>
    <i name="e_0_energy">   -312.07139676 </i>
   </energy>
  </scstep>
  <scstep>
   <time name="dav">   34.09   34.09</time>
   <time name="total">   36.30   36.32</time>
   <energy>
    <i name="e_fr_energy">   -312.67423182 </i>
    <i name="e_wo_entrp">   -312.63346053 </i>
    <i name="e_0_energy">   -312.65384618 </i>
   </energy>
  </scstep>
  <scstep>
   <time name="dav">   32.77   32.78</time>
   <time name="total">   34.99   35.02</time>
   <energy>
    <i name="e_fr_energy">   -313.35356236 </i>
    <i name="e_wo_entrp">   -313.33048682 </i>
    <i name="e_0_energy">   -313.34202459 </i>
   </energy>
  </scstep>
  <scstep>
   <time name="dav">   33.76   33.85</time>
   <time name="total">   35.97   36.08</time>
   <energy>
    <i name="e_fr_energy">   -313.93407592 </i>
    <i name="e_wo_entrp">   -313.92640942 </i>
    <i name="e_0_energy">   -313.93024267 </i>
   </energy>
  </scstep>
  <scstep>
   <time name="dav">   33.81   33.89</time>
   <time name="total">   36.01   36.12</time>
   <energy>
    <i name="e_fr_energy">   -314.26896658 </i>
    <i name="e_wo_entrp">   -314.26130594 </i>
    <i name="e_0_energy">   -314.26513626 </i>
   </energy>
  </scstep>
  <scstep>
   <time name="dav">   33.93   33.95</time>
   <time name="total">   36.18   36.22</time>
   <energy>
    <i name="e_fr_energy">   -314.33456181 </i>
    <i name="e_wo_entrp">   -314.32673910 </i>
    <i name="e_0_energy">   -314.33065045 </i>
   </energy>
  </scstep>
  <scstep>
   <time name="dav">   35.06   35.15</time>
   <time name="total">   37.32   37.42</time>
   <energy>
    <i name="e_fr_energy">   -314.33822117 </i>
    <i name="e_wo_entrp">   -314.32998405 </i>
    <i name="e_0_energy">   -314.33410261 </i>
   </energy>
  </scstep>
  <scstep>
   <time name="dav">   35.84   35.85</time>
   <time name="total">   38.05   38.07</time>
   <energy>
    <i name="e_fr_energy">   -314.34529374 </i>
    <i name="e_wo_entrp">   -314.33709224 </i>
    <i name="e_0_energy">   -314.34119299 </i>
   </energy>
  </scstep>
  <scstep>
   <time name="dav">   36.92   36.92</time>
   <time name="total">   39.13   39.15</time>
   <energy>
    <i name="e_fr_energy">   -314.34743379 </i>
    <i name="e_wo_entrp">   -314.33924769 </i>
    <i name="e_0_energy">   -314.34334074 </i>
   </energy>
  </scstep>
  <scstep>
   <time name="dav">   37.33   37.35</time>
   <time name="total">   39.54   39.57</time>
   <energy>
    <i name="e_fr_energy">   -314.34685184 </i>
    <i name="e_wo_entrp">   -314.33865224 </i>
    <i name="e_0_energy">   -314.34275204 </i>
   </energy>
  </scstep>
  <scstep>
   <time name="dav">   36.56   36.56</time>
   <time name="total">   38.76   38.79</time>
   <energy>
    <i name="e_fr_energy">   -314.34675192 </i>
    <i name="e_wo_entrp">   -314.33855647 </i>
    <i name="e_0_energy">   -314.34265420 </i>
   </energy>
  </scstep>
  <scstep>
   <time name="dav">   31.91   31.91</time>
   <time name="total">   34.12   34.14</time>
   <energy>
    <i name="e_fr_energy">   -314.34683193 </i>
    <i name="e_wo_entrp">   -314.33864165 </i>
    <i name="e_0_energy">   -314.34273679 </i>
   </energy>
  </scstep>
  <scstep>
   <time name="dav">   35.18   35.19</time>
   <time name="total">   37.39   37.41</time>
   <energy>
    <i name="e_fr_energy">   -314.34682305 </i>
    <i name="e_wo_entrp">   -314.33863292 </i>
    <i name="e_0_energy">   -314.34272798 </i>
   </energy>
  </scstep>
  <scstep>
   <time name="dav">   32.73   32.73</time>
   <time name="total">   34.94   34.96</time>
   <energy>
    <i name="e_fr_energy">   -314.34683124 </i>
    <i name="e_wo_entrp">   -314.33864186 </i>
    <i name="e_0_energy">   -314.34273655 </i>
   </energy>
  </scstep>
  <scstep>
   <time name="dav">   26.63   26.64</time>
   <time name="total">   27.43   27.45</time>
   <energy>
    <i name="alphaZ">   2394.61456575 </i>
    <i name="ewald"> -34429.76468882 </i>
    <i name="hartreedc"> -15377.70461289 </i>
    <i name="XCdc">   2173.99221720 </i>
    <i name="pawpsdc">  62152.95616700 </i>
    <i name="pawaedc"> -63614.91204363 </i>
    <i name="eentropy">     -0.00818909 </i>
    <i name="bandstr">  -3193.54937668 </i>
    <i name="atom">  49580.02912945 </i>
    <i name="e_fr_energy">   -314.34683172 </i>
    <i name="e_wo_entrp">   -314.33864263 </i>
    <i name="e_0_energy">   -314.34273717 </i>
   </energy>
  </scstep>
  <structure>
   <crystal>
    <varray name="basis" >
     <v>       8.00000000       0.00000000       0.00000000 </v>
     <v>       0.00000000       8.00000000       0.00000000 </v>
     <v>       0.00000000       0.00000000      16.00000000 </v>
    </varray>
    <i name="volume">   1024.00000000 </i>
    <varray name="rec_basis" >
     <v>       0.12500000       0.00000000       0.00000000 </v>
     <v>       0.00000000       0.12500000       0.00000000 </v>
     <v>       0.00000000       0.00000000       0.06250000 </v>
    </varray>
   </crystal>
   <varray name="positions" >
    <v>       0.25000000       0.00000000       0.12500000 </v>
    <v>       0.25000000       0.00000000       0.37500000 </v>
    <v>       0.25000000       0.50000000       0.12500000 </v>
    <v>       0.25000000       0.50000000       0.37500000 </v>
    <v>       0.25000000       0.50000000       0.62500000 </v>
    <v>       0.25000000       0.50000000       0.87500000 </v>
    <v>       0.25000000       0.00000000       0.62500000 </v>
    <v>       0.25000000       0.00000000       0.87500000 </v>
    <v>       0.75000000       0.00000000       0.62500000 </v>
    <v>       0.75000000       0.00000000       0.87500000 </v>
    <v>       0.75000000       0.50000000       0.62500000 </v>
    <v>       0.75000000       0.50000000       0.87500000 </v>
    <v>       0.75000000       0.50000000       0.12500000 </v>
    <v>       0.75000000       0.50000000       0.37500000 </v>
    <v>       0.75000000       0.00000000       0.12500000 </v>
    <v>       0.75000000       0.00000000       0.37500000 </v>
    <v>       0.00000000       0.25000000       0.25000000 </v>
    <v>       0.00000000       0.25000000       0.50000000 </v>
    <v>       0.50000000       0.25000000       0.25000000 </v>
    <v>       0.50000000       0.25000000       0.50000000 </v>
    <v>       0.00000000       0.75000000       0.75000000 </v>
    <v>       0.00000000       0.75000000       0.00000000 </v>
    <v>       0.50000000       0.75000000       0.75000000 </v>
    <v>       0.50000000       0.75000000       0.00000000 </v>
    <v>       0.50000000       0.25000000       0.75000000 </v>
    <v>       0.50000000       0.25000000       0.00000000 </v>
    <v>       0.00000000       0.25000000       0.75000000 </v>
    <v>       0.00000000       0.25000000       0.00000000 </v>
    <v>       0.50000000       0.75000000       0.25000000 </v>
    <v>       0.50000000       0.75000000       0.50000000 </v>
    <v>       0.00000000       0.75000000       0.25000000 </v>
    <v>       0.00000000       0.75000000       0.50000000 </v>
    <v>       0.00000000       0.25000000       0.12500000 </v>
    <v>       0.00000000       0.25000000       0.37500000 </v>
    <v>       0.50000000       0.25000000       0.12500000 </v>
    <v>       0.50000000       0.25000000       0.37500000 </v>
    <v>       0.00000000       0.00000000       0.50000000 </v>
    <v>       0.25000000       0.75000000       0.50000000 </v>
    <v>       0.25000000       0.25000000       0.25000000 </v>
    <v>       0.25000000       0.25000000       0.50000000 </v>
    <v>       0.00000000       0.75000000       0.62500000 </v>
    <v>       0.00000000       0.75000000       0.87500000 </v>
    <v>       0.50000000       0.75000000       0.62500000 </v>
    <v>       0.50000000       0.75000000       0.87500000 </v>
    <v>       0.00000000       0.50000000       0.00000000 </v>
    <v>       0.25000000       0.25000000       0.00000000 </v>
    <v>       0.25000000       0.75000000       0.75000000 </v>
    <v>       0.25000000       0.75000000       0.00000000 </v>
    <v>       0.50000000       0.25000000       0.62500000 </v>
    <v>       0.50000000       0.25000000       0.87500000 </v>
    <v>       0.00000000       0.25000000       0.62500000 </v>
    <v>       0.00000000       0.25000000       0.87500000 </v>
    <v>       0.50000000       0.00000000       0.00000000 </v>
    <v>       0.75000000       0.75000000       0.00000000 </v>
    <v>       0.75000000       0.25000000       0.75000000 </v>
    <v>       0.75000000       0.25000000       0.00000000 </v>
    <v>       0.50000000       0.75000000       0.12500000 </v>
    <v>       0.50000000       0.75000000       0.37500000 </v>
    <v>       0.00000000       0.75000000       0.12500000 </v>
    <v>       0.00000000       0.75000000       0.37500000 </v>
    <v>       0.50000000       0.50000000       0.50000000 </v>
    <v>       0.75000000       0.25000000       0.50000000 </v>
    <v>       0.75000000       0.75000000       0.25000000 </v>
    <v>       0.75000000       0.75000000       0.50000000 </v>
   </varray>
  </structure>
  <varray name="forces" >
   <v>       0.71613405       0.58742149      -1.34758370 </v>
   <v>      -0.71613405       0.58742149       1.34758370 </v>
   <v>      -0.71613405      -0.58742149      -1.34758370 </v>
   <v>       0.71613405      -0.58742149       1.34758370 </v>
   <v>       0.71613405       0.58742149      -1.34758370 </v>
   <v>      -0.71613405       0.58742149       1.34758370 </v>
   <v>      -0.71613405      -0.58742149      -1.34758370 </v>
   <v>       0.71613405      -0.58742149       1.34758370 </v>
   <v>       0.71613405       0.58742149      -1.34758370 </v>
   <v>      -0.71613405       0.58742149       1.34758370 </v>
   <v>      -0.71613405      -0.58742149      -1.34758370 </v>
   <v>       0.71613405      -0.58742149       1.34758370 </v>
   <v>       0.71613405       0.58742149      -1.34758370 </v>
   <v>      -0.71613405       0.58742149       1.34758370 </v>
   <v>      -0.71613405      -0.58742149      -1.34758370 </v>
   <v>       0.71613405      -0.58742149       1.34758370 </v>
   <v>       0.68536416       0.00000000       0.00000000 </v>
   <v>       0.00000000      -1.22212442       0.00000000 </v>
   <v>      -0.68536416       0.00000000       0.00000000 </v>
   <v>       0.00000000       1.22212442       0.00000000 </v>
   <v>       0.68536416       0.00000000       0.00000000 </v>
   <v>       0.00000000      -1.22212442       0.00000000 </v>
   <v>      -0.68536416       0.00000000       0.00000000 </v>
   <v>       0.00000000       1.22212442       0.00000000 </v>
   <v>       0.68536416       0.00000000       0.00000000 </v>
   <v>       0.00000000      -1.22212442       0.00000000 </v>
   <v>      -0.68536416       0.00000000       0.00000000 </v>
   <v>       0.00000000       1.22212442       0.00000000 </v>
   <v>       0.68536416       0.00000000       0.00000000 </v>
   <v>       0.00000000      -1.22212442       0.00000000 </v>
   <v>      -0.68536416       0.00000000       0.00000000 </v>
   <v>       0.00000000       1.22212442       0.00000000 </v>
   <v>      -0.52979912      -0.59146032       1.44905743 </v>
   <v>      -0.52979912       0.59146032      -1.44905743 </v>
   <v>       0.52979912       0.59146032       1.44905743 </v>
   <v>       0.52979912      -0.59146032      -1.44905743 </v>
   <v>       0.00000000       0.00000000       0.00000000 </v>
   <v>       0.00000000       0.00000000       0.03067664 </v>
   <v>       0.00000000       0.00000000       0.00000000 </v>
   <v>       0.00000000       0.00000000      -0.03067664 </v>
   <v>      -0.52979912      -0.59146032       1.44905743 </v>
   <v>      -0.52979912       0.59146032      -1.44905743 </v>
   <v>       0.52979912       0.59146032       1.44905743 </v>
   <v>       0.52979912      -0.59146032      -1.44905743 </v>
   <v>       0.00000000       0.00000000       0.00000000 </v>
   <v>       0.00000000       0.00000000       0.03067664 </v>
   <v>       0.00000000       0.00000000       0.00000000 </v>
   <v>       0.00000000       0.00000000      -0.03067664 </v>
   <v>      -0.52979912      -0.59146032       1.44905743 </v>
   <v>      -0.52979912       0.59146032      -1.44905743 </v>
   <v>       0.52979912       0.59146032       1.44905743 </v>
   <v>       0.52979912      -0.59146032      -1.44905743 </v>
   <v>       0.00000000       0.00000000       0.00000000 </v>
   <v>       0.00000000       0.00000000       0.03067664 </v>
   <v>       0.00000000       0.00000000       0.00000000 </v>
   <v>       0.00000000       0.00000000      -0.03067664 </v>
   <v>      -0.52979912      -0.59146032       1.44905743 </v>
   <v>      -0.52979912       0.59146032      -1.44905743 </v>
   <v>       0.52979912       0.59146032       1.44905743 </v>
   <v>       0.52979912      -0.59146032      -1.44905743 </v>
   <v>       0.00000000       0.00000000       0.00000000 </v>
   <v>       0.00000000       0.00000000       0.03067664 </v>
   <v>       0.00000000       0.00000000       0.00000000 </v>
   <v>       0.00000000       0.00000000      -0.03067664 </v>
  </varray>
  <varray name="stress" >
   <v>     -64.34264750       0.00000000       0.00000000 </v>
   <v>       0.00000000    -116.82368911       0.00000000 </v>
   <v>       0.00000000       0.00000000     -85.96687100 </v>
  </varray>
  <energy>
   <i name="e_fr_energy">   -314.34683172 </i>
   <i name="e_wo_entrp">   -314.34273717 </i>
   <i name="e_0_energy">     -0.00818909 </i>
  </energy>
  <time name="totalsc">  973.89  974.89</time>
  <eigenvalues>
   <array>
    <dimension dim="1">band</dimension>
    <dimension dim="2">kpoint</dimension>
    <dimension dim="3">spin</dimension>
    <field>eigene</field>
    <field>occ</field>
    <set>
     <set comment="spin 1">
      <set comment="kpoint 1">
       <r>  -31.3993    1.0000 </r>
       <r>  -31.3927    1.0000 </r>
       <r>  -31.3924    1.0000 </r>
       <r>  -31.3858    1.0000 </r>
       <r>  -31.3857    1.0000 </r>
       <r>  -31.3855    1.0000 </r>
       <r>  -31.3795    1.0000 </r>
       <r>  -31.3795    1.0000 </r>
       <r>  -31.3790    1.0000 </r>
       <r>  -31.3790    1.0000 </r>
       <r>  -31.3732    1.0000 </r>
       <r>  -31.3731    1.0000 </r>
       <r>  -31.3728    1.0000 </r>
       <r>  -31.3676    1.0000 </r>
       <r>  -31.3669    1.0000 </r>
       <r>  -31.3612    1.0000 </r>
       <r>  -15.0131    1.0000 </r>
       <r>  -14.8563    1.0000 </r>
       <r>  -14.8192    1.0000 </r>
       <r>  -14.7688    1.0000 </r>
       <r>  -14.7635    1.0000 </r>
       <r>  -14.7560    1.0000 </r>
       <r>  -14.7378    1.0000 </r>
       <r>  -14.6066    1.0000 </r>
       <r>  -14.5244    1.0000 </r>
       <r>  -14.4811    1.0000 </r>
       <r>  -14.4374    1.0000 </r>
       <r>  -14.4362    1.0000 </r>
       <r>  -14.2813    1.0000 </r>
       <r>  -14.1595    1.0000 </r>
       <r>  -14.1567    1.0000 </r>
       <r>  -14.1119    1.0000 </r>
       <r>  -14.1091    1.0000 </r>
       <r>  -14.1038    1.0000 </r>
       <r>  -14.0562    1.0000 </r>
       <r>  -14.0496    1.0000 </r>
       <r>  -13.9736    1.0000 </r>
       <r>  -13.9728    1.0000 </r>
       <r>  -13.9590    1.0000 </r>
       <r>  -13.9415    1.0000 </r>
       <r>  -13.9411    1.0000 </r>
       <r>  -13.8924    1.0000 </r>
       <r>  -13.8880    1.0000 </r>
       <r>  -13.8360    1.0000 </r>
       <r>  -13.7816    1.0000 </r>
       <r>  -13.7347    1.0000 </r>
       <r>  -13.6557    1.0000 </r>
       <r>  -13.6315    1.0000 </r>
       <r>  -13.6033    1.0000 </r>
       <r>  -13.5604    1.0000 </r>
       <r>  -13.5248    1.0000 </r>
       <r>  -13.5098    1.0000 </r>
       <r>  -13.5069    1.0000 </r>
       <r>  -13.5053    1.0000 </r>
       <r>  -13.4256    1.0000 </r>
       <r>  -13.4237    1.0000 </r>
       <r>  -13.3977    1.0000 </r>
       <r>  -13.3921    1.0000 </r>
       <r>  -13.3857    1.0000 </r>
       <r>  -13.3231    1.0000 </r>
       <r>  -13.3219    1.0000 </r>
       <r>  -13.3205    1.0000 </r>
       <r>  -13.3192    1.0000 </r>
       <r>  -13.3069    1.0000 </r>
       <r>  -13.3004    1.0000 </r>
       <r>  -13.2982    1.0000 </r>
       <r>  -13.2894    1.0000 </r>
       <r>  -13.2823    1.0000 </r>
       <r>  -13.2811    1.0000 </r>
       <r>  -13.2635    1.0000 </r>
       <r>  -13.2444    1.0000 </r>
       <r>  -13.2149    1.0000 </r>
       <r>  -13.2092    1.0000 </r>
       <r>  -13.2028    1.0000 </r>
       <r>  -13.1968    1.0000 </r>
       <r>  -13.1840    1.0000 </r>
       <r>  -13.1777    1.0000 </r>
       <r>  -13.1776    1.0000 </r>
       <r>  -13.1569    1.0000 </r>
       <r>  -13.1567    1.0000 </r>
       <r>  -13.1344    1.0000 </r>
       <r>  -13.1278    1.0000 </r>
       <r>  -12.9813    1.0000 </r>
       <r>  -12.9582    1.0000 </r>
       <r>  -12.9192    1.0000 </r>
       <r>  -12.9045    1.0000 </r>
       <r>  -12.8605    1.0000 </r>
       <r>  -12.8196    1.0000 </r>
       <r>  -12.8084    1.0000 </r>
       <r>  -12.8051    1.0000 </r>
       <r>  -12.7886    1.0000 </r>
       <r>  -12.7339    1.0000 </r>
       <r>  -12.7334    1.0000 </r>
       <r>  -12.6875    1.0000 </r>
       <r>  -12.6803    1.0000 </r>
       <r>  -12.6189    1.0000 </r>
       <r>   -3.0406    1.0000 </r>
       <r>   -2.9807    1.0000 </r>
       <r>   -2.8025    1.0000 </r>
       <r>   -2.7807    1.0000 </r>
       <r>   -2.7762    1.0000 </r>
       <r>   -2.7584    1.0000 </r>
       <r>   -2.6651    1.0000 </r>
       <r>   -2.6395    1.0000 </r>
       <r>   -2.2258    1.0000 </r>
       <r>   -2.2018    1.0000 </r>
       <r>   -2.1903    1.0000 </r>
       <r>   -2.1728    1.0000 </r>
       <r>   -2.1642    1.0000 </r>
       <r>   -2.1625    1.0000 </r>
       <r>   -2.1423    1.0000 </r>
       <r>   -2.1283    1.0000 </r>
       <r>   -2.0926    1.0000 </r>
       <r>   -2.0710    1.0000 </r>
       <r>   -1.9426    1.0000 </r>
       <r>   -1.9100    1.0000 </r>
       <r>   -1.8515    1.0000 </r>
       <r>   -1.8490    1.0000 </r>
       <r>   -1.8137    1.0000 </r>
       <r>   -1.7969    1.0000 </r>
       <r>   -1.7791    1.0000 </r>
       <r>   -1.7643    1.0000 </r>
       <r>   -1.7250    1.0000 </r>
       <r>   -1.6841    1.0000 </r>
       <r>   -1.6734    1.0000 </r>
       <r>   -1.6316    1.0000 </r>
       <r>   -1.4916    1.0000 </r>
       <r>   -1.4607    1.0000 </r>
       <r>   -1.4589    1.0000 </r>
       <r>   -1.4299    1.0000 </r>
       <r>   -1.4234    1.0000 </r>
       <r>   -1.3576    1.0000 </r>
       <r>   -1.3346    1.0000 </r>
       <r>   -1.3305    1.0000 </r>
       <r>   -1.3207    1.0000 </r>
       <r>   -1.2321    1.0000 </r>
       <r>   -1.2295    1.0000 </r>
       <r>   -1.2257    1.0000 </r>
       <r>   -1.1861    1.0000 </r>
       <r>   -1.1811    1.0000 </r>
       <r>   -1.1719    1.0000 </r>
       <r>   -1.1186    1.0000 </r>
       <r>   -1.0778    1.0000 </r>
       <r>   -1.0761    1.0000 </r>
       <r>   -1.0696    1.0000 </r>
       <r>   -1.0499    1.0000 </r>
       <r>   -1.0458    1.0000 </r>
       <r>   -1.0320    1.0000 </r>
       <r>   -0.9786    1.0000 </r>
       <r>   -0.9684    1.0000 </r>
       <r>   -0.9619    1.0000 </r>
       <r>   -0.8988    1.0000 </r>
       <r>   -0.8982    1.0000 </r>
       <r>   -0.8898    1.0000 </r>
       <r>   -0.8556    1.0000 </r>
       <r>   -0.7799    1.0000 </r>
       <r>   -0.7798    1.0000 </r>
       <r>   -0.7788    1.0000 </r>
       <r>   -0.7613    1.0000 </r>
       <r>   -0.7220    1.0000 </r>
       <r>   -0.6711    1.0000 </r>
       <r>   -0.6485    1.0000 </r>
       <r>   -0.6376    1.0000 </r>
       <r>   -0.6350    1.0000 </r>
       <r>   -0.5893    1.0000 </r>
       <r>   -0.5724    1.0000 </r>
       <r>   -0.5626    1.0000 </r>
       <r>   -0.5285    1.0000 </r>
       <r>   -0.5243    1.0000 </r>
       <r>   -0.5220    1.0000 </r>
       <r>   -0.4527    1.0000 </r>
       <r>   -0.4114    1.0000 </r>
       <r>   -0.4070    1.0000 </r>
       <r>   -0.3888    1.0000 </r>
       <r>   -0.3743    1.0000 </r>
       <r>   -0.3509    1.0000 </r>
       <r>   -0.3506    1.0000 </r>
       <r>   -0.3294    1.0000 </r>
       <r>   -0.2916    1.0000 </r>
       <r>   -0.2915    1.0000 </r>
       <r>   -0.2907    1.0000 </r>
       <r>   -0.2862    1.0000 </r>
       <r>   -0.2789    1.0000 </r>
       <r>   -0.2121    1.0000 </r>
       <r>   -0.1134    1.0000 </r>
       <r>   -0.0730    1.0000 </r>
       <r>    0.1226    1.0000 </r>
       <r>    0.1309    1.0000 </r>
       <r>    0.1611    1.0000 </r>
       <r>    0.2306    1.0000 </r>
       <r>    0.2512    1.0000 </r>
       <r>    0.2830    1.0000 </r>
       <r>    0.3067    1.0000 </r>
       <r>    0.3460    1.0000 </r>
       <r>    0.3717    1.0000 </r>
       <r>    0.3903    1.0000 </r>
       <r>    0.4657    1.0000 </r>
       <r>    0.4985    1.0000 </r>
       <r>    0.5234    1.0000 </r>
       <r>    0.5733    1.0000 </r>
       <r>    0.5962    1.0000 </r>
       <r>    0.7725    1.0000 </r>
       <r>    0.8060    1.0000 </r>
       <r>    0.8458    1.0000 </r>
       <r>    0.8881    1.0000 </r>
       <r>    0.9167    1.0000 </r>
       <r>    0.9245    1.0000 </r>
       <r>    0.9395    1.0000 </r>
       <r>    0.9564    1.0000 </r>
       <r>    0.9756    1.0000 </r>
       <r>    0.9825    1.0000 </r>
       <r>    0.9857    1.0000 </r>
       <r>    0.9938    1.0000 </r>
       <r>    0.9997    1.0000 </r>
       <r>    1.0672    1.0000 </r>
       <r>    1.0761    1.0000 </r>
       <r>    1.0823    1.0000 </r>
       <r>    1.1009    1.0000 </r>
       <r>    1.1128    1.0000 </r>
       <r>    1.1352    1.0000 </r>
       <r>    1.1988    1.0000 </r>
       <r>    1.2043    1.0000 </r>
       <r>    1.2433    1.0000 </r>
       <r>    1.2509    1.0000 </r>
       <r>    1.2548    1.0000 </r>
       <r>    1.2974    1.0000 </r>
       <r>    1.3391    1.0000 </r>
       <r>    1.3977    1.0000 </r>
       <r>    1.4181    1.0000 </r>
       <r>    1.4345    1.0000 </r>
       <r>    1.4495    1.0000 </r>
       <r>    1.4530    1.0000 </r>
       <r>    1.4570    1.0000 </r>
       <r>    1.4913    1.0000 </r>
       <r>    1.5005    1.0000 </r>
       <r>    1.5060    1.0000 </r>
       <r>    1.5256    1.0000 </r>
       <r>    1.5664    1.0000 </r>
       <r>    1.5884    1.0000 </r>
       <r>    1.6151    1.0000 </r>
       <r>    1.6332    1.0000 </r>
       <r>    1.6346    1.0000 </r>
       <r>    1.6599    1.0000 </r>
       <r>    1.6600    1.0000 </r>
       <r>    1.7014    1.0000 </r>
       <r>    1.7434    1.0000 </r>
       <r>    1.7533    1.0000 </r>
       <r>    1.7971    1.0000 </r>
       <r>    1.8695    1.0000 </r>
       <r>    1.8720    1.0000 </r>
       <r>    1.8777    1.0000 </r>
       <r>    1.8960    1.0000 </r>
       <r>    1.9023    1.0000 </r>
       <r>    1.9338    1.0000 </r>
       <r>    1.9545    1.0000 </r>
       <r>    2.0017    1.0000 </r>
       <r>    2.0884    1.0000 </r>
       <r>    2.0952    1.0000 </r>
       <r>    2.2878    1.0000 </r>
       <r>    2.3467    1.0000 </r>
       <r>    2.3674    1.0000 </r>
       <r>    2.3709    1.0000 </r>
       <r>    2.3770    1.0000 </r>
       <r>    2.5222    1.0000 </r>
       <r>    2.6098    1.0000 </r>
       <r>    3.0950    0.0000 </r>
       <r>    3.1792    0.0000 </r>
       <r>    3.1835    0.0000 </r>
       <r>    3.2236    0.0000 </r>
       <r>    3.3050    0.0000 </r>
       <r>    3.5409    0.0000 </r>
       <r>    3.6798    0.0000 </r>
       <r>    3.7775    0.0000 </r>
       <r>    4.0201    0.0000 </r>
       <r>    4.2394    0.0000 </r>
       <r>    4.5034    0.0000 </r>
       <r>    4.6009    0.0000 </r>
       <r>    4.7401    0.0000 </r>
       <r>    4.9118    0.0000 </r>
       <r>    4.9818    0.0000 </r>
       <r>    5.3559    0.0000 </r>
       <r>    5.4338    0.0000 </r>
       <r>    5.4830    0.0000 </r>
       <r>    5.7020    0.0000 </r>
       <r>    6.1849    0.0000 </r>
       <r>    6.4162    0.0000 </r>
       <r>    6.4434    0.0000 </r>
       <r>    6.5402    0.0000 </r>
       <r>    6.6601    0.0000 </r>
       <r>    6.7655    0.0000 </r>
       <r>    6.8525    0.0000 </r>
       <r>    6.8679    0.0000 </r>
       <r>    7.0241    0.0000 </r>
       <r>    7.0746    0.0000 </r>
       <r>    7.2050    0.0000 </r>
       <r>    7.2764    0.0000 </r>
       <r>    7.3850    0.0000 </r>
       <r>    7.5459    0.0000 </r>
       <r>    7.6881    0.0000 </r>
       <r>    7.8678    0.0000 </r>
       <r>    7.9780    0.0000 </r>
       <r>    8.2674    0.0000 </r>
       <r>    8.2802    0.0000 </r>
       <r>    8.3304    0.0000 </r>
       <r>    8.3489    0.0000 </r>
       <r>    8.4447    0.0000 </r>
       <r>    8.5791    0.0000 </r>
       <r>    8.6453    0.0000 </r>
       <r>    8.6599    0.0000 </r>
       <r>    8.6780    0.0000 </r>
       <r>    8.6782    0.0000 </r>
       <r>    8.7072    0.0000 </r>
       <r>    8.7142    0.0000 </r>
       <r>    8.7201    0.0000 </r>
       <r>    8.7261    0.0000 </r>
       <r>    8.7906    0.0000 </r>
       <r>    8.8414    0.0000 </r>
       <r>    8.8836    0.0000 </r>
       <r>    8.8890    0.0000 </r>
       <r>    8.9279    0.0000 </r>
       <r>    8.9507    0.0000 </r>
       <r>    8.9716    0.0000 </r>
       <r>    9.1954    0.0000 </r>
       <r>    9.2323    0.0000 </r>
       <r>    9.3499    0.0000 </r>
       <r>    9.3858    0.0000 </r>
       <r>    9.4303    0.0000 </r>
       <r>    9.5562    0.0000 </r>
       <r>    9.5935    0.0000 </r>
       <r>    9.6368    0.0000 </r>
       <r>    9.6461    0.0000 </r>
       <r>    9.6480    0.0000 </r>
       <r>    9.7020    0.0000 </r>
       <r>    9.7101    0.0000 </r>
       <r>    9.7545    0.0000 </r>
       <r>    9.7598    0.0000 </r>
       <r>    9.7967    0.0000 </r>
       <r>    9.7987    0.0000 </r>
       <r>    9.8039    0.0000 </r>
       <r>    9.8091    0.0000 </r>
       <r>    9.8947    0.0000 </r>
       <r>    9.9011    0.0000 </r>
       <r>    9.9081    0.0000 </r>
       <r>    9.9516    0.0000 </r>
       <r>   10.0405    0.0000 </r>
       <r>   10.1650    0.0000 </r>
       <r>   10.3473    0.0000 </r>
       <r>   10.3577    0.0000 </r>
      </set>
      <set comment="kpoint 2">
       <r>  -31.3959    1.0000 </r>
       <r>  -31.3894    1.0000 </r>
       <r>  -31.3891    1.0000 </r>
       <r>  -31.3890    1.0000 </r>
       <r>  -31.3828    1.0000 </r>
       <r>  -31.3826    1.0000 </r>
       <r>  -31.3825    1.0000 </r>
       <r>  -31.3823    1.0000 </r>
       <r>  -31.3766    1.0000 </r>
       <r>  -31.3763    1.0000 </r>
       <r>  -31.3760    1.0000 </r>
       <r>  -31.3760    1.0000 </r>
       <r>  -31.3706    1.0000 </r>
       <r>  -31.3701    1.0000 </r>
       <r>  -31.3699    1.0000 </r>
       <r>  -31.3642    1.0000 </r>
       <r>  -14.9125    1.0000 </r>
       <r>  -14.7737    1.0000 </r>
       <r>  -14.7519    1.0000 </r>
       <r>  -14.7462    1.0000 </r>
       <r>  -14.7186    1.0000 </r>
       <r>  -14.7128    1.0000 </r>
       <r>  -14.6855    1.0000 </r>
       <r>  -14.6474    1.0000 </r>
       <r>  -14.5264    1.0000 </r>
       <r>  -14.5194    1.0000 </r>
       <r>  -14.4661    1.0000 </r>
       <r>  -14.4218    1.0000 </r>
       <r>  -14.3900    1.0000 </r>
       <r>  -14.3352    1.0000 </r>
       <r>  -14.3149    1.0000 </r>
       <r>  -14.2215    1.0000 </r>
       <r>  -14.1825    1.0000 </r>
       <r>  -14.1653    1.0000 </r>
       <r>  -14.1477    1.0000 </r>
       <r>  -14.0890    1.0000 </r>
       <r>  -14.0781    1.0000 </r>
       <r>  -14.0235    1.0000 </r>
       <r>  -13.9171    1.0000 </r>
       <r>  -13.8938    1.0000 </r>
       <r>  -13.8584    1.0000 </r>
       <r>  -13.8584    1.0000 </r>
       <r>  -13.8086    1.0000 </r>
       <r>  -13.7630    1.0000 </r>
       <r>  -13.7580    1.0000 </r>
       <r>  -13.7493    1.0000 </r>
       <r>  -13.6726    1.0000 </r>
       <r>  -13.6390    1.0000 </r>
       <r>  -13.5767    1.0000 </r>
       <r>  -13.5155    1.0000 </r>
       <r>  -13.5045    1.0000 </r>
       <r>  -13.4970    1.0000 </r>
       <r>  -13.4883    1.0000 </r>
       <r>  -13.4769    1.0000 </r>
       <r>  -13.4552    1.0000 </r>
       <r>  -13.4467    1.0000 </r>
       <r>  -13.4076    1.0000 </r>
       <r>  -13.3950    1.0000 </r>
       <r>  -13.3947    1.0000 </r>
       <r>  -13.3729    1.0000 </r>
       <r>  -13.3688    1.0000 </r>
       <r>  -13.3087    1.0000 </r>
       <r>  -13.3034    1.0000 </r>
       <r>  -13.3012    1.0000 </r>
       <r>  -13.2972    1.0000 </r>
       <r>  -13.2452    1.0000 </r>
       <r>  -13.2409    1.0000 </r>
       <r>  -13.2205    1.0000 </r>
       <r>  -13.2038    1.0000 </r>
       <r>  -13.1907    1.0000 </r>
       <r>  -13.1861    1.0000 </r>
       <r>  -13.1856    1.0000 </r>
       <r>  -13.1735    1.0000 </r>
       <r>  -13.1684    1.0000 </r>
       <r>  -13.1648    1.0000 </r>
       <r>  -13.1585    1.0000 </r>
       <r>  -13.1463    1.0000 </r>
       <r>  -13.1417    1.0000 </r>
       <r>  -13.1351    1.0000 </r>
       <r>  -13.1116    1.0000 </r>
       <r>  -13.0471    1.0000 </r>
       <r>  -13.0400    1.0000 </r>
       <r>  -12.9932    1.0000 </r>
       <r>  -12.9697    1.0000 </r>
       <r>  -12.9422    1.0000 </r>
       <r>  -12.9186    1.0000 </r>
       <r>  -12.9096    1.0000 </r>
       <r>  -12.8842    1.0000 </r>
       <r>  -12.8672    1.0000 </r>
       <r>  -12.8565    1.0000 </r>
       <r>  -12.8471    1.0000 </r>
       <r>  -12.7982    1.0000 </r>
       <r>  -12.7632    1.0000 </r>
       <r>  -12.7393    1.0000 </r>
       <r>  -12.7185    1.0000 </r>
       <r>  -12.6614    1.0000 </r>
       <r>   -2.9348    1.0000 </r>
       <r>   -2.8606    1.0000 </r>
       <r>   -2.8242    1.0000 </r>
       <r>   -2.8035    1.0000 </r>
       <r>   -2.4422    1.0000 </r>
       <r>   -2.4262    1.0000 </r>
       <r>   -2.4130    1.0000 </r>
       <r>   -2.3695    1.0000 </r>
       <r>   -2.2178    1.0000 </r>
       <r>   -2.1890    1.0000 </r>
       <r>   -2.1872    1.0000 </r>
       <r>   -2.1781    1.0000 </r>
       <r>   -2.1755    1.0000 </r>
       <r>   -2.1385    1.0000 </r>
       <r>   -2.1286    1.0000 </r>
       <r>   -2.0970    1.0000 </r>
       <r>   -2.0852    1.0000 </r>
       <r>   -1.9811    1.0000 </r>
       <r>   -1.9685    1.0000 </r>
       <r>   -1.9421    1.0000 </r>
       <r>   -1.9398    1.0000 </r>
       <r>   -1.7339    1.0000 </r>
       <r>   -1.7232    1.0000 </r>
       <r>   -1.7155    1.0000 </r>
       <r>   -1.6918    1.0000 </r>
       <r>   -1.6861    1.0000 </r>
       <r>   -1.6386    1.0000 </r>
       <r>   -1.5919    1.0000 </r>
       <r>   -1.5744    1.0000 </r>
       <r>   -1.5608    1.0000 </r>
       <r>   -1.5364    1.0000 </r>
       <r>   -1.5333    1.0000 </r>
       <r>   -1.5096    1.0000 </r>
       <r>   -1.5001    1.0000 </r>
       <r>   -1.4832    1.0000 </r>
       <r>   -1.4831    1.0000 </r>
       <r>   -1.4777    1.0000 </r>
       <r>   -1.4699    1.0000 </r>
       <r>   -1.4403    1.0000 </r>
       <r>   -1.4016    1.0000 </r>
       <r>   -1.3833    1.0000 </r>
       <r>   -1.3716    1.0000 </r>
       <r>   -1.3441    1.0000 </r>
       <r>   -1.3134    1.0000 </r>
       <r>   -1.3056    1.0000 </r>
       <r>   -1.2940    1.0000 </r>
       <r>   -1.2210    1.0000 </r>
       <r>   -1.2164    1.0000 </r>
       <r>   -1.2075    1.0000 </r>
       <r>   -1.1432    1.0000 </r>
       <r>   -1.1392    1.0000 </r>
       <r>   -1.0948    1.0000 </r>
       <r>   -1.0662    1.0000 </r>
       <r>   -1.0648    1.0000 </r>
       <r>   -0.9721    1.0000 </r>
       <r>   -0.9708    1.0000 </r>
       <r>   -0.9519    1.0000 </r>
       <r>   -0.9446    1.0000 </r>
       <r>   -0.9416    1.0000 </r>
       <r>   -0.9369    1.0000 </r>
       <r>   -0.9190    1.0000 </r>
       <r>   -0.8714    1.0000 </r>
       <r>   -0.8614    1.0000 </r>
       <r>   -0.7933    1.0000 </r>
       <r>   -0.7878    1.0000 </r>
       <r>   -0.7571    1.0000 </r>
       <r>   -0.7430    1.0000 </r>
       <r>   -0.7128    1.0000 </r>
       <r>   -0.6459    1.0000 </r>
       <r>   -0.6390    1.0000 </r>
       <r>   -0.5610    1.0000 </r>
       <r>   -0.5328    1.0000 </r>
       <r>   -0.5242    1.0000 </r>
       <r>   -0.5230    1.0000 </r>
       <r>   -0.5173    1.0000 </r>
       <r>   -0.4867    1.0000 </r>
       <r>   -0.4057    1.0000 </r>
       <r>   -0.3685    1.0000 </r>
       <r>   -0.3645    1.0000 </r>
       <r>   -0.3572    1.0000 </r>
       <r>   -0.3505    1.0000 </r>
       <r>   -0.3485    1.0000 </r>
       <r>   -0.3371    1.0000 </r>
       <r>   -0.3311    1.0000 </r>
       <r>   -0.3255    1.0000 </r>
       <r>   -0.3184    1.0000 </r>
       <r>   -0.2903    1.0000 </r>
       <r>   -0.2836    1.0000 </r>
       <r>    0.0310    1.0000 </r>
       <r>    0.0544    1.0000 </r>
       <r>    0.1129    1.0000 </r>
       <r>    0.1825    1.0000 </r>
       <r>    0.1834    1.0000 </r>
       <r>    0.2387    1.0000 </r>
       <r>    0.3201    1.0000 </r>
       <r>    0.3497    1.0000 </r>
       <r>    0.4044    1.0000 </r>
       <r>    0.4244    1.0000 </r>
       <r>    0.4378    1.0000 </r>
       <r>    0.4905    1.0000 </r>
       <r>    0.4984    1.0000 </r>
       <r>    0.6617    1.0000 </r>
       <r>    0.6878    1.0000 </r>
       <r>    0.6917    1.0000 </r>
       <r>    0.7156    1.0000 </r>
       <r>    0.8262    1.0000 </r>
       <r>    0.8960    1.0000 </r>
       <r>    0.9027    1.0000 </r>
       <r>    0.9392    1.0000 </r>
       <r>    0.9497    1.0000 </r>
       <r>    0.9716    1.0000 </r>
       <r>    0.9720    1.0000 </r>
       <r>    0.9919    1.0000 </r>
       <r>    1.0131    1.0000 </r>
       <r>    1.0185    1.0000 </r>
       <r>    1.0452    1.0000 </r>
       <r>    1.1061    1.0000 </r>
       <r>    1.1089    1.0000 </r>
       <r>    1.1093    1.0000 </r>
       <r>    1.1133    1.0000 </r>
       <r>    1.1236    1.0000 </r>
       <r>    1.1283    1.0000 </r>
       <r>    1.1581    1.0000 </r>
       <r>    1.1881    1.0000 </r>
       <r>    1.1970    1.0000 </r>
       <r>    1.2097    1.0000 </r>
       <r>    1.2407    1.0000 </r>
       <r>    1.3346    1.0000 </r>
       <r>    1.3479    1.0000 </r>
       <r>    1.3547    1.0000 </r>
       <r>    1.3563    1.0000 </r>
       <r>    1.3962    1.0000 </r>
       <r>    1.4166    1.0000 </r>
       <r>    1.4193    1.0000 </r>
       <r>    1.4496    1.0000 </r>
       <r>    1.4863    1.0000 </r>
       <r>    1.4956    1.0000 </r>
       <r>    1.5243    1.0000 </r>
       <r>    1.5253    1.0000 </r>
       <r>    1.5371    1.0000 </r>
       <r>    1.5715    1.0000 </r>
       <r>    1.5833    1.0000 </r>
       <r>    1.5947    1.0000 </r>
       <r>    1.6069    1.0000 </r>
       <r>    1.6133    1.0000 </r>
       <r>    1.7123    1.0000 </r>
       <r>    1.7161    1.0000 </r>
       <r>    1.7176    1.0000 </r>
       <r>    1.8005    1.0000 </r>
       <r>    1.8176    1.0000 </r>
       <r>    1.8329    1.0000 </r>
       <r>    1.8519    1.0000 </r>
       <r>    1.8623    1.0000 </r>
       <r>    1.8779    1.0000 </r>
       <r>    1.8848    1.0000 </r>
       <r>    1.9051    1.0000 </r>
       <r>    1.9662    1.0000 </r>
       <r>    1.9826    1.0000 </r>
       <r>    2.0261    1.0000 </r>
       <r>    2.1326    1.0000 </r>
       <r>    2.1385    1.0000 </r>
       <r>    2.1663    1.0000 </r>
       <r>    2.1683    1.0000 </r>
       <r>    2.2429    1.0000 </r>
       <r>    2.3481    1.0000 </r>
       <r>    2.3969    1.0000 </r>
       <r>    2.5410    1.0000 </r>
       <r>    2.5644    1.0000 </r>
       <r>    2.6102    1.0000 </r>
       <r>    2.8815    0.0001 </r>
       <r>    2.9066    0.0000 </r>
       <r>    2.9877    0.0000 </r>
       <r>    2.9972    0.0000 </r>
       <r>    3.0244    0.0000 </r>
       <r>    3.1511    0.0000 </r>
       <r>    3.2106    0.0000 </r>
       <r>    3.8391    0.0000 </r>
       <r>    4.3203    0.0000 </r>
       <r>    4.3850    0.0000 </r>
       <r>    4.5000    0.0000 </r>
       <r>    4.5596    0.0000 </r>
       <r>    4.7743    0.0000 </r>
       <r>    4.7967    0.0000 </r>
       <r>    4.8932    0.0000 </r>
       <r>    5.4479    0.0000 </r>
       <r>    5.4797    0.0000 </r>
       <r>    5.6332    0.0000 </r>
       <r>    5.6970    0.0000 </r>
       <r>    5.8886    0.0000 </r>
       <r>    6.0780    0.0000 </r>
       <r>    6.1452    0.0000 </r>
       <r>    6.2498    0.0000 </r>
       <r>    6.9769    0.0000 </r>
       <r>    7.0015    0.0000 </r>
       <r>    7.3200    0.0000 </r>
       <r>    7.3436    0.0000 </r>
       <r>    7.3653    0.0000 </r>
       <r>    7.3925    0.0000 </r>
       <r>    7.5250    0.0000 </r>
       <r>    7.6093    0.0000 </r>
       <r>    7.6609    0.0000 </r>
       <r>    7.8646    0.0000 </r>
       <r>    7.8705    0.0000 </r>
       <r>    7.8860    0.0000 </r>
       <r>    7.9166    0.0000 </r>
       <r>    8.1767    0.0000 </r>
       <r>    8.1973    0.0000 </r>
       <r>    8.2265    0.0000 </r>
       <r>    8.3542    0.0000 </r>
       <r>    8.3713    0.0000 </r>
       <r>    8.4511    0.0000 </r>
       <r>    8.4938    0.0000 </r>
       <r>    8.5042    0.0000 </r>
       <r>    8.5457    0.0000 </r>
       <r>    8.5656    0.0000 </r>
       <r>    8.5802    0.0000 </r>
       <r>    8.5830    0.0000 </r>
       <r>    8.5998    0.0000 </r>
       <r>    8.6814    0.0000 </r>
       <r>    8.7484    0.0000 </r>
       <r>    8.9202    0.0000 </r>
       <r>    8.9247    0.0000 </r>
       <r>    8.9344    0.0000 </r>
       <r>    8.9783    0.0000 </r>
       <r>    9.0032    0.0000 </r>
       <r>    9.1078    0.0000 </r>
       <r>    9.1193    0.0000 </r>
       <r>    9.1195    0.0000 </r>
       <r>    9.1712    0.0000 </r>
       <r>    9.1726    0.0000 </r>
       <r>    9.3431    0.0000 </r>
       <r>    9.4057    0.0000 </r>
       <r>    9.4812    0.0000 </r>
       <r>    9.5785    0.0000 </r>
       <r>    9.5807    0.0000 </r>
       <r>    9.5931    0.0000 </r>
       <r>    9.6390    0.0000 </r>
       <r>    9.6754    0.0000 </r>
       <r>    9.6865    0.0000 </r>
       <r>    9.7343    0.0000 </r>
       <r>    9.7356    0.0000 </r>
       <r>    9.8511    0.0000 </r>
       <r>    9.8915    0.0000 </r>
       <r>    9.9373    0.0000 </r>
       <r>    9.9382    0.0000 </r>
       <r>    9.9631    0.0000 </r>
       <r>   10.0325    0.0000 </r>
       <r>   10.0825    0.0000 </r>
       <r>   10.0959    0.0000 </r>
       <r>   10.1167    0.0000 </r>
       <r>   10.1399    0.0000 </r>
       <r>   10.1983    0.0000 </r>
      </set>
      <set comment="kpoint 3">
       <r>  -31.3958    1.0000 </r>
       <r>  -31.3894    1.0000 </r>
       <r>  -31.3891    1.0000 </r>
       <r>  -31.3889    1.0000 </r>
       <r>  -31.3828    1.0000 </r>
       <r>  -31.3826    1.0000 </r>
       <r>  -31.3826    1.0000 </r>
       <r>  -31.3824    1.0000 </r>
       <r>  -31.3765    1.0000 </r>
       <r>  -31.3763    1.0000 </r>
       <r>  -31.3763    1.0000 </r>
       <r>  -31.3759    1.0000 </r>
       <r>  -31.3706    1.0000 </r>
       <r>  -31.3699    1.0000 </r>
       <r>  -31.3699    1.0000 </r>
       <r>  -31.3641    1.0000 </r>
       <r>  -14.9314    1.0000 </r>
       <r>  -14.8304    1.0000 </r>
       <r>  -14.7910    1.0000 </r>
       <r>  -14.7596    1.0000 </r>
       <r>  -14.6901    1.0000 </r>
       <r>  -14.6727    1.0000 </r>
       <r>  -14.6597    1.0000 </r>
       <r>  -14.5139    1.0000 </r>
       <r>  -14.4894    1.0000 </r>
       <r>  -14.4826    1.0000 </r>
       <r>  -14.4312    1.0000 </r>
       <r>  -14.4097    1.0000 </r>
       <r>  -14.3823    1.0000 </r>
       <r>  -14.3236    1.0000 </r>
       <r>  -14.2846    1.0000 </r>
       <r>  -14.2658    1.0000 </r>
       <r>  -14.2170    1.0000 </r>
       <r>  -14.1783    1.0000 </r>
       <r>  -14.1410    1.0000 </r>
       <r>  -14.1344    1.0000 </r>
       <r>  -14.1326    1.0000 </r>
       <r>  -14.1080    1.0000 </r>
       <r>  -14.0154    1.0000 </r>
       <r>  -14.0077    1.0000 </r>
       <r>  -14.0027    1.0000 </r>
       <r>  -13.9061    1.0000 </r>
       <r>  -13.8788    1.0000 </r>
       <r>  -13.8335    1.0000 </r>
       <r>  -13.6536    1.0000 </r>
       <r>  -13.6328    1.0000 </r>
       <r>  -13.6013    1.0000 </r>
       <r>  -13.5906    1.0000 </r>
       <r>  -13.5658    1.0000 </r>
       <r>  -13.5126    1.0000 </r>
       <r>  -13.4824    1.0000 </r>
       <r>  -13.4799    1.0000 </r>
       <r>  -13.4226    1.0000 </r>
       <r>  -13.4205    1.0000 </r>
       <r>  -13.4193    1.0000 </r>
       <r>  -13.4144    1.0000 </r>
       <r>  -13.3823    1.0000 </r>
       <r>  -13.3468    1.0000 </r>
       <r>  -13.3389    1.0000 </r>
       <r>  -13.3304    1.0000 </r>
       <r>  -13.3165    1.0000 </r>
       <r>  -13.3160    1.0000 </r>
       <r>  -13.3155    1.0000 </r>
       <r>  -13.2913    1.0000 </r>
       <r>  -13.2849    1.0000 </r>
       <r>  -13.2792    1.0000 </r>
       <r>  -13.2690    1.0000 </r>
       <r>  -13.2687    1.0000 </r>
       <r>  -13.2667    1.0000 </r>
       <r>  -13.2663    1.0000 </r>
       <r>  -13.2620    1.0000 </r>
       <r>  -13.2543    1.0000 </r>
       <r>  -13.2511    1.0000 </r>
       <r>  -13.1974    1.0000 </r>
       <r>  -13.1805    1.0000 </r>
       <r>  -13.1059    1.0000 </r>
       <r>  -13.0859    1.0000 </r>
       <r>  -13.0755    1.0000 </r>
       <r>  -13.0357    1.0000 </r>
       <r>  -13.0253    1.0000 </r>
       <r>  -13.0121    1.0000 </r>
       <r>  -12.9865    1.0000 </r>
       <r>  -12.9800    1.0000 </r>
       <r>  -12.9565    1.0000 </r>
       <r>  -12.9397    1.0000 </r>
       <r>  -12.9169    1.0000 </r>
       <r>  -12.9151    1.0000 </r>
       <r>  -12.8946    1.0000 </r>
       <r>  -12.8677    1.0000 </r>
       <r>  -12.8676    1.0000 </r>
       <r>  -12.8418    1.0000 </r>
       <r>  -12.8145    1.0000 </r>
       <r>  -12.8026    1.0000 </r>
       <r>  -12.7767    1.0000 </r>
       <r>  -12.7713    1.0000 </r>
       <r>  -12.7138    1.0000 </r>
       <r>   -3.0291    1.0000 </r>
       <r>   -3.0001    1.0000 </r>
       <r>   -2.8098    1.0000 </r>
       <r>   -2.7948    1.0000 </r>
       <r>   -2.7694    1.0000 </r>
       <r>   -2.7642    1.0000 </r>
       <r>   -2.6630    1.0000 </r>
       <r>   -2.6504    1.0000 </r>
       <r>   -2.2181    1.0000 </r>
       <r>   -2.2081    1.0000 </r>
       <r>   -2.1994    1.0000 </r>
       <r>   -2.1957    1.0000 </r>
       <r>   -2.1800    1.0000 </r>
       <r>   -2.1630    1.0000 </r>
       <r>   -2.1510    1.0000 </r>
       <r>   -2.1080    1.0000 </r>
       <r>   -2.0807    1.0000 </r>
       <r>   -2.0117    1.0000 </r>
       <r>   -1.9886    1.0000 </r>
       <r>   -1.8528    1.0000 </r>
       <r>   -1.8520    1.0000 </r>
       <r>   -1.8519    1.0000 </r>
       <r>   -1.8398    1.0000 </r>
       <r>   -1.7391    1.0000 </r>
       <r>   -1.7116    1.0000 </r>
       <r>   -1.7020    1.0000 </r>
       <r>   -1.6828    1.0000 </r>
       <r>   -1.6610    1.0000 </r>
       <r>   -1.6404    1.0000 </r>
       <r>   -1.6113    1.0000 </r>
       <r>   -1.5245    1.0000 </r>
       <r>   -1.4982    1.0000 </r>
       <r>   -1.4798    1.0000 </r>
       <r>   -1.4784    1.0000 </r>
       <r>   -1.4516    1.0000 </r>
       <r>   -1.4285    1.0000 </r>
       <r>   -1.3407    1.0000 </r>
       <r>   -1.3310    1.0000 </r>
       <r>   -1.3237    1.0000 </r>
       <r>   -1.2664    1.0000 </r>
       <r>   -1.2596    1.0000 </r>
       <r>   -1.2351    1.0000 </r>
       <r>   -1.2053    1.0000 </r>
       <r>   -1.1984    1.0000 </r>
       <r>   -1.1658    1.0000 </r>
       <r>   -1.1342    1.0000 </r>
       <r>   -1.1039    1.0000 </r>
       <r>   -1.0340    1.0000 </r>
       <r>   -1.0196    1.0000 </r>
       <r>   -0.9890    1.0000 </r>
       <r>   -0.9854    1.0000 </r>
       <r>   -0.9761    1.0000 </r>
       <r>   -0.9598    1.0000 </r>
       <r>   -0.9582    1.0000 </r>
       <r>   -0.9525    1.0000 </r>
       <r>   -0.9415    1.0000 </r>
       <r>   -0.8988    1.0000 </r>
       <r>   -0.8934    1.0000 </r>
       <r>   -0.8912    1.0000 </r>
       <r>   -0.8679    1.0000 </r>
       <r>   -0.8612    1.0000 </r>
       <r>   -0.8373    1.0000 </r>
       <r>   -0.7629    1.0000 </r>
       <r>   -0.7316    1.0000 </r>
       <r>   -0.6344    1.0000 </r>
       <r>   -0.6019    1.0000 </r>
       <r>   -0.5988    1.0000 </r>
       <r>   -0.5967    1.0000 </r>
       <r>   -0.5833    1.0000 </r>
       <r>   -0.5705    1.0000 </r>
       <r>   -0.5656    1.0000 </r>
       <r>   -0.5549    1.0000 </r>
       <r>   -0.5470    1.0000 </r>
       <r>   -0.4267    1.0000 </r>
       <r>   -0.3891    1.0000 </r>
       <r>   -0.3558    1.0000 </r>
       <r>   -0.3363    1.0000 </r>
       <r>   -0.3336    1.0000 </r>
       <r>   -0.3264    1.0000 </r>
       <r>   -0.3066    1.0000 </r>
       <r>   -0.3042    1.0000 </r>
       <r>   -0.2914    1.0000 </r>
       <r>   -0.2616    1.0000 </r>
       <r>   -0.2566    1.0000 </r>
       <r>   -0.2319    1.0000 </r>
       <r>   -0.1854    1.0000 </r>
       <r>   -0.1745    1.0000 </r>
       <r>   -0.1519    1.0000 </r>
       <r>   -0.1350    1.0000 </r>
       <r>   -0.1337    1.0000 </r>
       <r>    0.0116    1.0000 </r>
       <r>    0.0479    1.0000 </r>
       <r>    0.0937    1.0000 </r>
       <r>    0.1152    1.0000 </r>
       <r>    0.1347    1.0000 </r>
       <r>    0.1481    1.0000 </r>
       <r>    0.2560    1.0000 </r>
       <r>    0.2792    1.0000 </r>
       <r>    0.3271    1.0000 </r>
       <r>    0.3529    1.0000 </r>
       <r>    0.4287    1.0000 </r>
       <r>    0.5237    1.0000 </r>
       <r>    0.5390    1.0000 </r>
       <r>    0.5994    1.0000 </r>
       <r>    0.6337    1.0000 </r>
       <r>    0.7004    1.0000 </r>
       <r>    0.7198    1.0000 </r>
       <r>    0.8012    1.0000 </r>
       <r>    0.9002    1.0000 </r>
       <r>    0.9392    1.0000 </r>
       <r>    0.9443    1.0000 </r>
       <r>    0.9922    1.0000 </r>
       <r>    1.0129    1.0000 </r>
       <r>    1.0338    1.0000 </r>
       <r>    1.0468    1.0000 </r>
       <r>    1.0562    1.0000 </r>
       <r>    1.0563    1.0000 </r>
       <r>    1.0669    1.0000 </r>
       <r>    1.1250    1.0000 </r>
       <r>    1.1417    1.0000 </r>
       <r>    1.1546    1.0000 </r>
       <r>    1.1584    1.0000 </r>
       <r>    1.1665    1.0000 </r>
       <r>    1.1775    1.0000 </r>
       <r>    1.1786    1.0000 </r>
       <r>    1.1871    1.0000 </r>
       <r>    1.1941    1.0000 </r>
       <r>    1.2224    1.0000 </r>
       <r>    1.2809    1.0000 </r>
       <r>    1.3200    1.0000 </r>
       <r>    1.3268    1.0000 </r>
       <r>    1.3425    1.0000 </r>
       <r>    1.3464    1.0000 </r>
       <r>    1.3548    1.0000 </r>
       <r>    1.3635    1.0000 </r>
       <r>    1.3767    1.0000 </r>
       <r>    1.3919    1.0000 </r>
       <r>    1.4170    1.0000 </r>
       <r>    1.4222    1.0000 </r>
       <r>    1.4565    1.0000 </r>
       <r>    1.4608    1.0000 </r>
       <r>    1.5117    1.0000 </r>
       <r>    1.5200    1.0000 </r>
       <r>    1.5381    1.0000 </r>
       <r>    1.5490    1.0000 </r>
       <r>    1.5507    1.0000 </r>
       <r>    1.6573    1.0000 </r>
       <r>    1.7062    1.0000 </r>
       <r>    1.7722    1.0000 </r>
       <r>    1.8064    1.0000 </r>
       <r>    1.8105    1.0000 </r>
       <r>    1.8345    1.0000 </r>
       <r>    1.8813    1.0000 </r>
       <r>    1.9229    1.0000 </r>
       <r>    1.9290    1.0000 </r>
       <r>    1.9459    1.0000 </r>
       <r>    1.9464    1.0000 </r>
       <r>    1.9661    1.0000 </r>
       <r>    1.9956    1.0000 </r>
       <r>    2.0080    1.0000 </r>
       <r>    2.0695    1.0000 </r>
       <r>    2.1306    1.0000 </r>
       <r>    2.2516    1.0000 </r>
       <r>    2.2595    1.0000 </r>
       <r>    2.2740    1.0000 </r>
       <r>    2.3608    1.0000 </r>
       <r>    2.3747    1.0000 </r>
       <r>    2.4188    1.0000 </r>
       <r>    2.5751    1.0000 </r>
       <r>    2.8903    0.0000 </r>
       <r>    3.1154    0.0000 </r>
       <r>    3.1609    0.0000 </r>
       <r>    3.2629    0.0000 </r>
       <r>    3.3993    0.0000 </r>
       <r>    3.6729    0.0000 </r>
       <r>    3.6828    0.0000 </r>
       <r>    3.7237    0.0000 </r>
       <r>    4.2939    0.0000 </r>
       <r>    4.3318    0.0000 </r>
       <r>    4.4575    0.0000 </r>
       <r>    4.5832    0.0000 </r>
       <r>    4.9541    0.0000 </r>
       <r>    5.0791    0.0000 </r>
       <r>    5.0935    0.0000 </r>
       <r>    5.3163    0.0000 </r>
       <r>    5.4455    0.0000 </r>
       <r>    5.4757    0.0000 </r>
       <r>    5.5870    0.0000 </r>
       <r>    5.6954    0.0000 </r>
       <r>    5.9849    0.0000 </r>
       <r>    6.0427    0.0000 </r>
       <r>    6.1699    0.0000 </r>
       <r>    6.9897    0.0000 </r>
       <r>    6.9899    0.0000 </r>
       <r>    7.1328    0.0000 </r>
       <r>    7.3401    0.0000 </r>
       <r>    7.3502    0.0000 </r>
       <r>    7.4410    0.0000 </r>
       <r>    7.6564    0.0000 </r>
       <r>    7.7550    0.0000 </r>
       <r>    7.7568    0.0000 </r>
       <r>    7.7918    0.0000 </r>
       <r>    7.9601    0.0000 </r>
       <r>    7.9672    0.0000 </r>
       <r>    7.9733    0.0000 </r>
       <r>    7.9796    0.0000 </r>
       <r>    8.0798    0.0000 </r>
       <r>    8.1989    0.0000 </r>
       <r>    8.2076    0.0000 </r>
       <r>    8.4700    0.0000 </r>
       <r>    8.5319    0.0000 </r>
       <r>    8.6056    0.0000 </r>
       <r>    8.6238    0.0000 </r>
       <r>    8.6252    0.0000 </r>
       <r>    8.6336    0.0000 </r>
       <r>    8.6362    0.0000 </r>
       <r>    8.6563    0.0000 </r>
       <r>    8.6708    0.0000 </r>
       <r>    8.7854    0.0000 </r>
       <r>    8.8078    0.0000 </r>
       <r>    8.8353    0.0000 </r>
       <r>    8.8575    0.0000 </r>
       <r>    8.9251    0.0000 </r>
       <r>    8.9654    0.0000 </r>
       <r>    8.9832    0.0000 </r>
       <r>    9.0674    0.0000 </r>
       <r>    9.1376    0.0000 </r>
       <r>    9.1473    0.0000 </r>
       <r>    9.3548    0.0000 </r>
       <r>    9.3701    0.0000 </r>
       <r>    9.4079    0.0000 </r>
       <r>    9.4244    0.0000 </r>
       <r>    9.4415    0.0000 </r>
       <r>    9.4932    0.0000 </r>
       <r>    9.6072    0.0000 </r>
       <r>    9.6077    0.0000 </r>
       <r>    9.6275    0.0000 </r>
       <r>    9.6849    0.0000 </r>
       <r>    9.6948    0.0000 </r>
       <r>    9.6996    0.0000 </r>
       <r>    9.7298    0.0000 </r>
       <r>    9.7358    0.0000 </r>
       <r>    9.7748    0.0000 </r>
       <r>    9.7770    0.0000 </r>
       <r>    9.9248    0.0000 </r>
       <r>    9.9286    0.0000 </r>
       <r>    9.9937    0.0000 </r>
       <r>   10.0187    0.0000 </r>
       <r>   10.0845    0.0000 </r>
       <r>   10.0859    0.0000 </r>
       <r>   10.3016    0.0000 </r>
       <r>   10.3740    0.0000 </r>
      </set>
      <set comment="kpoint 4">
       <r>  -31.3925    1.0000 </r>
       <r>  -31.3862    1.0000 </r>
       <r>  -31.3859    1.0000 </r>
       <r>  -31.3858    1.0000 </r>
       <r>  -31.3858    1.0000 </r>
       <r>  -31.3798    1.0000 </r>
       <r>  -31.3798    1.0000 </r>
       <r>  -31.3795    1.0000 </r>
       <r>  -31.3795    1.0000 </r>
       <r>  -31.3793    1.0000 </r>
       <r>  -31.3792    1.0000 </r>
       <r>  -31.3736    1.0000 </r>
       <r>  -31.3732    1.0000 </r>
       <r>  -31.3731    1.0000 </r>
       <r>  -31.3730    1.0000 </r>
       <r>  -31.3672    1.0000 </r>
       <r>  -14.8575    1.0000 </r>
       <r>  -14.7817    1.0000 </r>
       <r>  -14.7690    1.0000 </r>
       <r>  -14.7452    1.0000 </r>
       <r>  -14.6660    1.0000 </r>
       <r>  -14.6543    1.0000 </r>
       <r>  -14.6130    1.0000 </r>
       <r>  -14.6055    1.0000 </r>
       <r>  -14.5368    1.0000 </r>
       <r>  -14.4766    1.0000 </r>
       <r>  -14.4739    1.0000 </r>
       <r>  -14.4267    1.0000 </r>
       <r>  -14.3618    1.0000 </r>
       <r>  -14.3304    1.0000 </r>
       <r>  -14.2637    1.0000 </r>
       <r>  -14.2457    1.0000 </r>
       <r>  -14.2355    1.0000 </r>
       <r>  -14.2257    1.0000 </r>
       <r>  -14.2162    1.0000 </r>
       <r>  -14.1120    1.0000 </r>
       <r>  -14.1108    1.0000 </r>
       <r>  -14.0225    1.0000 </r>
       <r>  -13.9877    1.0000 </r>
       <r>  -13.9592    1.0000 </r>
       <r>  -13.9562    1.0000 </r>
       <r>  -13.8928    1.0000 </r>
       <r>  -13.8644    1.0000 </r>
       <r>  -13.8466    1.0000 </r>
       <r>  -13.7988    1.0000 </r>
       <r>  -13.7791    1.0000 </r>
       <r>  -13.7447    1.0000 </r>
       <r>  -13.7248    1.0000 </r>
       <r>  -13.5258    1.0000 </r>
       <r>  -13.5140    1.0000 </r>
[...]
       <r>    11.2411     0.0000   348.0000 </r>
       <r>    11.3943     0.0000   348.0000 </r>
       <r>    11.5475     0.0000   348.0000 </r>
       <r>    11.7006     0.0000   348.0000 </r>
       <r>    11.8538     0.0000   348.0000 </r>
       <r>    12.0070     0.0000   348.0000 </r>
       <r>    12.1602     0.0000   348.0000 </r>
       <r>    12.3134     0.0000   348.0000 </r>
       <r>    12.4666     0.0000   348.0000 </r>
      </set>
      <set comment="spin 2">
       <r>   -33.4888     0.0000     0.0000 </r>
       <r>   -33.3356     0.0000     0.0000 </r>
       <r>   -33.1825     0.0000     0.0000 </r>
       <r>   -33.0293     0.0000     0.0000 </r>
       <r>   -32.8761     0.0000     0.0000 </r>
       <r>   -32.7229     0.0000     0.0000 </r>
       <r>   -32.5697     0.0000     0.0000 </r>
       <r>   -32.4165     0.0000     0.0000 </r>
       <r>   -32.2633     0.0000     0.0000 </r>
       <r>   -32.1102     0.0000     0.0000 </r>
       <r>   -31.9570     0.0000     0.0000 </r>
       <r>   -31.8038     0.0000     0.0000 </r>
       <r>   -31.6506     0.0000     0.0000 </r>
       <r>   -31.4974     0.0631     0.0097 </r>
       <r>   -31.3442    87.6694    13.4393 </r>
       <r>   -31.1911    16.7166    16.0000 </r>
       <r>   -31.0379     0.0000    16.0000 </r>
       <r>   -30.8847     0.0000    16.0000 </r>
       <r>   -30.7315     0.0000    16.0000 </r>
       <r>   -30.5783     0.0000    16.0000 </r>
       <r>   -30.4251     0.0000    16.0000 </r>
       <r>   -30.2719     0.0000    16.0000 </r>
       <r>   -30.1188     0.0000    16.0000 </r>
       <r>   -29.9656     0.0000    16.0000 </r>
       <r>   -29.8124     0.0000    16.0000 </r>
       <r>   -29.6592     0.0000    16.0000 </r>
       <r>   -29.5060     0.0000    16.0000 </r>
       <r>   -29.3528     0.0000    16.0000 </r>
       <r>   -29.1997     0.0000    16.0000 </r>
       <r>   -29.0465     0.0000    16.0000 </r>
       <r>   -28.8933     0.0000    16.0000 </r>
       <r>   -28.7401     0.0000    16.0000 </r>
       <r>   -28.5869     0.0000    16.0000 </r>
       <r>   -28.4337     0.0000    16.0000 </r>
       <r>   -28.2805     0.0000    16.0000 </r>
       <r>   -28.1274     0.0000    16.0000 </r>
       <r>   -27.9742     0.0000    16.0000 </r>
       <r>   -27.8210     0.0000    16.0000 </r>
       <r>   -27.6678     0.0000    16.0000 </r>
       <r>   -27.5146     0.0000    16.0000 </r>
       <r>   -27.3614     0.0000    16.0000 </r>
       <r>   -27.2083     0.0000    16.0000 </r>
       <r>   -27.0551     0.0000    16.0000 </r>
       <r>   -26.9019     0.0000    16.0000 </r>
       <r>   -26.7487     0.0000    16.0000 </r>
       <r>   -26.5955     0.0000    16.0000 </r>
       <r>   -26.4423     0.0000    16.0000 </r>
       <r>   -26.2891     0.0000    16.0000 </r>
       <r>   -26.1360     0.0000    16.0000 </r>
       <r>   -25.9828     0.0000    16.0000 </r>
       <r>   -25.8296     0.0000    16.0000 </r>
       <r>   -25.6764     0.0000    16.0000 </r>
       <r>   -25.5232     0.0000    16.0000 </r>
       <r>   -25.3700     0.0000    16.0000 </r>
       <r>   -25.2169     0.0000    16.0000 </r>
       <r>   -25.0637     0.0000    16.0000 </r>
       <r>   -24.9105     0.0000    16.0000 </r>
       <r>   -24.7573     0.0000    16.0000 </r>
       <r>   -24.6041     0.0000    16.0000 </r>
       <r>   -24.4509     0.0000    16.0000 </r>
       <r>   -24.2977     0.0000    16.0000 </r>
       <r>   -24.1446     0.0000    16.0000 </r>
       <r>   -23.9914     0.0000    16.0000 </r>
       <r>   -23.8382     0.0000    16.0000 </r>
       <r>   -23.6850     0.0000    16.0000 </r>
       <r>   -23.5318     0.0000    16.0000 </r>
       <r>   -23.3786     0.0000    16.0000 </r>
       <r>   -23.2255     0.0000    16.0000 </r>
       <r>   -23.0723     0.0000    16.0000 </r>
       <r>   -22.9191     0.0000    16.0000 </r>
       <r>   -22.7659     0.0000    16.0000 </r>
       <r>   -22.6127     0.0000    16.0000 </r>
       <r>   -22.4595     0.0000    16.0000 </r>
       <r>   -22.3063     0.0000    16.0000 </r>
       <r>   -22.1532     0.0000    16.0000 </r>
       <r>   -22.0000     0.0000    16.0000 </r>
       <r>   -21.8468     0.0000    16.0000 </r>
       <r>   -21.6936     0.0000    16.0000 </r>
       <r>   -21.5404     0.0000    16.0000 </r>
       <r>   -21.3872     0.0000    16.0000 </r>
       <r>   -21.2341     0.0000    16.0000 </r>
       <r>   -21.0809     0.0000    16.0000 </r>
       <r>   -20.9277     0.0000    16.0000 </r>
       <r>   -20.7745     0.0000    16.0000 </r>
       <r>   -20.6213     0.0000    16.0000 </r>
       <r>   -20.4681     0.0000    16.0000 </r>
       <r>   -20.3149     0.0000    16.0000 </r>
       <r>   -20.1618     0.0000    16.0000 </r>
       <r>   -20.0086     0.0000    16.0000 </r>
       <r>   -19.8554     0.0000    16.0000 </r>
       <r>   -19.7022     0.0000    16.0000 </r>
       <r>   -19.5490     0.0000    16.0000 </r>
       <r>   -19.3958     0.0000    16.0000 </r>
       <r>   -19.2427     0.0000    16.0000 </r>
       <r>   -19.0895     0.0000    16.0000 </r>
       <r>   -18.9363     0.0000    16.0000 </r>
       <r>   -18.7831     0.0000    16.0000 </r>
       <r>   -18.6299     0.0000    16.0000 </r>
       <r>   -18.4767     0.0000    16.0000 </r>
       <r>   -18.3235     0.0000    16.0000 </r>
       <r>   -18.1704     0.0000    16.0000 </r>
       <r>   -18.0172     0.0000    16.0000 </r>
       <r>   -17.8640     0.0000    16.0000 </r>
       <r>   -17.7108     0.0000    16.0000 </r>
       <r>   -17.5576     0.0000    16.0000 </r>
       <r>   -17.4044     0.0000    16.0000 </r>
       <r>   -17.2513     0.0000    16.0000 </r>
       <r>   -17.0981     0.0000    16.0000 </r>
       <r>   -16.9449     0.0000    16.0000 </r>
       <r>   -16.7917     0.0000    16.0000 </r>
       <r>   -16.6385     0.0000    16.0000 </r>
       <r>   -16.4853     0.0000    16.0000 </r>
       <r>   -16.3321     0.0000    16.0000 </r>
       <r>   -16.1790     0.0000    16.0000 </r>
       <r>   -16.0258     0.0000    16.0000 </r>
       <r>   -15.8726     0.0000    16.0000 </r>
       <r>   -15.7194     0.0000    16.0000 </r>
       <r>   -15.5662     0.0000    16.0000 </r>
       <r>   -15.4130     0.0000    16.0000 </r>
       <r>   -15.2599     0.0000    16.0000 </r>
       <r>   -15.1067     0.0114    16.0017 </r>
       <r>   -14.9535     1.6619    16.2563 </r>
       <r>   -14.8003     7.2732    17.3705 </r>
       <r>   -14.6471    28.7745    21.7783 </r>
       <r>   -14.4939    26.6454    25.8599 </r>
       <r>   -14.3407    22.0863    29.2432 </r>
       <r>   -14.1876    27.1632    33.4042 </r>
       <r>   -14.0344    23.9882    37.0788 </r>
       <r>   -13.8812    24.1216    40.7739 </r>
       <r>   -13.7280    20.2731    43.8794 </r>
       <r>   -13.5748    20.1488    46.9659 </r>
       <r>   -13.4216    51.9503    54.9239 </r>
       <r>   -13.2685    71.6475    65.8992 </r>
       <r>   -13.1153    59.2357    74.9732 </r>
       <r>   -12.9621    43.6073    81.6531 </r>
       <r>   -12.8089    46.0637    88.7094 </r>
       <r>   -12.6557    44.9355    95.5928 </r>
       <r>   -12.5025     2.6580    96.0000 </r>
       <r>   -12.3493     0.0002    96.0000 </r>
       <r>   -12.1962     0.0000    96.0000 </r>
       <r>   -12.0430     0.0000    96.0000 </r>
       <r>   -11.8898     0.0000    96.0000 </r>
       <r>   -11.7366     0.0000    96.0000 </r>
       <r>   -11.5834     0.0000    96.0000 </r>
       <r>   -11.4302     0.0000    96.0000 </r>
       <r>   -11.2771     0.0000    96.0000 </r>
       <r>   -11.1239     0.0000    96.0000 </r>
       <r>   -10.9707     0.0000    96.0000 </r>
       <r>   -10.8175     0.0000    96.0000 </r>
       <r>   -10.6643     0.0000    96.0000 </r>
       <r>   -10.5111     0.0000    96.0000 </r>
       <r>   -10.3579     0.0000    96.0000 </r>
       <r>   -10.2048     0.0000    96.0000 </r>
       <r>   -10.0516     0.0000    96.0000 </r>
       <r>    -9.8984     0.0000    96.0000 </r>
       <r>    -9.7452     0.0000    96.0000 </r>
       <r>    -9.5920     0.0000    96.0000 </r>
       <r>    -9.4388     0.0000    96.0000 </r>
       <r>    -9.2857     0.0000    96.0000 </r>
       <r>    -9.1325     0.0000    96.0000 </r>
       <r>    -8.9793     0.0000    96.0000 </r>
       <r>    -8.8261     0.0000    96.0000 </r>
       <r>    -8.6729     0.0000    96.0000 </r>
       <r>    -8.5197     0.0000    96.0000 </r>
       <r>    -8.3665     0.0000    96.0000 </r>
       <r>    -8.2134     0.0000    96.0000 </r>
       <r>    -8.0602     0.0000    96.0000 </r>
       <r>    -7.9070     0.0000    96.0000 </r>
       <r>    -7.7538     0.0000    96.0000 </r>
       <r>    -7.6006     0.0000    96.0000 </r>
       <r>    -7.4474     0.0000    96.0000 </r>
       <r>    -7.2943     0.0000    96.0000 </r>
       <r>    -7.1411     0.0000    96.0000 </r>
       <r>    -6.9879     0.0000    96.0000 </r>
       <r>    -6.8347     0.0000    96.0000 </r>
       <r>    -6.6815     0.0000    96.0000 </r>
       <r>    -6.5283     0.0000    96.0000 </r>
       <r>    -6.3751     0.0000    96.0000 </r>
       <r>    -6.2220     0.0000    96.0000 </r>
       <r>    -6.0688     0.0000    96.0000 </r>
       <r>    -5.9156     0.0000    96.0000 </r>
       <r>    -5.7624     0.0000    96.0000 </r>
       <r>    -5.6092     0.0000    96.0000 </r>
       <r>    -5.4560     0.0000    96.0000 </r>
       <r>    -5.3029     0.0000    96.0000 </r>
       <r>    -5.1497     0.0000    96.0000 </r>
       <r>    -4.9965     0.0000    96.0000 </r>
       <r>    -4.8433     0.0000    96.0000 </r>
       <r>    -4.6901     0.0000    96.0000 </r>
       <r>    -4.5369     0.0000    96.0000 </r>
       <r>    -4.3837     0.0000    96.0000 </r>
       <r>    -4.2306     0.0000    96.0000 </r>
       <r>    -4.0774     0.0000    96.0000 </r>
       <r>    -3.9242     0.0000    96.0000 </r>
       <r>    -3.7710     0.0000    96.0000 </r>
       <r>    -3.6178     0.0000    96.0000 </r>
       <r>    -3.4646     0.0000    96.0000 </r>
       <r>    -3.3115     0.0000    96.0000 </r>
       <r>    -3.1583     0.0000    96.0000 </r>
       <r>    -3.0051     0.2851    96.0437 </r>
       <r>    -2.8519     5.6402    96.9077 </r>
       <r>    -2.6987     8.4276    98.1986 </r>
       <r>    -2.5455    12.2010   100.0677 </r>
       <r>    -2.3923     4.2150   100.7133 </r>
       <r>    -2.2392    25.2376   104.5793 </r>
       <r>    -2.0860    11.9870   106.4156 </r>
       <r>    -1.9328    26.5778   110.4869 </r>
       <r>    -1.7796    23.8692   114.1433 </r>
       <r>    -1.6264    20.3904   117.2668 </r>
       <r>    -1.4732    49.4444   124.8409 </r>
       <r>    -1.3201    47.3681   132.0970 </r>
       <r>    -1.1669    48.9940   139.6021 </r>
       <r>    -1.0137    57.2611   148.3736 </r>
       <r>    -0.8605    53.2034   156.5236 </r>
       <r>    -0.7073    31.9417   161.4165 </r>
       <r>    -0.5541    30.8622   166.1442 </r>
       <r>    -0.4009    67.9067   176.5464 </r>
       <r>    -0.2478    30.9001   181.2798 </r>
       <r>    -0.0946    18.9426   184.1816 </r>
       <r>     0.0586    13.5003   186.2496 </r>
       <r>     0.2118    17.8089   188.9777 </r>
       <r>     0.3650    21.3264   192.2445 </r>
       <r>     0.5182    16.4967   194.7716 </r>
       <r>     0.6713    25.1309   198.6213 </r>
       <r>     0.8245    26.9529   202.7500 </r>
       <r>     0.9777    26.8631   206.8651 </r>
       <r>     1.1309    51.9706   214.8262 </r>
       <r>     1.2841    49.1098   222.3490 </r>
       <r>     1.4373    43.3236   228.9855 </r>
       <r>     1.5905    48.9005   236.4763 </r>
       <r>     1.7436    36.5761   242.0792 </r>
       <r>     1.8968    29.8567   246.6528 </r>
       <r>     2.0500    32.2114   251.5871 </r>
       <r>     2.2032    33.4071   256.7046 </r>
       <r>     2.3564    13.9698   258.8445 </r>
       <r>     2.5096    14.9688   261.1375 </r>
       <r>     2.6627     9.2896   262.5605 </r>
       <r>     2.8159     5.2131   263.3591 </r>
       <r>     2.9691     6.6203   264.3732 </r>
       <r>     3.1223    14.0321   266.5227 </r>
       <r>     3.2755     9.4156   267.9650 </r>
       <r>     3.4287     4.8931   268.7146 </r>
       <r>     3.5819     4.4878   269.4020 </r>
       <r>     3.7350    11.4475   271.1556 </r>
       <r>     3.8882     4.9659   271.9163 </r>
       <r>     4.0414     4.3813   272.5875 </r>
       <r>     4.1946     5.5537   273.4382 </r>
       <r>     4.3478     7.9854   274.6615 </r>
       <r>     4.5010     8.6588   275.9879 </r>
       <r>     4.6542     3.1193   276.4657 </r>
       <r>     4.8073     9.9263   277.9862 </r>
       <r>     4.9605     9.0647   279.3748 </r>
       <r>     5.1137     3.7975   279.9565 </r>
       <r>     5.2669     0.9817   280.1069 </r>
       <r>     5.4201     4.5025   280.7966 </r>
       <r>     5.5733     7.4210   281.9334 </r>
       <r>     5.7264     6.3396   282.9045 </r>
       <r>     5.8796     7.7646   284.0940 </r>
       <r>     6.0328     7.1368   285.1872 </r>
       <r>     6.1860     6.5686   286.1934 </r>
       <r>     6.3392     9.5044   287.6493 </r>
       <r>     6.4924     0.6354   287.7467 </r>
       <r>     6.6456     2.0721   288.0641 </r>
       <r>     6.7987     5.3166   288.8785 </r>
       <r>     6.9519     4.3096   289.5387 </r>
       <r>     7.1051     6.4501   290.5267 </r>
       <r>     7.2583     5.5101   291.3708 </r>
       <r>     7.4115    12.7159   293.3187 </r>
       <r>     7.5647     5.8621   294.2167 </r>
       <r>     7.7178     8.2483   295.4802 </r>
       <r>     7.8710    11.3582   297.2201 </r>
       <r>     8.0242    21.7100   300.5457 </r>
       <r>     8.1774    13.3515   302.5910 </r>
       <r>     8.3306    16.8848   305.1775 </r>
       <r>     8.4838    18.7205   308.0452 </r>
       <r>     8.6370    26.4702   312.1000 </r>
       <r>     8.7901    26.2773   316.1253 </r>
       <r>     8.9433    21.3414   319.3944 </r>
       <r>     9.0965    23.8006   323.0403 </r>
       <r>     9.2497    14.5971   325.2764 </r>
       <r>     9.4029    11.9066   327.1003 </r>
       <r>     9.5561    20.8605   330.2958 </r>
       <r>     9.7092    30.9121   335.0311 </r>
       <r>     9.8624    30.0549   339.6350 </r>
       <r>    10.0156    19.4203   342.6099 </r>
       <r>    10.1688    22.5982   346.0716 </r>
       <r>    10.3220     9.7271   347.5616 </r>
       <r>    10.4752     2.8568   347.9992 </r>
       <r>    10.6284     0.0049   348.0000 </r>
       <r>    10.7815     0.0000   348.0000 </r>
       <r>    10.9347     0.0000   348.0000 </r>
       <r>    11.0879     0.0000   348.0000 </r>
       <r>    11.2411     0.0000   348.0000 </r>
       <r>    11.3943     0.0000   348.0000 </r>
       <r>    11.5475     0.0000   348.0000 </r>
       <r>    11.7006     0.0000   348.0000 </r>
       <r>    11.8538     0.0000   348.0000 </r>
       <r>    12.0070     0.0000   348.0000 </r>
       <r>    12.1602     0.0000   348.0000 </r>
       <r>    12.3134     0.0000   348.0000 </r>
       <r>    12.4666     0.0000   348.0000 </r>
      </set>
     </set>
    </array>
   </total>
  </dos>
 </calculation>
 <structure name="finalpos" >
  <crystal>
   <varray name="basis" >
    <v>       8.00000000       0.00000000       0.00000000 </v>
    <v>       0.00000000       8.00000000       0.00000000 </v>
    <v>       0.00000000       0.00000000      16.00000000 </v>
   </varray>
   <i name="volume">   1024.00000000 </i>
   <varray name="rec_basis" >
    <v>       0.12500000       0.00000000       0.00000000 </v>
    <v>       0.00000000       0.12500000       0.00000000 </v>
    <v>       0.00000000       0.00000000       0.06250000 </v>
   </varray>
  </crystal>
  <varray name="positions" >
   <v>       0.25000000       0.00000000       0.12500000 </v>
   <v>       0.25000000       0.00000000       0.37500000 </v>
   <v>       0.25000000       0.50000000       0.12500000 </v>
   <v>       0.25000000       0.50000000       0.37500000 </v>
   <v>       0.25000000       0.50000000       0.62500000 </v>
   <v>       0.25000000       0.50000000       0.87500000 </v>
   <v>       0.25000000       0.00000000       0.62500000 </v>
   <v>       0.25000000       0.00000000       0.87500000 </v>
   <v>       0.75000000       0.00000000       0.62500000 </v>
   <v>       0.75000000       0.00000000       0.87500000 </v>
   <v>       0.75000000       0.50000000       0.62500000 </v>
   <v>       0.75000000       0.50000000       0.87500000 </v>
   <v>       0.75000000       0.50000000       0.12500000 </v>
   <v>       0.75000000       0.50000000       0.37500000 </v>
   <v>       0.75000000       0.00000000       0.12500000 </v>
   <v>       0.75000000       0.00000000       0.37500000 </v>
   <v>       0.00000000       0.25000000       0.25000000 </v>
   <v>       0.00000000       0.25000000       0.50000000 </v>
   <v>       0.50000000       0.25000000       0.25000000 </v>
   <v>       0.50000000       0.25000000       0.50000000 </v>
   <v>       0.00000000       0.75000000       0.75000000 </v>
   <v>       0.00000000       0.75000000       0.00000000 </v>
   <v>       0.50000000       0.75000000       0.75000000 </v>
   <v>       0.50000000       0.75000000       0.00000000 </v>
   <v>       0.50000000       0.25000000       0.75000000 </v>
   <v>       0.50000000       0.25000000       0.00000000 </v>
   <v>       0.00000000       0.25000000       0.75000000 </v>
   <v>       0.00000000       0.25000000       0.00000000 </v>
   <v>       0.50000000       0.75000000       0.25000000 </v>
   <v>       0.50000000       0.75000000       0.50000000 </v>
   <v>       0.00000000       0.75000000       0.25000000 </v>
   <v>       0.00000000       0.75000000       0.50000000 </v>
   <v>       0.00000000       0.25000000       0.12500000 </v>
   <v>       0.00000000       0.25000000       0.37500000 </v>
   <v>       0.50000000       0.25000000       0.12500000 </v>
   <v>       0.50000000       0.25000000       0.37500000 </v>
   <v>       0.00000000       0.00000000       0.50000000 </v>
   <v>       0.25000000       0.75000000       0.50000000 </v>
   <v>       0.25000000       0.25000000       0.25000000 </v>
   <v>       0.25000000       0.25000000       0.50000000 </v>
   <v>       0.00000000       0.75000000       0.62500000 </v>
   <v>       0.00000000       0.75000000       0.87500000 </v>
   <v>       0.50000000       0.75000000       0.62500000 </v>
   <v>       0.50000000       0.75000000       0.87500000 </v>
   <v>       0.00000000       0.50000000       0.00000000 </v>
   <v>       0.25000000       0.25000000       0.00000000 </v>
   <v>       0.25000000       0.75000000       0.75000000 </v>
   <v>       0.25000000       0.75000000       0.00000000 </v>
   <v>       0.50000000       0.25000000       0.62500000 </v>
   <v>       0.50000000       0.25000000       0.87500000 </v>
   <v>       0.00000000       0.25000000       0.62500000 </v>
   <v>       0.00000000       0.25000000       0.87500000 </v>
   <v>       0.50000000       0.00000000       0.00000000 </v>
   <v>       0.75000000       0.75000000       0.00000000 </v>
   <v>       0.75000000       0.25000000       0.75000000 </v>
   <v>       0.75000000       0.25000000       0.00000000 </v>
   <v>       0.50000000       0.75000000       0.12500000 </v>
   <v>       0.50000000       0.75000000       0.37500000 </v>
   <v>       0.00000000       0.75000000       0.12500000 </v>
   <v>       0.00000000       0.75000000       0.37500000 </v>
   <v>       0.50000000       0.50000000       0.50000000 </v>
   <v>       0.75000000       0.25000000       0.50000000 </v>
   <v>       0.75000000       0.75000000       0.25000000 </v>
   <v>       0.75000000       0.75000000       0.50000000 </v>
  </varray>
 </structure>
</modeling>
