<?xml version="1.0" encoding="ISO-8859-1"?>
<modeling>
 <generator>
  <i name="program" type="string">vasp </i>
  <i name="version" type="string">5.3.5  </i>
  <i name="subversion" type="string">31Mar14 (build Jun 20 2014 13:15:13) complex                          parallel </i>
  <i name="platform" type="string">LinuxIFC </i>
  <i name="date" type="string">2025 12 16 </i>
  <i name="time" type="string">15:58:17 </i>
 </generator>
 <incar>
  <i type="string" name="PREC">accurate</i>
  <i type="int" name="IALGO">    68</i>
  <i type="logical" name="ADDGRID"> T  </i>
  <i type="int" name="NELM">   100</i>
  <i type="int" name="NELMIN">     4</i>
  <i type="int" name="IBRION">     2</i>
  <i name="EDIFF">      0.00000100</i>
  <i name="EDIFFG">     -0.02000000</i>
  <i type="int" name="NSW">    30</i>
  <i type="int" name="ISIF">     3</i>
  <i name="ENCUT">    600.00000000</i>
  <i type="logical" name="LREAL"> F  </i>
  <i type="int" name="ISMEAR">     0</i>
  <i name="SIGMA">      0.10000000</i>
  <i type="logical" name="LWAVE"> F  </i>
  <i type="logical" name="LCHARG"> F  </i>
  <i type="int" name="NELM">   100</i>
 </incar>
 <kpoints>
  <generation param="Auto">
   <i name="subdivisionlength">     20.00000000 </i>
   <v type="int" name="divisions">       7        7        2 </v>
   <v name="usershift">      0.00000000       0.00000000       0.00000000 </v>
   <v name="genvec1">      0.14285714       0.00000000       0.00000000 </v>
   <v name="genvec2">      0.00000000       0.14285714       0.00000000 </v>
   <v name="genvec3">      0.00000000       0.00000000       0.50000000 </v>
   <v name="shift">      0.00000000       0.00000000       0.00000000 </v>
  </generation>
  <varray name="kpointlist" >
   <v>       0.00000000       0.00000000       0.00000000 </v>
   <v>       0.14285714       0.00000000       0.00000000 </v>
   <v>       0.28571429       0.00000000       0.00000000 </v>
   <v>       0.42857143       0.00000000       0.00000000 </v>
   <v>       0.14285714       0.14285714       0.00000000 </v>
   <v>       0.28571429       0.14285714       0.00000000 </v>
   <v>       0.42857143       0.14285714       0.00000000 </v>
   <v>       0.28571429       0.28571429       0.00000000 </v>
   <v>       0.00000000       0.00000000       0.50000000 </v>
   <v>       0.14285714       0.00000000       0.50000000 </v>
   <v>       0.28571429       0.00000000       0.50000000 </v>
   <v>       0.42857143       0.00000000       0.50000000 </v>
   <v>       0.14285714       0.14285714       0.50000000 </v>
   <v>       0.28571429       0.14285714       0.50000000 </v>
   <v>       0.42857143       0.14285714       0.50000000 </v>
   <v>       0.28571429       0.28571429       0.50000000 </v>
  </varray>
  <varray name="weights" >
   <v>       0.01020408 </v>
   <v>       0.06122449 </v>
   <v>       0.06122449 </v>
   <v>       0.06122449 </v>
   <v>       0.06122449 </v>
   <v>       0.12244898 </v>
   <v>       0.06122449 </v>
   <v>       0.06122449 </v>
   <v>       0.01020408 </v>
   <v>       0.06122449 </v>
   <v>       0.06122449 </v>
   <v>       0.06122449 </v>
   <v>       0.06122449 </v>
   <v>       0.12244898 </v>
   <v>       0.06122449 </v>
   <v>       0.06122449 </v>
  </varray>
 </kpoints>
 <parameters>
  <separator name="general" >
   <i type="string" name="SYSTEM">unknown system</i>
   <i type="logical" name="LCOMPAT"> F  </i>
  </separator>
  <separator name="electronic" >
   <i type="string" name="PREC">accura</i>
   <i name="ENMAX">    600.00000000</i>
   <i name="ENAUG">    644.87300000</i>
   <i name="EDIFF">      0.00000100</i>
   <i type="int" name="IALGO">    68</i>
   <i type="int" name="IWAVPR">    11</i>
   <i type="int" name="NBANDS">    32</i>
   <i name="NELECT">     48.00000000</i>
   <i type="int" name="TURBO">     0</i>
   <i type="int" name="IRESTART">     0</i>
   <i type="int" name="NREBOOT">     0</i>
   <i type="int" name="NMIN">     0</i>
   <i name="EREF">      0.00000000</i>
   <separator name="electronic smearing" >
    <i type="int" name="ISMEAR">     0</i>
    <i name="SIGMA">      0.10000000</i>
    <i name="KSPACING">      0.50000000</i>
    <i type="logical" name="KGAMMA"> T  </i>
   </separator>
   <separator name="electronic projectors" >
    <i type="logical" name="LREAL"> F  </i>
    <v name="ROPT">      0.00000000      0.00000000      0.00000000      0.00000000</v>
    <i type="int" name="LMAXPAW">  -100</i>
    <i type="int" name="LMAXMIX">     2</i>
    <i type="logical" name="NLSPLINE"> F  </i>
   </separator>
   <separator name="electronic startup" >
    <i type="int" name="ISTART">     0</i>
    <i type="int" name="ICHARG">     2</i>
    <i type="int" name="INIWAV">     1</i>
   </separator>
   <separator name="electronic spin" >
    <i type="int" name="ISPIN">     1</i>
    <i type="logical" name="LNONCOLLINEAR"> F  </i>
    <v name="MAGMOM">      1.00000000      1.00000000      1.00000000      1.00000000      1.00000000      1.00000000      1.00000000      1.00000000      1.00000000      1.00000000      1.00000000      1.00000000</v>
    <i name="NUPDOWN">     -1.00000000</i>
    <i type="logical" name="LSORBIT"> F  </i>
    <v name="SAXIS">      0.00000000      0.00000000      1.00000000</v>
    <i type="logical" name="LSPIRAL"> F  </i>
    <v name="QSPIRAL">      0.00000000      0.00000000      0.00000000</v>
    <i type="logical" name="LZEROZ"> F  </i>
   </separator>
   <separator name="electronic exchange-correlation" >
    <i type="logical" name="LASPH"> F  </i>
    <i type="logical" name="LMETAGGA"> F  </i>
   </separator>
   <separator name="electronic convergence" >
    <i type="int" name="NELM">   100</i>
    <i type="int" name="NELMDL">     0</i>
    <i type="int" name="NELMIN">     4</i>
    <i name="ENINI">    600.00000000</i>
    <separator name="electronic convergence detail" >
     <i type="logical" name="LDIAG"> T  </i>
     <i type="logical" name="LSUBROT"> F  </i>
     <i name="WEIMIN">      0.00100000</i>
     <i name="EBREAK">      0.00000001</i>
     <i name="DEPER">      0.30000000</i>
     <i type="int" name="NRMM">     4</i>
     <i name="TIME">      0.40000000</i>
    </separator>
   </separator>
   <separator name="electronic mixer" >
    <i name="AMIX">      0.40000000</i>
    <i name="BMIX">      1.00000000</i>
    <i name="AMIN">      0.10000000</i>
    <i name="AMIX_MAG">      1.60000000</i>
    <i name="BMIX_MAG">      1.00000000</i>
    <separator name="electronic mixer details" >
     <i type="int" name="IMIX">     4</i>
     <i type="int" name="MAXMIX">   -45</i>
     <i name="WC">    100.00000000</i>
     <i type="int" name="INIMIX">     1</i>
     <i type="int" name="MIXPRE">     1</i>
     <i type="int" name="MREMOVE">     5</i>
    </separator>
   </separator>
   <separator name="electronic dipolcorrection" >
    <i type="logical" name="LDIPOL"> F  </i>
    <i type="logical" name="LMONO"> F  </i>
    <i type="int" name="IDIPOL">     0</i>
    <i name="EPSILON">      1.00000000</i>
    <v name="DIPOL">   -100.00000000   -100.00000000   -100.00000000</v>
    <i name="EFIELD">      0.00000000</i>
   </separator>
  </separator>
  <separator name="grids" >
   <i type="int" name="NGX">    28</i>
   <i type="int" name="NGY">    28</i>
   <i type="int" name="NGZ">   108</i>
   <i type="int" name="NGXF">    56</i>
   <i type="int" name="NGYF">    56</i>
   <i type="int" name="NGZF">   216</i>
   <i type="logical" name="ADDGRID"> T  </i>
  </separator>
  <separator name="ionic" >
   <i type="int" name="NSW">    30</i>
   <i type="int" name="IBRION">     2</i>
   <i type="int" name="ISIF">     3</i>
   <i name="PSTRESS">      0.00000000</i>
   <i name="EDIFFG">     -0.02000000</i>
   <i type="int" name="NFREE">     1</i>
   <i name="POTIM">      0.50000000</i>
   <i name="SMASS">     -3.00000000</i>
   <i name="SCALEE">      1.00000000</i>
  </separator>
  <separator name="ionic md" >
   <i name="TEBEG">      0.00010000</i>
   <i name="TEEND">      0.00010000</i>
   <i type="int" name="NBLOCK">     1</i>
   <i type="int" name="KBLOCK">    30</i>
   <i type="int" name="NPACO">   256</i>
   <i name="APACO">     16.00000000</i>
  </separator>
  <separator name="symmetry" >
   <i type="int" name="ISYM">     2</i>
   <i name="SYMPREC">      0.00001000</i>
  </separator>
  <separator name="dos" >
   <i type="logical" name="LORBIT"> F  </i>
   <v name="RWIGS">     -1.00000000     -1.00000000     -1.00000000     -1.00000000</v>
   <i type="int" name="NEDOS">   301</i>
   <i name="EMIN">     10.00000000</i>
   <i name="EMAX">    -10.00000000</i>
   <i name="EFERMI">      0.00000000</i>
  </separator>
  <separator name="writing" >
   <i type="int" name="NWRITE">     2</i>
   <i type="logical" name="LWAVE"> F  </i>
   <i type="logical" name="LCHARG"> F  </i>
   <i type="logical" name="LPARD"> F  </i>
   <i type="logical" name="LVTOT"> F  </i>
   <i type="logical" name="LVHAR"> F  </i>
   <i type="logical" name="LELF"> F  </i>
   <i type="logical" name="LOPTICS"> F  </i>
   <v name="STM">      0.00000000      0.00000000      0.00000000      0.00000000      0.00000000      0.00000000      0.00000000</v>
  </separator>
  <separator name="performance" >
   <i type="int" name="NPAR">     4</i>
   <i type="int" name="NSIM">     4</i>
   <i type="int" name="NBLK">    -1</i>
   <i type="logical" name="LPLANE"> T  </i>
   <i type="logical" name="LSCALAPACK"> T  </i>
   <i type="logical" name="LSCAAWARE"> F  </i>
   <i type="logical" name="LSCALU"> F  </i>
   <i type="logical" name="LASYNC"> F  </i>
   <i type="logical" name="LORBITALREAL"> F  </i>
  </separator>
  <separator name="miscellaneous" >
   <i type="int" name="IDIOT">     3</i>
   <i type="logical" name="LMUSIC"> F  </i>
   <v name="POMASS">     28.08500000     26.98100000     12.01100000     14.00100000</v>
   <v name="DARWINR">      0.00000000      0.00000000      0.00000000      0.00000000</v>
   <v name="DARWINV">      1.00000000      1.00000000      1.00000000      1.00000000</v>
   <i type="logical" name="LCORR"> T  </i>
  </separator>
  <i type="logical" name="GGA_COMPAT"> T  </i>
  <i type="logical" name="LBERRY"> F  </i>
  <i type="int" name="ICORELEVEL">     0</i>
  <i type="logical" name="LDAU"> F  </i>
  <i type="int" name="I_CONSTRAINED_M">     0</i>
  <separator name="electronic exchange-correlation" >
   <i type="string" name="GGA">--</i>
   <i type="int" name="VOSKOWN">     0</i>
   <i type="logical" name="LHFCALC"> F  </i>
   <i type="string" name="PRECFOCK"></i>
   <i type="logical" name="LSYMGRAD"> F  </i>
   <i type="logical" name="LHFONE"> F  </i>
   <i type="logical" name="LRHFCALC"> F  </i>
   <i type="logical" name="LTHOMAS"> F  </i>
   <i type="logical" name="LMODELHF"> F  </i>
   <i name="ENCUT4O">     -1.00000000</i>
   <i type="int" name="EXXOEP">     0</i>
   <i type="int" name="FOURORBIT">     0</i>
   <i name="AEXX">      0.00000000</i>
   <i name="HFALPHA">      0.00000000</i>
   <i name="MCALPHA">      0.00000000</i>
   <i name="ALDAX">      1.00000000</i>
   <i name="AGGAX">      1.00000000</i>
   <i name="ALDAC">      1.00000000</i>
   <i name="AGGAC">      1.00000000</i>
   <i type="int" name="NKREDX">     1</i>
   <i type="int" name="NKREDY">     1</i>
   <i type="int" name="NKREDZ">     1</i>
   <i type="logical" name="SHIFTRED"> F  </i>
   <i type="logical" name="ODDONLY"> F  </i>
   <i type="logical" name="EVENONLY"> F  </i>
   <i type="int" name="LMAXFOCK">     0</i>
   <i type="int" name="NMAXFOCKAE">     0</i>
   <i type="logical" name="LFOCKAEDFT"> F  </i>
   <i name="HFSCREEN">      0.00000000</i>
   <i name="HFSCREENC">      0.00000000</i>
   <i type="int" name="NBANDSGWLOW">     0</i>
  </separator>
  <separator name="vdW DFT" >
   <i type="logical" name="LUSE_VDW"> F  </i>
   <i name="Zab_VDW">     -0.84910000</i>
   <i name="PARAM1">      0.12340000</i>
   <i name="PARAM2">      1.00000000</i>
   <i name="PARAM3">      0.00000000</i>
  </separator>
  <separator name="model GW" >
   <i type="int" name="MODEL_GW">     0</i>
   <i name="MODEL_EPS0">      6.17514417</i>
   <i name="MODEL_ALPHA">      1.00000000</i>
  </separator>
  <separator name="linear response parameters" >
   <i type="logical" name="LEPSILON"> F  </i>
   <i type="logical" name="LRPA"> F  </i>
   <i type="logical" name="LNABLA"> F  </i>
   <i type="logical" name="LVEL"> F  </i>
   <i type="int" name="KINTER">     0</i>
   <i name="CSHIFT">      0.10000000</i>
   <i name="OMEGAMAX">     -1.00000000</i>
   <i name="DEG_THRESHOLD">      0.00200000</i>
  </separator>
  <separator name="orbital magnetization" >
   <i type="logical" name="NUCIND"> F  </i>
   <v name="MAGPOS">      0.00000000      0.00000000      0.00000000</v>
   <i type="logical" name="LNICSALL"> T  </i>
   <i type="logical" name="ORBITALMAG"> F  </i>
   <i type="logical" name="LMAGBLOCH"> F  </i>
   <i type="logical" name="LCHIMAG"> F  </i>
   <i type="logical" name="LGAUGE"> T  </i>
   <i type="int" name="MAGATOM">     0</i>
   <v name="MAGDIPOL">      0.00000000      0.00000000      0.00000000</v>
   <v name="AVECCONST">      0.00000000      0.00000000      0.00000000</v>
  </separator>
  <separator name="response functions" >
   <i type="logical" name="LADDER"> F  </i>
   <i type="logical" name="LFXC"> F  </i>
   <i type="logical" name="LHARTREE"> T  </i>
   <i type="int" name="IBSE">     0</i>
   <i type="logical" name="LTCTE"> F  </i>
   <i type="logical" name="LTETE"> F  </i>
   <i type="logical" name="LTRIPLET"> F  </i>
   <i type="logical" name="LFXCEPS"> F  </i>
   <i type="logical" name="LFXHEG"> F  </i>
   <i type="logical" name="L2ORDER"> F  </i>
   <i type="logical" name="LUSEW"> F  </i>
   <i name="ENCUTGW">     -2.00000000</i>
   <i name="ENCUTGWSOFT">     -2.00000000</i>
   <i name="ENCUTLF">     -1.00000000</i>
   <i type="int" name="LMAXMP2">    -1</i>
   <i name="SCISSOR">      0.00000000</i>
   <i type="int" name="NOMEGA">     0</i>
   <i type="int" name="NOMEGAR">     0</i>
   <i type="int" name="NBANDSGW">    -1</i>
   <i type="int" name="NBANDSO">    -1</i>
   <i type="int" name="NBANDSV">    -1</i>
   <i type="int" name="NELM">   100</i>
   <i type="int" name="DIM">     3</i>
   <i type="int" name="ANTIRES">     0</i>
   <i name="OMEGAMAX">    -30.00000000</i>
   <i name="OMEGAMIN">    -30.00000000</i>
   <i name="OMEGATL">   -200.00000000</i>
   <i type="int" name="OMEGAGRID">     0</i>
   <i name="CSHIFT">     -0.10000000</i>
   <i type="logical" name="SELFENERGY"> F  </i>
   <i type="logical" name="LSPECTRAL"> F  </i>
   <i type="logical" name="ODDONLYGW"> F  </i>
   <i type="logical" name="EVENONLYGW"> F  </i>
   <i type="int" name="NKREDLFX">     1</i>
   <i type="int" name="NKREDLFY">     1</i>
   <i type="int" name="NKREDLFZ">     1</i>
   <i type="int" name="MAXMEM">  1800</i>
   <i type="int" name="TELESCOPE">     0</i>
   <i type="int" name="TAUPAR">     1</i>
  </separator>
  <separator name="External order field" >
   <i name="OFIELD_KAPPA">      0.00000000</i>
   <v name="OFIELD_K">      0.00000000      0.00000000      0.00000000</v>
   <i name="OFIELD_Q6_NEAR">      0.00000000</i>
   <i name="OFIELD_Q6_FAR">      0.00000000</i>
   <i name="OFIELD_A">      0.00000000</i>
  </separator>
 </parameters>
 <atominfo>
  <atoms>      12 </atoms>
  <types>       4 </types>
  <array name="atoms" >
   <dimension dim="1">ion</dimension>
   <field type="string">element</field>
   <field type="int">atomtype</field>
   <set>
    <rc><c>Si</c><c>   1</c></rc>
    <rc><c>Si</c><c>   1</c></rc>
    <rc><c>Si</c><c>   1</c></rc>
    <rc><c>Al</c><c>   2</c></rc>
    <rc><c>Al</c><c>   2</c></rc>
    <rc><c>Al</c><c>   2</c></rc>
    <rc><c>C </c><c>   3</c></rc>
    <rc><c>C </c><c>   3</c></rc>
    <rc><c>C </c><c>   3</c></rc>
    <rc><c>N </c><c>   4</c></rc>
    <rc><c>N </c><c>   4</c></rc>
    <rc><c>N </c><c>   4</c></rc>
   </set>
  </array>
  <array name="atomtypes" >
   <dimension dim="1">type</dimension>
   <field type="int">atomspertype</field>
   <field type="string">element</field>
   <field>mass</field>
   <field>valence</field>
   <field type="string">pseudopotential</field>
   <set>
    <rc><c>   3</c><c>Si</c><c>     28.08500000</c><c>      4.00000000</c><c>  PAW_PBE Si 05Jan2001                  </c></rc>
    <rc><c>   3</c><c>Al</c><c>     26.98100000</c><c>      3.00000000</c><c>  PAW_PBE Al 04Jan2001                  </c></rc>
    <rc><c>   3</c><c>C </c><c>     12.01100000</c><c>      4.00000000</c><c>  PAW_PBE C 08Apr2002                   </c></rc>
    <rc><c>   3</c><c>N </c><c>     14.00100000</c><c>      5.00000000</c><c>  PAW_PBE N_s 07Sep2000                 </c></rc>
   </set>
  </array>
 </atominfo>
 <structure name="initialpos" >
  <crystal>
   <varray name="basis" >
    <v>       3.27528303       0.00000000       0.00000000 </v>
    <v>      -1.63764152       2.83647831       0.00000000 </v>
    <v>       0.00000000       0.00000000      13.29378941 </v>
   </varray>
   <i name="volume">    123.50288337 </i>
   <varray name="rec_basis" >
    <v>       0.30531713       0.17627492       0.00000000 </v>
    <v>       0.00000000       0.35254985       0.00000000 </v>
    <v>       0.00000000       0.00000000       0.07522310 </v>
   </varray>
  </crystal>
  <varray name="positions" >
   <v>       0.33333333       0.66666667       0.65003094 </v>
   <v>       0.66666667       0.33333333       0.45901260 </v>
   <v>       0.66666667       0.33333333       0.82123405 </v>
   <v>       0.33333333       0.66666667       0.98643899 </v>
   <v>       0.33333333       0.66666667       0.29572788 </v>
   <v>       0.66666667       0.33333333       0.14175516 </v>
   <v>       0.33333333       0.66666667       0.50579700 </v>
   <v>       0.66666667       0.33333333       0.31787394 </v>
   <v>       0.66666667       0.33333333       0.96212872 </v>
   <v>       0.33333333       0.66666667       0.14074399 </v>
   <v>       0.33333333       0.66666667       0.79519268 </v>
   <v>       0.66666667       0.33333333       0.67406405 </v>
  </varray>
 </structure>
 <calculation>
  <scstep>
   <time name="dav">    0.31    0.31</time>
   <time name="total">    0.36    0.37</time>
   <energy>
    <i name="alphaZ">     49.53799441 </i>
    <i name="ewald">  -1643.94191075 </i>
    <i name="hartreedc">   -353.89400077 </i>
    <i name="XCdc">     -3.42602986 </i>
    <i name="pawpsdc">   1403.35320608 </i>
    <i name="pawaedc">  -1259.97391932 </i>
    <i name="eentropy">     -0.01161086 </i>
    <i name="bandstr">    361.08801915 </i>
    <i name="atom">   1704.90733868 </i>
    <i name="e_fr_energy">    257.63908675 </i>
    <i name="e_wo_entrp">    257.65069762 </i>
    <i name="e_0_energy">    257.64489219 </i>
   </energy>
  </scstep>
  <scstep>
   <time name="dav">    0.34    0.34</time>
   <time name="total">    0.34    0.35</time>
   <energy>
    <i name="e_fr_energy">    -73.63582960 </i>
    <i name="e_wo_entrp">    -73.63582960 </i>
    <i name="e_0_energy">    -73.63582960 </i>
   </energy>
  </scstep>
  <scstep>
   <time name="dav">    0.36    0.36</time>
   <time name="total">    0.36    0.37</time>
   <energy>
    <i name="e_fr_energy">    -97.41149345 </i>
    <i name="e_wo_entrp">    -97.41149345 </i>
    <i name="e_0_energy">    -97.41149345 </i>
   </energy>
  </scstep>
  <scstep>
   <time name="dav">    0.35    0.35</time>
   <time name="total">    0.36    0.37</time>
   <energy>
    <i name="e_fr_energy">    -98.02780249 </i>
    <i name="e_wo_entrp">    -98.02780249 </i>
    <i name="e_0_energy">    -98.02780249 </i>
   </energy>
  </scstep>
  <scstep>
   <time name="dav">    0.35    0.35</time>
   <time name="total">    0.42    0.44</time>
   <energy>
    <i name="e_fr_energy">    -98.04821092 </i>
    <i name="e_wo_entrp">    -98.04821092 </i>
    <i name="e_0_energy">    -98.04821092 </i>
   </energy>
  </scstep>
  <scstep>
   <time name="diag">    0.07    0.07</time>
   <time name="diis">    0.19    0.19</time>
   <time name="orth">    0.01    0.01</time>
   <time name="total">    0.40    0.41</time>
   <energy>
    <i name="e_fr_energy">    -85.14353030 </i>
    <i name="e_wo_entrp">    -85.14353030 </i>
    <i name="e_0_energy">    -85.14353030 </i>
   </energy>
  </scstep>
  <scstep>
   <time name="diag">    0.09    0.09</time>
   <time name="diis">    0.21    0.21</time>
   <time name="orth">    0.01    0.01</time>
   <time name="total">    0.43    0.45</time>
   <energy>
    <i name="e_fr_energy">    -85.02226032 </i>
    <i name="e_wo_entrp">    -85.02226032 </i>
    <i name="e_0_energy">    -85.02226032 </i>
   </energy>
  </scstep>
  <scstep>
   <time name="diag">    0.07    0.07</time>
   <time name="diis">    0.19    0.19</time>
   <time name="orth">    0.01    0.01</time>
   <time name="total">    0.40    0.41</time>
   <energy>
    <i name="e_fr_energy">    -85.60362628 </i>
    <i name="e_wo_entrp">    -85.60362628 </i>
    <i name="e_0_energy">    -85.60362628 </i>
   </energy>
  </scstep>
  <scstep>
   <time name="diag">    0.07    0.07</time>
   <time name="diis">    0.19    0.19</time>
   <time name="orth">    0.01    0.01</time>
   <time name="total">    0.40    0.41</time>
   <energy>
    <i name="e_fr_energy">    -84.91959524 </i>
    <i name="e_wo_entrp">    -84.91959524 </i>
    <i name="e_0_energy">    -84.91959524 </i>
   </energy>
  </scstep>
  <scstep>
   <time name="diag">    0.07    0.07</time>
   <time name="diis">    0.21    0.21</time>
   <time name="orth">    0.01    0.01</time>
   <time name="total">    0.41    0.42</time>
   <energy>
    <i name="e_fr_energy">    -84.92308656 </i>
    <i name="e_wo_entrp">    -84.92308656 </i>
    <i name="e_0_energy">    -84.92308656 </i>
   </energy>
  </scstep>
  <scstep>
   <time name="diag">    0.08    0.08</time>
   <time name="diis">    0.20    0.20</time>
   <time name="orth">    0.01    0.01</time>
   <time name="total">    0.42    0.43</time>
   <energy>
    <i name="e_fr_energy">    -84.92615693 </i>
    <i name="e_wo_entrp">    -84.92615693 </i>
    <i name="e_0_energy">    -84.92615693 </i>
   </energy>
  </scstep>
  <scstep>
   <time name="diag">    0.07    0.07</time>
   <time name="diis">    0.20    0.20</time>
   <time name="orth">    0.01    0.01</time>
   <time name="total">    0.40    0.41</time>
   <energy>
    <i name="e_fr_energy">    -84.92628189 </i>
    <i name="e_wo_entrp">    -84.92628189 </i>
    <i name="e_0_energy">    -84.92628189 </i>
   </energy>
  </scstep>
  <scstep>
   <time name="diag">    0.07    0.07</time>
   <time name="diis">    0.20    0.20</time>
   <time name="orth">    0.01    0.01</time>
   <time name="total">    0.40    0.41</time>
   <energy>
    <i name="e_fr_energy">    -84.92540122 </i>
    <i name="e_wo_entrp">    -84.92540122 </i>
    <i name="e_0_energy">    -84.92540122 </i>
   </energy>
  </scstep>
  <scstep>
   <time name="diag">    0.07    0.07</time>
   <time name="diis">    0.21    0.21</time>
   <time name="orth">    0.01    0.01</time>
   <time name="total">    0.41    0.42</time>
   <energy>
    <i name="e_fr_energy">    -84.92543321 </i>
    <i name="e_wo_entrp">    -84.92543321 </i>
    <i name="e_0_energy">    -84.92543321 </i>
   </energy>
  </scstep>
  <scstep>
   <time name="diag">    0.07    0.07</time>
   <time name="diis">    0.20    0.20</time>
   <time name="orth">    0.01    0.01</time>
   <time name="total">    0.41    0.42</time>
   <energy>
    <i name="e_fr_energy">    -84.92543445 </i>
    <i name="e_wo_entrp">    -84.92543445 </i>
    <i name="e_0_energy">    -84.92543445 </i>
   </energy>
  </scstep>
  <scstep>
   <time name="diag">    0.07    0.07</time>
   <time name="diis">    0.13    0.13</time>
   <time name="orth">    0.01    0.01</time>
   <time name="total">    0.26    0.28</time>
   <energy>
    <i name="alphaZ">     49.53799441 </i>
    <i name="ewald">  -1643.94191075 </i>
    <i name="hartreedc">   -429.92410200 </i>
    <i name="XCdc">      3.52332018 </i>
    <i name="pawpsdc">   7475.40854500 </i>
    <i name="pawaedc">  -7334.91105818 </i>
    <i name="eentropy">      0.00000000 </i>
    <i name="bandstr">     90.47443794 </i>
    <i name="atom">   1704.90733868 </i>
    <i name="e_fr_energy">    -84.92543473 </i>
    <i name="e_wo_entrp">    -84.92543473 </i>
    <i name="e_0_energy">    -84.92543473 </i>
   </energy>
  </scstep>
  <structure>
   <crystal>
    <varray name="basis" >
     <v>       3.27528303       0.00000000       0.00000000 </v>
     <v>      -1.63764152       2.83647831       0.00000000 </v>
     <v>       0.00000000       0.00000000      13.29378941 </v>
    </varray>
    <i name="volume">    123.50288337 </i>
    <varray name="rec_basis" >
     <v>       0.30531713       0.17627492       0.00000000 </v>
     <v>       0.00000000       0.35254985       0.00000000 </v>
     <v>       0.00000000       0.00000000       0.07522310 </v>
    </varray>
   </crystal>
   <varray name="positions" >
    <v>       0.33333333       0.66666667       0.65003094 </v>
    <v>       0.66666667       0.33333333       0.45901260 </v>
    <v>       0.66666667       0.33333333       0.82123405 </v>
    <v>       0.33333333       0.66666667       0.98643899 </v>
    <v>       0.33333333       0.66666667       0.29572788 </v>
    <v>       0.66666667       0.33333333       0.14175516 </v>
    <v>       0.33333333       0.66666667       0.50579700 </v>
    <v>       0.66666667       0.33333333       0.31787394 </v>
    <v>       0.66666667       0.33333333       0.96212872 </v>
    <v>       0.33333333       0.66666667       0.14074399 </v>
    <v>       0.33333333       0.66666667       0.79519268 </v>
    <v>       0.66666667       0.33333333       0.67406405 </v>
   </varray>
  </structure>
  <varray name="forces" >
   <v>       0.00000000       0.00000000       0.00096690 </v>
   <v>       0.00000000       0.00000000      -0.00859070 </v>
   <v>       0.00000000       0.00000000       0.01703516 </v>
   <v>       0.00000000       0.00000000      -0.00085663 </v>
   <v>       0.00000000       0.00000000      -0.00640920 </v>
   <v>       0.00000000       0.00000000      -0.00120990 </v>
   <v>       0.00000000       0.00000000       0.00338284 </v>
   <v>       0.00000000       0.00000000       0.00099583 </v>
   <v>       0.00000000       0.00000000      -0.00070049 </v>
   <v>       0.00000000       0.00000000       0.00169419 </v>
   <v>       0.00000000       0.00000000      -0.00666068 </v>
   <v>       0.00000000       0.00000000       0.00035269 </v>
  </varray>
  <varray name="stress" >
   <v>       0.46124677       0.00000000       0.00000000 </v>
   <v>       0.00000000       0.46124677       0.00000000 </v>
   <v>       0.00000000       0.00000000      -0.29117635 </v>
  </varray>
  <energy>
   <i name="e_fr_energy">    -84.92543473 </i>
   <i name="e_wo_entrp">    -84.92543473 </i>
   <i name="e_0_energy">      0.00000000 </i>
  </energy>
  <time name="totalsc">    7.46    7.71</time>
  <eigenvalues>
   <array>
    <dimension dim="1">band</dimension>
    <dimension dim="2">kpoint</dimension>
    <dimension dim="3">spin</dimension>
    <field>eigene</field>
    <field>occ</field>
    <set>
     <set comment="spin 1">
      <set comment="kpoint 1">
       <r>  -10.2840    1.0000 </r>
       <r>   -8.1618    1.0000 </r>
       <r>   -7.1718    1.0000 </r>
       <r>   -5.3199    1.0000 </r>
       <r>   -3.7079    1.0000 </r>
       <r>   -2.7853    1.0000 </r>
       <r>    0.5955    1.0000 </r>
       <r>    2.3088    1.0000 </r>
       <r>    3.0541    1.0000 </r>
       <r>    3.3974    1.0000 </r>
       <r>    3.3974    1.0000 </r>
       <r>    4.8787    1.0000 </r>
       <r>    4.8787    1.0000 </r>
       <r>    5.2738    1.0000 </r>
       <r>    5.2949    1.0000 </r>
       <r>    5.2949    1.0000 </r>
       <r>    5.9574    1.0000 </r>
       <r>    7.2138    1.0000 </r>
       <r>    7.2138    1.0000 </r>
       <r>    7.8120    1.0000 </r>
       <r>    8.2701    1.0000 </r>
       <r>    8.2701    1.0000 </r>
       <r>    8.3387    1.0000 </r>
       <r>    8.3387    1.0000 </r>
       <r>   11.0555    0.0000 </r>
       <r>   11.2643    0.0000 </r>
       <r>   12.4394    0.0000 </r>
       <r>   12.8819    0.0000 </r>
       <r>   13.1650    0.0000 </r>
       <r>   13.1677    0.0000 </r>
       <r>   14.7976    0.0000 </r>
       <r>   14.9788    0.0000 </r>
      </set>
      <set comment="kpoint 2">
       <r>  -10.0289    1.0000 </r>
       <r>   -7.9685    1.0000 </r>
       <r>   -6.9905    1.0000 </r>
       <r>   -5.0614    1.0000 </r>
       <r>   -3.4693    1.0000 </r>
       <r>   -2.6753    1.0000 </r>
       <r>    0.8589    1.0000 </r>
       <r>    1.2051    1.0000 </r>
       <r>    2.8215    1.0000 </r>
       <r>    3.0555    1.0000 </r>
       <r>    3.3801    1.0000 </r>
       <r>    3.9477    1.0000 </r>
       <r>    4.5119    1.0000 </r>
       <r>    4.6939    1.0000 </r>
       <r>    5.1750    1.0000 </r>
       <r>    5.3117    1.0000 </r>
       <r>    6.0968    1.0000 </r>
       <r>    6.6030    1.0000 </r>
       <r>    6.8598    1.0000 </r>
       <r>    7.4116    1.0000 </r>
       <r>    7.4893    1.0000 </r>
       <r>    7.6566    1.0000 </r>
       <r>    8.0802    1.0000 </r>
       <r>    8.2436    1.0000 </r>
       <r>   11.6184    0.0000 </r>
       <r>   11.7977    0.0000 </r>
       <r>   12.2887    0.0000 </r>
       <r>   13.1675    0.0000 </r>
       <r>   13.6487    0.0000 </r>
       <r>   14.2145    0.0000 </r>
       <r>   14.7458    0.0000 </r>
       <r>   15.2473    0.0000 </r>
      </set>
      <set comment="kpoint 3">
       <r>   -9.3118    1.0000 </r>
       <r>   -7.4763    1.0000 </r>
       <r>   -6.6290    1.0000 </r>
       <r>   -4.3469    1.0000 </r>
       <r>   -2.9312    1.0000 </r>
       <r>   -2.4615    1.0000 </r>
       <r>   -0.1035    1.0000 </r>
       <r>    1.3398    1.0000 </r>
       <r>    1.6731    1.0000 </r>
       <r>    2.0803    1.0000 </r>
       <r>    2.4524    1.0000 </r>
       <r>    3.1050    1.0000 </r>
       <r>    3.5569    1.0000 </r>
       <r>    4.3220    1.0000 </r>
       <r>    4.6733    1.0000 </r>
       <r>    4.8333    1.0000 </r>
       <r>    5.2058    1.0000 </r>
       <r>    5.5406    1.0000 </r>
       <r>    6.2605    1.0000 </r>
       <r>    6.6222    1.0000 </r>
       <r>    6.8927    1.0000 </r>
       <r>    7.2736    1.0000 </r>
       <r>    7.6637    1.0000 </r>
       <r>    7.9914    1.0000 </r>
       <r>   11.0111    0.0000 </r>
       <r>   11.7752    0.0000 </r>
       <r>   12.3162    0.0000 </r>
       <r>   12.8987    0.0000 </r>
       <r>   13.7564    0.0000 </r>
       <r>   14.0592    0.0000 </r>
       <r>   14.4672    0.0000 </r>
       <r>   15.1109    0.0000 </r>
      </set>
      <set comment="kpoint 4">
       <r>   -8.3837    1.0000 </r>
       <r>   -6.9981    1.0000 </r>
       <r>   -6.6816    1.0000 </r>
       <r>   -3.4486    1.0000 </r>
       <r>   -2.6854    1.0000 </r>
       <r>   -2.1389    1.0000 </r>
       <r>   -0.5261    1.0000 </r>
       <r>    0.1120    1.0000 </r>
       <r>    0.9845    1.0000 </r>
       <r>    1.7007    1.0000 </r>
       <r>    2.0632    1.0000 </r>
       <r>    2.2913    1.0000 </r>
       <r>    2.8342    1.0000 </r>
       <r>    3.9758    1.0000 </r>
       <r>    4.0574    1.0000 </r>
       <r>    4.5510    1.0000 </r>
       <r>    4.9474    1.0000 </r>
       <r>    5.2970    1.0000 </r>
       <r>    5.5645    1.0000 </r>
       <r>    5.8820    1.0000 </r>
       <r>    6.5677    1.0000 </r>
       <r>    7.1540    1.0000 </r>
       <r>    7.3581    1.0000 </r>
       <r>    7.7825    1.0000 </r>
       <r>   10.6106    0.0000 </r>
       <r>   11.3856    0.0000 </r>
       <r>   11.6052    0.0000 </r>
       <r>   12.3502    0.0000 </r>
       <r>   13.0247    0.0000 </r>
       <r>   14.0021    0.0000 </r>
       <r>   14.7921    0.0000 </r>
       <r>   15.3343    0.0000 </r>
      </set>
      <set comment="kpoint 5">
       <r>   -9.5403    1.0000 </r>
       <r>   -7.6235    1.0000 </r>
       <r>   -6.7129    1.0000 </r>
       <r>   -4.5720    1.0000 </r>
       <r>   -3.0647    1.0000 </r>
       <r>   -2.5199    1.0000 </r>
       <r>    0.2653    1.0000 </r>
       <r>    1.3456    1.0000 </r>
       <r>    1.8485    1.0000 </r>
       <r>    2.2977    1.0000 </r>
       <r>    2.6076    1.0000 </r>
       <r>    3.6601    1.0000 </r>
       <r>    4.0324    1.0000 </r>
       <r>    4.1248    1.0000 </r>
       <r>    4.5936    1.0000 </r>
       <r>    4.8605    1.0000 </r>
       <r>    5.7033    1.0000 </r>
       <r>    5.7094    1.0000 </r>
       <r>    6.3161    1.0000 </r>
       <r>    6.9209    1.0000 </r>
       <r>    7.0112    1.0000 </r>
       <r>    7.3088    1.0000 </r>
       <r>    7.6768    1.0000 </r>
       <r>    7.8461    1.0000 </r>
       <r>   11.8445    0.0000 </r>
       <r>   12.1430    0.0000 </r>
       <r>   12.9642    0.0000 </r>
       <r>   13.2885    0.0000 </r>
       <r>   13.3724    0.0000 </r>
       <r>   14.0752    0.0000 </r>
       <r>   14.1128    0.0000 </r>
       <r>   15.0932    0.0000 </r>
      </set>
      <set comment="kpoint 6">
       <r>   -8.6753    1.0000 </r>
       <r>   -7.1211    1.0000 </r>
       <r>   -6.5695    1.0000 </r>
       <r>   -3.7280    1.0000 </r>
       <r>   -2.7043    1.0000 </r>
       <r>   -2.1702    1.0000 </r>
       <r>   -0.2843    1.0000 </r>
       <r>    0.5411    1.0000 </r>
       <r>    1.2965    1.0000 </r>
       <r>    1.5867    1.0000 </r>
       <r>    2.1618    1.0000 </r>
       <r>    2.6404    1.0000 </r>
       <r>    2.9761    1.0000 </r>
       <r>    3.4276    1.0000 </r>
       <r>    3.8719    1.0000 </r>
       <r>    4.6320    1.0000 </r>
       <r>    5.1006    1.0000 </r>
       <r>    5.4627    1.0000 </r>
       <r>    5.5892    1.0000 </r>
       <r>    5.9348    1.0000 </r>
       <r>    6.4475    1.0000 </r>
       <r>    7.0194    1.0000 </r>
       <r>    7.3420    1.0000 </r>
       <r>    7.5773    1.0000 </r>
       <r>   11.5889    0.0000 </r>
       <r>   12.3600    0.0000 </r>
       <r>   12.7987    0.0000 </r>
       <r>   13.0444    0.0000 </r>
       <r>   13.5660    0.0000 </r>
       <r>   14.0800    0.0000 </r>
       <r>   14.4448    0.0000 </r>
       <r>   15.0281    0.0000 </r>
      </set>
      <set comment="kpoint 7">
       <r>   -7.9919    1.0000 </r>
       <r>   -6.8698    1.0000 </r>
       <r>   -6.8393    1.0000 </r>
       <r>   -3.0618    1.0000 </r>
       <r>   -2.5054    1.0000 </r>
       <r>   -2.1261    1.0000 </r>
       <r>   -0.4149    1.0000 </r>
       <r>    0.0910    1.0000 </r>
       <r>    0.8601    1.0000 </r>
       <r>    0.9909    1.0000 </r>
       <r>    1.9162    1.0000 </r>
       <r>    2.1902    1.0000 </r>
       <r>    3.2110    1.0000 </r>
       <r>    3.2818    1.0000 </r>
       <r>    3.5838    1.0000 </r>
       <r>    3.9905    1.0000 </r>
       <r>    4.7371    1.0000 </r>
       <r>    4.9426    1.0000 </r>
       <r>    5.5918    1.0000 </r>
       <r>    5.9089    1.0000 </r>
       <r>    6.3783    1.0000 </r>
       <r>    6.8553    1.0000 </r>
       <r>    7.0968    1.0000 </r>
       <r>    7.4401    1.0000 </r>
       <r>   11.4698    0.0000 </r>
       <r>   12.0491    0.0000 </r>
       <r>   12.4062    0.0000 </r>
       <r>   12.9536    0.0000 </r>
       <r>   13.3162    0.0000 </r>
       <r>   13.8835    0.0000 </r>
       <r>   14.9777    0.0000 </r>
       <r>   15.1247    0.0000 </r>
      </set>
      <set comment="kpoint 8">
       <r>   -7.8163    1.0000 </r>
       <r>   -6.9139    1.0000 </r>
       <r>   -6.8049    1.0000 </r>
       <r>   -2.9048    1.0000 </r>
       <r>   -2.3823    1.0000 </r>
       <r>   -2.0582    1.0000 </r>
       <r>   -0.0893    1.0000 </r>
       <r>    0.0683    1.0000 </r>
       <r>    0.3970    1.0000 </r>
       <r>    1.1221    1.0000 </r>
       <r>    2.1004    1.0000 </r>
       <r>    2.2938    1.0000 </r>
       <r>    2.5843    1.0000 </r>
       <r>    2.7847    1.0000 </r>
       <r>    3.4951    1.0000 </r>
       <r>    3.7681    1.0000 </r>
       <r>    4.4134    1.0000 </r>
       <r>    4.8299    1.0000 </r>
       <r>    5.1105    1.0000 </r>
       <r>    6.0345    1.0000 </r>
       <r>    6.3458    1.0000 </r>
       <r>    6.5357    1.0000 </r>
       <r>    7.1211    1.0000 </r>
       <r>    7.3652    1.0000 </r>
       <r>   11.9555    0.0000 </r>
       <r>   13.0603    0.0000 </r>
       <r>   13.5268    0.0000 </r>
       <r>   13.7835    0.0000 </r>
       <r>   13.8454    0.0000 </r>
       <r>   14.5181    0.0000 </r>
       <r>   14.9389    0.0000 </r>
       <r>   15.1748    0.0000 </r>
      </set>
      <set comment="kpoint 9">
       <r>  -10.2839    1.0000 </r>
       <r>   -8.1657    1.0000 </r>
       <r>   -7.1577    1.0000 </r>
       <r>   -5.3748    1.0000 </r>
       <r>   -3.4077    1.0000 </r>
       <r>   -3.1000    1.0000 </r>
       <r>    1.0569    1.0000 </r>
       <r>    1.5310    1.0000 </r>
       <r>    3.3975    1.0000 </r>
       <r>    3.3975    1.0000 </r>
       <r>    3.7312    1.0000 </r>
       <r>    4.5912    1.0000 </r>
       <r>    4.8779    1.0000 </r>
       <r>    4.8779    1.0000 </r>
       <r>    5.2960    1.0000 </r>
       <r>    5.2960    1.0000 </r>
       <r>    6.7974    1.0000 </r>
       <r>    7.2126    1.0000 </r>
       <r>    7.2126    1.0000 </r>
       <r>    7.2544    1.0000 </r>
       <r>    8.2649    1.0000 </r>
       <r>    8.2649    1.0000 </r>
       <r>    8.3450    1.0000 </r>
       <r>    8.3450    1.0000 </r>
       <r>   11.2493    0.0000 </r>
       <r>   11.4049    0.0000 </r>
       <r>   12.1081    0.0000 </r>
       <r>   13.0177    0.0000 </r>
       <r>   13.1655    0.0000 </r>
       <r>   13.1820    0.0000 </r>
       <r>   14.6183    0.0000 </r>
       <r>   15.0431    0.0000 </r>
      </set>
      <set comment="kpoint 10">
       <r>  -10.0289    1.0000 </r>
       <r>   -7.9716    1.0000 </r>
       <r>   -6.9798    1.0000 </r>
       <r>   -5.1046    1.0000 </r>
       <r>   -3.2490    1.0000 </r>
       <r>   -2.8906    1.0000 </r>
       <r>    0.7420    1.0000 </r>
       <r>    1.6897    1.0000 </r>
       <r>    2.3006    1.0000 </r>
       <r>    3.0556    1.0000 </r>
       <r>    3.3886    1.0000 </r>
       <r>    3.9524    1.0000 </r>
       <r>    4.6920    1.0000 </r>
       <r>    4.7157    1.0000 </r>
       <r>    5.1784    1.0000 </r>
       <r>    5.4419    1.0000 </r>
       <r>    6.0297    1.0000 </r>
       <r>    6.5190    1.0000 </r>
       <r>    6.8538    1.0000 </r>
       <r>    7.2900    1.0000 </r>
       <r>    7.4910    1.0000 </r>
       <r>    7.7513    1.0000 </r>
       <r>    8.1079    1.0000 </r>
       <r>    8.2209    1.0000 </r>
       <r>   11.5895    0.0000 </r>
       <r>   11.8022    0.0000 </r>
       <r>   12.4443    0.0000 </r>
       <r>   13.2355    0.0000 </r>
       <r>   13.4014    0.0000 </r>
       <r>   14.0696    0.0000 </r>
       <r>   14.6021    0.0000 </r>
       <r>   14.7072    0.0000 </r>
      </set>
      <set comment="kpoint 11">
       <r>   -9.3117    1.0000 </r>
       <r>   -7.4779    1.0000 </r>
       <r>   -6.6253    1.0000 </r>
       <r>   -4.3570    1.0000 </r>
       <r>   -2.9556    1.0000 </r>
       <r>   -2.3956    1.0000 </r>
       <r>   -0.2189    1.0000 </r>
       <r>    1.4698    1.0000 </r>
       <r>    1.6188    1.0000 </r>
       <r>    2.1688    1.0000 </r>
       <r>    2.4525    1.0000 </r>
       <r>    3.1638    1.0000 </r>
       <r>    3.4613    1.0000 </r>
       <r>    4.3166    1.0000 </r>
       <r>    4.5263    1.0000 </r>
       <r>    4.8451    1.0000 </r>
       <r>    4.9614    1.0000 </r>
       <r>    6.0893    1.0000 </r>
       <r>    6.2392    1.0000 </r>
       <r>    6.4638    1.0000 </r>
       <r>    6.9391    1.0000 </r>
       <r>    7.1744    1.0000 </r>
       <r>    7.7633    1.0000 </r>
       <r>    7.9054    1.0000 </r>
       <r>   11.1079    0.0000 </r>
       <r>   11.8035    0.0000 </r>
       <r>   12.3356    0.0000 </r>
       <r>   12.6495    0.0000 </r>
       <r>   13.5269    0.0000 </r>
       <r>   14.2374    0.0000 </r>
       <r>   14.9369    0.0000 </r>
       <r>   15.0786    0.0000 </r>
      </set>
      <set comment="kpoint 12">
       <r>   -8.3837    1.0000 </r>
       <r>   -6.9987    1.0000 </r>
       <r>   -6.6811    1.0000 </r>
       <r>   -3.4436    1.0000 </r>
       <r>   -2.6838    1.0000 </r>
       <r>   -2.1706    1.0000 </r>
       <r>   -0.3998    1.0000 </r>
       <r>    0.0686    1.0000 </r>
       <r>    0.9688    1.0000 </r>
       <r>    1.3431    1.0000 </r>
       <r>    2.0633    1.0000 </r>
       <r>    2.6906    1.0000 </r>
       <r>    3.1455    1.0000 </r>
       <r>    3.8207    1.0000 </r>
       <r>    4.0483    1.0000 </r>
       <r>    4.0871    1.0000 </r>
       <r>    4.5716    1.0000 </r>
       <r>    5.8481    1.0000 </r>
       <r>    5.8782    1.0000 </r>
       <r>    6.1127    1.0000 </r>
       <r>    6.3781    1.0000 </r>
       <r>    6.7693    1.0000 </r>
       <r>    7.4991    1.0000 </r>
       <r>    7.6607    1.0000 </r>
       <r>   10.7176    0.0000 </r>
       <r>   11.3749    0.0000 </r>
       <r>   11.9267    0.0000 </r>
       <r>   11.9730    0.0000 </r>
       <r>   13.0245    0.0000 </r>
       <r>   13.9351    0.0000 </r>
       <r>   14.9059    0.0000 </r>
       <r>   15.2145    0.0000 </r>
      </set>
      <set comment="kpoint 13">
       <r>   -9.5402    1.0000 </r>
       <r>   -7.6255    1.0000 </r>
       <r>   -6.7073    1.0000 </r>
       <r>   -4.5924    1.0000 </r>
       <r>   -3.0174    1.0000 </r>
       <r>   -2.5313    1.0000 </r>
       <r>    0.0856    1.0000 </r>
       <r>    1.7883    1.0000 </r>
       <r>    1.8645    1.0000 </r>
       <r>    2.1907    1.0000 </r>
       <r>    2.4833    1.0000 </r>
       <r>    3.3684    1.0000 </r>
       <r>    4.1267    1.0000 </r>
       <r>    4.1569    1.0000 </r>
       <r>    4.6490    1.0000 </r>
       <r>    4.9255    1.0000 </r>
       <r>    5.5860    1.0000 </r>
       <r>    5.9314    1.0000 </r>
       <r>    6.1716    1.0000 </r>
       <r>    6.8017    1.0000 </r>
       <r>    7.2586    1.0000 </r>
       <r>    7.2743    1.0000 </r>
       <r>    7.6213    1.0000 </r>
       <r>    7.8295    1.0000 </r>
       <r>   11.9453    0.0000 </r>
       <r>   12.1251    0.0000 </r>
       <r>   12.6514    0.0000 </r>
       <r>   13.2854    0.0000 </r>
       <r>   13.6815    0.0000 </r>
       <r>   14.0947    0.0000 </r>
       <r>   14.2414    0.0000 </r>
       <r>   14.7815    0.0000 </r>
      </set>
      <set comment="kpoint 14">
       <r>   -8.6753    1.0000 </r>
       <r>   -7.1218    1.0000 </r>
       <r>   -6.5685    1.0000 </r>
       <r>   -3.7212    1.0000 </r>
       <r>   -2.7490    1.0000 </r>
       <r>   -2.1272    1.0000 </r>
       <r>   -0.2465    1.0000 </r>
       <r>    0.5534    1.0000 </r>
       <r>    1.2859    1.0000 </r>
       <r>    1.4471    1.0000 </r>
       <r>    1.8830    1.0000 </r>
       <r>    2.9997    1.0000 </r>
       <r>    3.2798    1.0000 </r>
       <r>    3.7152    1.0000 </r>
       <r>    3.8838    1.0000 </r>
       <r>    4.2090    1.0000 </r>
       <r>    4.5197    1.0000 </r>
       <r>    5.0364    1.0000 </r>
       <r>    6.2139    1.0000 </r>
       <r>    6.4320    1.0000 </r>
       <r>    6.6295    1.0000 </r>
       <r>    6.9076    1.0000 </r>
       <r>    7.2212    1.0000 </r>
       <r>    7.3192    1.0000 </r>
       <r>   11.6962    0.0000 </r>
       <r>   12.3959    0.0000 </r>
       <r>   12.7042    0.0000 </r>
       <r>   12.9341    0.0000 </r>
       <r>   13.5030    0.0000 </r>
       <r>   14.1117    0.0000 </r>
       <r>   14.6414    0.0000 </r>
       <r>   15.2285    0.0000 </r>
      </set>
      <set comment="kpoint 15">
       <r>   -7.9919    1.0000 </r>
       <r>   -6.8713    1.0000 </r>
       <r>   -6.8380    1.0000 </r>
       <r>   -3.0664    1.0000 </r>
       <r>   -2.4545    1.0000 </r>
       <r>   -2.1900    1.0000 </r>
       <r>   -0.3080    1.0000 </r>
       <r>   -0.0387    1.0000 </r>
       <r>    0.8434    1.0000 </r>
       <r>    1.2742    1.0000 </r>
       <r>    1.4791    1.0000 </r>
       <r>    2.5328    1.0000 </r>
       <r>    3.0256    1.0000 </r>
       <r>    3.1888    1.0000 </r>
       <r>    3.6172    1.0000 </r>
       <r>    4.1735    1.0000 </r>
       <r>    4.6504    1.0000 </r>
       <r>    4.8991    1.0000 </r>
       <r>    5.7435    1.0000 </r>
       <r>    5.9326    1.0000 </r>
       <r>    6.3893    1.0000 </r>
       <r>    6.9018    1.0000 </r>
       <r>    6.9392    1.0000 </r>
       <r>    7.3671    1.0000 </r>
       <r>   11.6291    0.0000 </r>
       <r>   12.0735    0.0000 </r>
       <r>   12.4776    0.0000 </r>
       <r>   12.7217    0.0000 </r>
       <r>   13.2980    0.0000 </r>
       <r>   14.4592    0.0000 </r>
       <r>   14.7990    0.0000 </r>
       <r>   14.9485    0.0000 </r>
      </set>
      <set comment="kpoint 16">
       <r>   -7.8163    1.0000 </r>
       <r>   -6.9142    1.0000 </r>
       <r>   -6.8047    1.0000 </r>
       <r>   -2.9109    1.0000 </r>
       <r>   -2.3342    1.0000 </r>
       <r>   -2.1078    1.0000 </r>
       <r>   -0.0518    1.0000 </r>
       <r>    0.0468    1.0000 </r>
       <r>    0.3147    1.0000 </r>
       <r>    1.4489    1.0000 </r>
       <r>    1.8262    1.0000 </r>
       <r>    2.2135    1.0000 </r>
       <r>    2.6957    1.0000 </r>
       <r>    2.7794    1.0000 </r>
       <r>    3.3005    1.0000 </r>
       <r>    3.6504    1.0000 </r>
       <r>    4.8342    1.0000 </r>
       <r>    5.0025    1.0000 </r>
       <r>    5.4756    1.0000 </r>
       <r>    5.7110    1.0000 </r>
       <r>    5.9310    1.0000 </r>
       <r>    6.2581    1.0000 </r>
       <r>    7.3199    1.0000 </r>
       <r>    7.5218    1.0000 </r>
       <r>   12.2591    0.0000 </r>
       <r>   12.6920    0.0000 </r>
       <r>   13.6288    0.0000 </r>
       <r>   13.9043    0.0000 </r>
       <r>   14.0570    0.0000 </r>
       <r>   14.3078    0.0000 </r>
       <r>   14.7314    0.0000 </r>
       <r>   15.0994    0.0000 </r>
      </set>
     </set>
    </set>
   </array>
  </eigenvalues>
  <separator name="orbital magnetization" >
   <v name="MAGDIPOLOUT">      0.00000000      0.00000000      0.00000000</v>
  </separator>
  <dos>
   <i name="efermi">      8.82015563 </i>
   <total>
    <array>
     <dimension dim="1">gridpoints</dimension>
     <dimension dim="2">spin</dimension>
     <field>energy</field>
     <field>total</field>
     <field>integrated</field>
     <set>
      <set comment="spin 1">
       <r>   -11.5649     0.0000     0.0000 </r>
       <r>   -11.4710     0.0000     0.0000 </r>
       <r>   -11.3770     0.0000     0.0000 </r>
       <r>   -11.2831     0.0000     0.0000 </r>
       <r>   -11.1892     0.0000     0.0000 </r>
       <r>   -11.0952     0.0000     0.0000 </r>
       <r>   -11.0013     0.0000     0.0000 </r>
       <r>   -10.9074     0.0000     0.0000 </r>
       <r>   -10.8134     0.0000     0.0000 </r>
       <r>   -10.7195     0.0000     0.0000 </r>
       <r>   -10.6256     0.0000     0.0000 </r>
       <r>   -10.5316     0.0001     0.0000 </r>
       <r>   -10.4377     0.0064     0.0006 </r>
       <r>   -10.3438     0.0800     0.0081 </r>
       <r>   -10.2498     0.2137     0.0282 </r>
       <r>   -10.1559     0.2137     0.0483 </r>
       <r>   -10.0620     0.7547     0.1192 </r>
       <r>    -9.9680     1.2656     0.2380 </r>
       <r>    -9.8741     0.4703     0.2822 </r>
       <r>    -9.7802     0.0376     0.2857 </r>
       <r>    -9.6862     0.0504     0.2905 </r>
       <r>    -9.5923     0.5509     0.3422 </r>
       <r>    -9.4984     1.2943     0.4638 </r>
       <r>    -9.4044     0.8872     0.5472 </r>
       <r>    -9.3105     1.1441     0.6546 </r>
       <r>    -9.2166     1.0544     0.7537 </r>
       <r>    -9.1226     0.2227     0.7746 </r>
       <r>    -9.0287     0.0097     0.7755 </r>
       <r>    -8.9348     0.0007     0.7756 </r>
       <r>    -8.8408     0.0495     0.7802 </r>
       <r>    -8.7469     0.7616     0.8518 </r>
       <r>    -8.6530     2.4422     1.0812 </r>
       <r>    -8.5590     1.7165     1.2424 </r>
       <r>    -8.4651     0.5616     1.2952 </r>
       <r>    -8.3712     1.1699     1.4051 </r>
       <r>    -8.2772     0.9709     1.4963 </r>
       <r>    -8.1833     0.3247     1.5268 </r>
       <r>    -8.0894     0.5333     1.5769 </r>
       <r>    -7.9954     1.9258     1.7577 </r>
       <r>    -7.9015     2.6156     2.0034 </r>
       <r>    -7.8076     1.8020     2.1727 </r>
       <r>    -7.7136     1.2832     2.2932 </r>
       <r>    -7.6197     1.3441     2.4195 </r>
       <r>    -7.5258     1.6115     2.5709 </r>
       <r>    -7.4318     1.4898     2.7108 </r>
       <r>    -7.3379     0.6338     2.7703 </r>
       <r>    -7.2440     0.3292     2.8013 </r>
       <r>    -7.1500     1.8371     2.9738 </r>
       <r>    -7.0561     3.6107     3.3130 </r>
       <r>    -6.9622     4.3532     3.7219 </r>
       <r>    -6.8682     5.2508     4.2151 </r>
       <r>    -6.7743     5.1090     4.6951 </r>
       <r>    -6.6804     4.6469     5.1316 </r>
       <r>    -6.5864     5.0524     5.6061 </r>
       <r>    -6.4925     3.3779     5.9234 </r>
       <r>    -6.3986     0.7717     5.9959 </r>
       <r>    -6.3046     0.0428     6.0000 </r>
       <r>    -6.2107     0.0005     6.0000 </r>
       <r>    -6.1168     0.0000     6.0000 </r>
       <r>    -6.0228     0.0000     6.0000 </r>
       <r>    -5.9289     0.0000     6.0000 </r>
       <r>    -5.8349     0.0000     6.0000 </r>
       <r>    -5.7410     0.0000     6.0000 </r>
       <r>    -5.6471     0.0000     6.0000 </r>
       <r>    -5.5531     0.0014     6.0001 </r>
       <r>    -5.4592     0.0292     6.0029 </r>
       <r>    -5.3653     0.1465     6.0166 </r>
       <r>    -5.2713     0.2024     6.0356 </r>
       <r>    -5.1774     0.3131     6.0651 </r>
       <r>    -5.0835     1.0389     6.1626 </r>
       <r>    -4.9895     1.0410     6.2604 </r>
       <r>    -4.8956     0.2548     6.2844 </r>
       <r>    -4.8017     0.0170     6.2860 </r>
       <r>    -4.7077     0.1002     6.2954 </r>
       <r>    -4.6138     0.7553     6.3663 </r>
       <r>    -4.5199     1.2728     6.4859 </r>
       <r>    -4.4259     0.8254     6.5634 </r>
       <r>    -4.3320     1.2425     6.6801 </r>
       <r>    -4.2381     0.8744     6.7623 </r>
       <r>    -4.1441     0.1367     6.7751 </r>
       <r>    -4.0502     0.0044     6.7755 </r>
       <r>    -3.9563     0.0028     6.7758 </r>
       <r>    -3.8623     0.1351     6.7885 </r>
       <r>    -3.7684     1.3025     6.9108 </r>
       <r>    -3.6745     2.6778     7.1624 </r>
       <r>    -3.5805     1.3483     7.2890 </r>
       <r>    -3.4866     1.2572     7.4071 </r>
       <r>    -3.3927     2.0048     7.5954 </r>
       <r>    -3.2987     1.0750     7.6964 </r>
       <r>    -3.2048     0.8238     7.7738 </r>
       <r>    -3.1109     1.4489     7.9099 </r>
       <r>    -3.0169     3.1663     8.2073 </r>
       <r>    -2.9230     3.9691     8.5801 </r>
       <r>    -2.8291     3.4204     8.9014 </r>
       <r>    -2.7351     3.5573     9.2356 </r>
       <r>    -2.6412     4.3792     9.6469 </r>
       <r>    -2.5473     3.0897     9.9372 </r>
       <r>    -2.4533     3.6091    10.2762 </r>
       <r>    -2.3594     3.3649    10.5923 </r>
       <r>    -2.2655     2.3189    10.8101 </r>
       <r>    -2.1715     4.0913    11.1944 </r>
       <r>    -2.0776     5.7005    11.7298 </r>
       <r>    -1.9837     2.5133    11.9659 </r>
       <r>    -1.8897     0.3481    11.9986 </r>
       <r>    -1.7958     0.0144    12.0000 </r>
       <r>    -1.7019     0.0001    12.0000 </r>
       <r>    -1.6079     0.0000    12.0000 </r>
       <r>    -1.5140     0.0000    12.0000 </r>
       <r>    -1.4201     0.0000    12.0000 </r>
       <r>    -1.3261     0.0000    12.0000 </r>
       <r>    -1.2322     0.0000    12.0000 </r>
       <r>    -1.1383     0.0000    12.0000 </r>
       <r>    -1.0443     0.0000    12.0000 </r>
       <r>    -0.9504     0.0000    12.0000 </r>
       <r>    -0.8565     0.0000    12.0000 </r>
       <r>    -0.7625     0.0005    12.0001 </r>
       <r>    -0.6686     0.0283    12.0027 </r>
       <r>    -0.5747     0.3161    12.0324 </r>
       <r>    -0.4807     1.0305    12.1292 </r>
       <r>    -0.3868     1.9343    12.3109 </r>
       <r>    -0.2929     3.2692    12.6180 </r>
       <r>    -0.1989     3.8470    12.9794 </r>
       <r>    -0.1050     2.9080    13.2525 </r>
       <r>    -0.0111     3.3592    13.5680 </r>
       <r>     0.0829     4.2395    13.9663 </r>
       <r>     0.1768     3.2885    14.2752 </r>
       <r>     0.2707     1.5995    14.4254 </r>
       <r>     0.3647     1.5856    14.5744 </r>
       <r>     0.4586     1.5485    14.7198 </r>
       <r>     0.5525     2.5307    14.9575 </r>
       <r>     0.6465     2.2725    15.1710 </r>
       <r>     0.7404     1.1870    15.2825 </r>
       <r>     0.8343     1.9468    15.4654 </r>
       <r>     0.9283     2.7497    15.7237 </r>
       <r>     1.0222     2.6266    15.9704 </r>
       <r>     1.1161     1.8236    16.1417 </r>
       <r>     1.2101     2.2231    16.3505 </r>
       <r>     1.3040     4.7203    16.7939 </r>
       <r>     1.3979     5.5234    17.3127 </r>
       <r>     1.4919     4.6314    17.7478 </r>
       <r>     1.5858     3.7474    18.0998 </r>
       <r>     1.6797     3.5957    18.4375 </r>
       <r>     1.7737     3.3811    18.7551 </r>
       <r>     1.8676     4.0541    19.1360 </r>
       <r>     1.9615     3.5848    19.4727 </r>
       <r>     2.0555     2.8985    19.7450 </r>
       <r>     2.1494     4.8148    20.1972 </r>
       <r>     2.2433     5.5748    20.7209 </r>
       <r>     2.3373     4.2983    21.1247 </r>
       <r>     2.4312     2.7672    21.3846 </r>
       <r>     2.5251     3.0545    21.6715 </r>
       <r>     2.6191     3.7297    22.0218 </r>
       <r>     2.7130     3.9953    22.3971 </r>
       <r>     2.8069     3.5130    22.7271 </r>
       <r>     2.9009     2.8461    22.9945 </r>
       <r>     2.9948     3.7213    23.3440 </r>
       <r>     3.0887     5.0715    23.8204 </r>
       <r>     3.1827     4.5408    24.2469 </r>
       <r>     3.2766     4.6027    24.6793 </r>
       <r>     3.3705     5.1582    25.1638 </r>
       <r>     3.4645     5.1157    25.6444 </r>
       <r>     3.5584     3.8899    26.0097 </r>
       <r>     3.6523     3.8203    26.3686 </r>
       <r>     3.7463     3.9151    26.7364 </r>
       <r>     3.8402     3.9626    27.1086 </r>
       <r>     3.9341     5.0461    27.5826 </r>
       <r>     4.0281     5.4457    28.0941 </r>
       <r>     4.1220     5.4076    28.6021 </r>
       <r>     4.2159     4.6523    29.0391 </r>
       <r>     4.3099     2.9730    29.3183 </r>
       <r>     4.4038     2.1901    29.5241 </r>
       <r>     4.4977     3.2912    29.8332 </r>
       <r>     4.5917     6.0306    30.3997 </r>
       <r>     4.6856     7.0543    31.0623 </r>
       <r>     4.7795     5.7762    31.6049 </r>
       <r>     4.8735     5.7849    32.1483 </r>
       <r>     4.9674     6.2002    32.7307 </r>
       <r>     5.0613     5.2071    33.2198 </r>
       <r>     5.1553     4.4937    33.6419 </r>
       <r>     5.2492     3.6444    33.9843 </r>
       <r>     5.3431     2.8382    34.2509 </r>
       <r>     5.4371     2.8579    34.5193 </r>
       <r>     5.5310     4.4026    34.9329 </r>
       <r>     5.6249     5.0547    35.4077 </r>
       <r>     5.7189     4.0826    35.7912 </r>
       <r>     5.8128     3.4297    36.1133 </r>
       <r>     5.9067     5.0477    36.5875 </r>
       <r>     6.0007     5.9014    37.1418 </r>
       <r>     6.0946     4.4562    37.5604 </r>
       <r>     6.1885     4.3499    37.9690 </r>
       <r>     6.2825     4.9579    38.4347 </r>
       <r>     6.3764     5.5282    38.9540 </r>
       <r>     6.4703     6.2331    39.5395 </r>
       <r>     6.5643     5.3114    40.0384 </r>
       <r>     6.6582     4.2124    40.4341 </r>
       <r>     6.7521     2.7835    40.6956 </r>
       <r>     6.8461     4.4471    41.1133 </r>
       <r>     6.9400     7.0123    41.7720 </r>
       <r>     7.0340     5.6250    42.3004 </r>
       <r>     7.1279     4.1929    42.6942 </r>
       <r>     7.2218     5.6507    43.2250 </r>
       <r>     7.3158     8.6808    44.0404 </r>
       <r>     7.4097     8.4417    44.8334 </r>
       <r>     7.5036     5.7814    45.3765 </r>
       <r>     7.5976     5.0473    45.8506 </r>
       <r>     7.6915     5.0391    46.3239 </r>
       <r>     7.7854     4.4183    46.7389 </r>
       <r>     7.8794     3.4118    47.0594 </r>
       <r>     7.9733     2.0957    47.2563 </r>
       <r>     8.0672     1.7190    47.4177 </r>
       <r>     8.1612     1.8645    47.5929 </r>
       <r>     8.2551     2.0551    47.7859 </r>
       <r>     8.3490     1.6366    47.9397 </r>
       <r>     8.4430     0.5660    47.9928 </r>
       <r>     8.5369     0.0738    47.9998 </r>
       <r>     8.6308     0.0026    48.0000 </r>
       <r>     8.7248     0.0000    48.0000 </r>
       <r>     8.8187     0.0000    48.0000 </r>
       <r>     8.9126     0.0000    48.0000 </r>
       <r>     9.0066     0.0000    48.0000 </r>
       <r>     9.1005     0.0000    48.0000 </r>
       <r>     9.1944     0.0000    48.0000 </r>
       <r>     9.2884     0.0000    48.0000 </r>
       <r>     9.3823     0.0000    48.0000 </r>
       <r>     9.4762     0.0000    48.0000 </r>
       <r>     9.5702     0.0000    48.0000 </r>
       <r>     9.6641     0.0000    48.0000 </r>
       <r>     9.7580     0.0000    48.0000 </r>
       <r>     9.8520     0.0000    48.0000 </r>
       <r>     9.9459     0.0000    48.0000 </r>
       <r>    10.0398     0.0000    48.0000 </r>
       <r>    10.1338     0.0000    48.0000 </r>
       <r>    10.2277     0.0000    48.0000 </r>
       <r>    10.3216     0.0000    48.0000 </r>
       <r>    10.4156     0.0038    48.0004 </r>
       <r>    10.5095     0.0979    48.0096 </r>
       <r>    10.6034     0.5668    48.0628 </r>
       <r>    10.6974     0.9968    48.1564 </r>
       <r>    10.7913     0.7424    48.2262 </r>
       <r>    10.8852     0.2394    48.2487 </r>
       <r>    10.9792     0.4594    48.2918 </r>
       <r>    11.0731     1.0935    48.3945 </r>
       <r>    11.1670     0.9866    48.4872 </r>
       <r>    11.2610     0.5789    48.5416 </r>
       <r>    11.3549     1.1252    48.6473 </r>
       <r>    11.4488     1.9333    48.8289 </r>
       <r>    11.5428     2.5576    49.0691 </r>
       <r>    11.6367     4.4967    49.4915 </r>
       <r>    11.7306     4.4634    49.9108 </r>
       <r>    11.8246     4.1596    50.3015 </r>
       <r>    11.9185     3.8216    50.6605 </r>
       <r>    12.0124     3.5751    50.9963 </r>
       <r>    12.1064     3.1374    51.2910 </r>
       <r>    12.2003     2.5684    51.5323 </r>
       <r>    12.2942     3.4385    51.8553 </r>
       <r>    12.3882     5.9096    52.4104 </r>
       <r>    12.4821     4.7888    52.8602 </r>
       <r>    12.5760     2.0893    53.0565 </r>
       <r>    12.6700     2.9035    53.3292 </r>
       <r>    12.7639     4.2014    53.7238 </r>
       <r>    12.8578     3.3775    54.0411 </r>
       <r>    12.9518     4.2361    54.4390 </r>
       <r>    13.0457     5.3124    54.9380 </r>
       <r>    13.1396     3.8485    55.2995 </r>
       <r>    13.2336     3.0586    55.5868 </r>
       <r>    13.3275     3.9265    55.9557 </r>
       <r>    13.4214     3.4598    56.2806 </r>
       <r>    13.5154     3.7448    56.6324 </r>
       <r>    13.6093     4.4888    57.0541 </r>
       <r>    13.7032     3.4260    57.3759 </r>
       <r>    13.7972     2.7344    57.6327 </r>
       <r>    13.8911     3.0167    57.9161 </r>
       <r>    13.9850     3.6778    58.2616 </r>
       <r>    14.0790     6.1842    58.8425 </r>
       <r>    14.1729     6.4267    59.4462 </r>
       <r>    14.2668     3.6838    59.7922 </r>
       <r>    14.3608     2.2944    60.0077 </r>
       <r>    14.4547     2.7969    60.2704 </r>
       <r>    14.5486     3.3256    60.5828 </r>
       <r>    14.6426     3.1740    60.8810 </r>
       <r>    14.7365     4.0489    61.2613 </r>
       <r>    14.8304     4.1897    61.6548 </r>
       <r>    14.9244     3.8834    62.0196 </r>
       <r>    15.0183     4.9518    62.4848 </r>
       <r>    15.1122     5.5315    63.0044 </r>
       <r>    15.2062     5.1337    63.4866 </r>
       <r>    15.3001     3.6521    63.8296 </r>
       <r>    15.3940     1.4957    63.9701 </r>
       <r>    15.4880     0.2977    63.9981 </r>
       <r>    15.5819     0.0199    64.0000 </r>
       <r>    15.6758     0.0003    64.0000 </r>
       <r>    15.7698     0.0000    64.0000 </r>
       <r>    15.8637     0.0000    64.0000 </r>
       <r>    15.9576     0.0000    64.0000 </r>
       <r>    16.0516     0.0000    64.0000 </r>
       <r>    16.1455     0.0000    64.0000 </r>
       <r>    16.2394     0.0000    64.0000 </r>
       <r>    16.3334     0.0000    64.0000 </r>
       <r>    16.4273     0.0000    64.0000 </r>
       <r>    16.5212     0.0000    64.0000 </r>
       <r>    16.6152     0.0000    64.0000 </r>
      </set>
     </set>
    </array>
   </total>
  </dos>
 </calculation>
 <structure name="finalpos" >
  <crystal>
   <varray name="basis" >
    <v>       3.27528303       0.00000000       0.00000000 </v>
    <v>      -1.63764152       2.83647831       0.00000000 </v>
    <v>       0.00000000       0.00000000      13.29378941 </v>
   </varray>
   <i name="volume">    123.50288337 </i>
   <varray name="rec_basis" >
    <v>       0.30531713       0.17627492       0.00000000 </v>
    <v>       0.00000000       0.35254985       0.00000000 </v>
    <v>       0.00000000       0.00000000       0.07522310 </v>
   </varray>
  </crystal>
  <varray name="positions" >
   <v>       0.33333333       0.66666667       0.65003094 </v>
   <v>       0.66666667       0.33333333       0.45901260 </v>
   <v>       0.66666667       0.33333333       0.82123405 </v>
   <v>       0.33333333       0.66666667       0.98643899 </v>
   <v>       0.33333333       0.66666667       0.29572788 </v>
   <v>       0.66666667       0.33333333       0.14175516 </v>
   <v>       0.33333333       0.66666667       0.50579700 </v>
   <v>       0.66666667       0.33333333       0.31787394 </v>
   <v>       0.66666667       0.33333333       0.96212872 </v>
   <v>       0.33333333       0.66666667       0.14074399 </v>
   <v>       0.33333333       0.66666667       0.79519268 </v>
   <v>       0.66666667       0.33333333       0.67406405 </v>
  </varray>
 </structure>
</modeling>
