<?xml version="1.0" encoding="ISO-8859-1"?>
<modeling>
 <generator>
  <i name="program" type="string">vasp </i>
  <i name="version" type="string">5.3.5  </i>
  <i name="subversion" type="string">31Mar14 (build Jun 20 2014 13:15:13) complex                          parallel </i>
  <i name="platform" type="string">LinuxIFC </i>
  <i name="date" type="string">2025 11 21 </i>
  <i name="time" type="string">10:52:09 </i>
 </generator>
 <incar>
  <i type="string" name="PREC">accurate</i>
  <i type="int" name="IALGO">    68</i>
  <i type="logical" name="ADDGRID"> T  </i>
  <i type="int" name="NELM">   100</i>
  <i type="int" name="NELMIN">     4</i>
  <i type="int" name="IBRION">     2</i>
  <i name="EDIFF">      0.00000100</i>
  <i name="EDIFFG">     -0.02000000</i>
  <i type="int" name="NSW">    30</i>
  <i type="int" name="ISIF">     3</i>
  <i name="ENCUT">    500.00000000</i>
  <i type="logical" name="LREAL"> F  </i>
  <i type="int" name="ISMEAR">     1</i>
  <i name="SIGMA">      0.30000000</i>
  <i type="logical" name="LWAVE"> F  </i>
  <i type="logical" name="LCHARG"> F  </i>
  <i type="int" name="NELM">   100</i>
 </incar>
 <kpoints>
  <generation param="Auto">
   <i name="subdivisionlength">     70.00000000 </i>
   <v type="int" name="divisions">      28       28        6 </v>
   <v name="usershift">      0.00000000       0.00000000       0.00000000 </v>
   <v name="genvec1">      0.03571429       0.00000000       0.00000000 </v>
   <v name="genvec2">      0.00000000       0.03571429       0.00000000 </v>
   <v name="genvec3">      0.00000000       0.00000000       0.16666667 </v>
   <v name="shift">      0.00000000       0.00000000       0.00000000 </v>
  </generation>
  <varray name="kpointlist" >
   <v>       0.00000000       0.00000000       0.00000000 </v>
   <v>       0.03571429       0.00000000       0.00000000 </v>
   <v>       0.07142857       0.00000000       0.00000000 </v>
   <v>       0.10714286       0.00000000       0.00000000 </v>
   <v>       0.14285714       0.00000000       0.00000000 </v>
   <v>       0.17857143       0.00000000       0.00000000 </v>
   <v>       0.21428571       0.00000000       0.00000000 </v>
   <v>       0.25000000       0.00000000       0.00000000 </v>
   <v>       0.28571429       0.00000000       0.00000000 </v>
   <v>       0.32142857       0.00000000       0.00000000 </v>
   <v>       0.35714286       0.00000000       0.00000000 </v>
   <v>       0.39285714       0.00000000       0.00000000 </v>
   <v>       0.42857143       0.00000000       0.00000000 </v>
   <v>       0.46428571       0.00000000       0.00000000 </v>
   <v>       0.50000000       0.00000000       0.00000000 </v>
   <v>       0.00000000       0.03571429       0.00000000 </v>
   <v>       0.03571429       0.03571429       0.00000000 </v>
   <v>       0.07142857       0.03571429       0.00000000 </v>
   <v>       0.10714286       0.03571429       0.00000000 </v>
   <v>       0.14285714       0.03571429       0.00000000 </v>
   <v>       0.17857143       0.03571429       0.00000000 </v>
   <v>       0.21428571       0.03571429       0.00000000 </v>
   <v>       0.25000000       0.03571429       0.00000000 </v>
   <v>       0.28571429       0.03571429       0.00000000 </v>
   <v>       0.32142857       0.03571429       0.00000000 </v>
   <v>       0.35714286       0.03571429       0.00000000 </v>
   <v>       0.39285714       0.03571429       0.00000000 </v>
   <v>       0.42857143       0.03571429       0.00000000 </v>
   <v>       0.46428571       0.03571429       0.00000000 </v>
   <v>       0.00000000       0.07142857       0.00000000 </v>
   <v>       0.03571429       0.07142857       0.00000000 </v>
   <v>       0.07142857       0.07142857       0.00000000 </v>
   <v>       0.10714286       0.07142857       0.00000000 </v>
   <v>       0.14285714       0.07142857       0.00000000 </v>
   <v>       0.17857143       0.07142857       0.00000000 </v>
   <v>       0.21428571       0.07142857       0.00000000 </v>
   <v>       0.25000000       0.07142857       0.00000000 </v>
   <v>       0.28571429       0.07142857       0.00000000 </v>
   <v>       0.32142857       0.07142857       0.00000000 </v>
   <v>       0.35714286       0.07142857       0.00000000 </v>
   <v>       0.39285714       0.07142857       0.00000000 </v>
   <v>       0.42857143       0.07142857       0.00000000 </v>
   <v>       0.46428571       0.07142857       0.00000000 </v>
   <v>      -0.03571429       0.07142857       0.00000000 </v>
   <v>       0.00000000       0.10714286       0.00000000 </v>
   <v>       0.03571429       0.10714286       0.00000000 </v>
   <v>       0.07142857       0.10714286       0.00000000 </v>
   <v>       0.10714286       0.10714286       0.00000000 </v>
   <v>       0.14285714       0.10714286       0.00000000 </v>
   <v>       0.17857143       0.10714286       0.00000000 </v>
   <v>       0.21428571       0.10714286       0.00000000 </v>
   <v>       0.25000000       0.10714286       0.00000000 </v>
   <v>       0.28571429       0.10714286       0.00000000 </v>
   <v>       0.32142857       0.10714286       0.00000000 </v>
   <v>       0.35714286       0.10714286       0.00000000 </v>
   <v>       0.39285714       0.10714286       0.00000000 </v>
   <v>       0.42857143       0.10714286       0.00000000 </v>
   <v>      -0.07142857       0.10714286       0.00000000 </v>
   <v>       0.00000000       0.14285714       0.00000000 </v>
   <v>       0.03571429       0.14285714       0.00000000 </v>
   <v>       0.07142857       0.14285714       0.00000000 </v>
   <v>       0.10714286       0.14285714       0.00000000 </v>
   <v>       0.14285714       0.14285714       0.00000000 </v>
   <v>       0.17857143       0.14285714       0.00000000 </v>
   <v>       0.21428571       0.14285714       0.00000000 </v>
   <v>       0.25000000       0.14285714       0.00000000 </v>
   <v>       0.28571429       0.14285714       0.00000000 </v>
   <v>       0.32142857       0.14285714       0.00000000 </v>
   <v>       0.35714286       0.14285714       0.00000000 </v>
   <v>       0.39285714       0.14285714       0.00000000 </v>
   <v>       0.42857143       0.14285714       0.00000000 </v>
   <v>      -0.10714286       0.14285714       0.00000000 </v>
   <v>      -0.07142857       0.14285714       0.00000000 </v>
   <v>       0.00000000       0.17857143       0.00000000 </v>
   <v>       0.03571429       0.17857143       0.00000000 </v>
   <v>       0.07142857       0.17857143       0.00000000 </v>
   <v>       0.10714286       0.17857143       0.00000000 </v>
   <v>       0.14285714       0.17857143       0.00000000 </v>
   <v>       0.17857143       0.17857143       0.00000000 </v>
   <v>       0.21428571       0.17857143       0.00000000 </v>
   <v>       0.25000000       0.17857143       0.00000000 </v>
   <v>       0.28571429       0.17857143       0.00000000 </v>
   <v>       0.32142857       0.17857143       0.00000000 </v>
   <v>       0.35714286       0.17857143       0.00000000 </v>
   <v>       0.39285714       0.17857143       0.00000000 </v>
   <v>      -0.14285714       0.17857143       0.00000000 </v>
   <v>      -0.10714286       0.17857143       0.00000000 </v>
   <v>       0.00000000       0.21428571       0.00000000 </v>
   <v>       0.03571429       0.21428571       0.00000000 </v>
   <v>       0.07142857       0.21428571       0.00000000 </v>
   <v>       0.10714286       0.21428571       0.00000000 </v>
   <v>       0.14285714       0.21428571       0.00000000 </v>
   <v>       0.17857143       0.21428571       0.00000000 </v>
   <v>       0.21428571       0.21428571       0.00000000 </v>
   <v>       0.25000000       0.21428571       0.00000000 </v>
   <v>       0.28571429       0.21428571       0.00000000 </v>
   <v>       0.32142857       0.21428571       0.00000000 </v>
   <v>       0.35714286       0.21428571       0.00000000 </v>
   <v>       0.39285714       0.21428571       0.00000000 </v>
   <v>      -0.17857143       0.21428571       0.00000000 </v>
   <v>      -0.14285714       0.21428571       0.00000000 </v>
   <v>      -0.10714286       0.21428571       0.00000000 </v>
   <v>       0.00000000       0.25000000       0.00000000 </v>
   <v>       0.03571429       0.25000000       0.00000000 </v>
   <v>       0.07142857       0.25000000       0.00000000 </v>
   <v>       0.10714286       0.25000000       0.00000000 </v>
   <v>       0.14285714       0.25000000       0.00000000 </v>
   <v>       0.17857143       0.25000000       0.00000000 </v>
   <v>       0.21428571       0.25000000       0.00000000 </v>
   <v>       0.25000000       0.25000000       0.00000000 </v>
   <v>       0.28571429       0.25000000       0.00000000 </v>
   <v>       0.32142857       0.25000000       0.00000000 </v>
   <v>       0.35714286       0.25000000       0.00000000 </v>
   <v>      -0.21428571       0.25000000       0.00000000 </v>
   <v>      -0.17857143       0.25000000       0.00000000 </v>
   <v>      -0.14285714       0.25000000       0.00000000 </v>
   <v>       0.00000000       0.28571429       0.00000000 </v>
   <v>       0.03571429       0.28571429       0.00000000 </v>
   <v>       0.07142857       0.28571429       0.00000000 </v>
   <v>       0.10714286       0.28571429       0.00000000 </v>
   <v>       0.14285714       0.28571429       0.00000000 </v>
   <v>       0.17857143       0.28571429       0.00000000 </v>
   <v>       0.21428571       0.28571429       0.00000000 </v>
   <v>       0.25000000       0.28571429       0.00000000 </v>
   <v>       0.28571429       0.28571429       0.00000000 </v>
   <v>       0.32142857       0.28571429       0.00000000 </v>
   <v>       0.35714286       0.28571429       0.00000000 </v>
   <v>      -0.25000000       0.28571429       0.00000000 </v>
   <v>      -0.21428571       0.28571429       0.00000000 </v>
   <v>      -0.17857143       0.28571429       0.00000000 </v>
   <v>      -0.14285714       0.28571429       0.00000000 </v>
   <v>       0.00000000       0.32142857       0.00000000 </v>
   <v>       0.03571429       0.32142857       0.00000000 </v>
   <v>       0.07142857       0.32142857       0.00000000 </v>
   <v>       0.10714286       0.32142857       0.00000000 </v>
   <v>       0.14285714       0.32142857       0.00000000 </v>
   <v>       0.17857143       0.32142857       0.00000000 </v>
   <v>       0.21428571       0.32142857       0.00000000 </v>
   <v>       0.25000000       0.32142857       0.00000000 </v>
   <v>       0.28571429       0.32142857       0.00000000 </v>
   <v>       0.32142857       0.32142857       0.00000000 </v>
   <v>      -0.28571429       0.32142857       0.00000000 </v>
   <v>      -0.25000000       0.32142857       0.00000000 </v>
   <v>      -0.21428571       0.32142857       0.00000000 </v>
   <v>      -0.17857143       0.32142857       0.00000000 </v>
   <v>       0.00000000       0.35714286       0.00000000 </v>
   <v>       0.03571429       0.35714286       0.00000000 </v>
   <v>       0.07142857       0.35714286       0.00000000 </v>
   <v>       0.10714286       0.35714286       0.00000000 </v>
   <v>       0.14285714       0.35714286       0.00000000 </v>
   <v>       0.17857143       0.35714286       0.00000000 </v>
   <v>       0.21428571       0.35714286       0.00000000 </v>
   <v>       0.25000000       0.35714286       0.00000000 </v>
   <v>       0.28571429       0.35714286       0.00000000 </v>
   <v>       0.32142857       0.35714286       0.00000000 </v>
   <v>      -0.32142857       0.35714286       0.00000000 </v>
   <v>      -0.28571429       0.35714286       0.00000000 </v>
   <v>      -0.25000000       0.35714286       0.00000000 </v>
   <v>      -0.21428571       0.35714286       0.00000000 </v>
   <v>      -0.17857143       0.35714286       0.00000000 </v>
   <v>       0.00000000       0.39285714       0.00000000 </v>
   <v>       0.03571429       0.39285714       0.00000000 </v>
   <v>       0.07142857       0.39285714       0.00000000 </v>
   <v>       0.10714286       0.39285714       0.00000000 </v>
   <v>       0.14285714       0.39285714       0.00000000 </v>
   <v>       0.17857143       0.39285714       0.00000000 </v>
   <v>       0.21428571       0.39285714       0.00000000 </v>
   <v>       0.25000000       0.39285714       0.00000000 </v>
   <v>       0.28571429       0.39285714       0.00000000 </v>
   <v>      -0.35714286       0.39285714       0.00000000 </v>
   <v>      -0.32142857       0.39285714       0.00000000 </v>
   <v>      -0.28571429       0.39285714       0.00000000 </v>
   <v>      -0.25000000       0.39285714       0.00000000 </v>
   <v>      -0.21428571       0.39285714       0.00000000 </v>
   <v>       0.00000000       0.42857143       0.00000000 </v>
   <v>       0.03571429       0.42857143       0.00000000 </v>
   <v>       0.07142857       0.42857143       0.00000000 </v>
   <v>       0.10714286       0.42857143       0.00000000 </v>
   <v>       0.14285714       0.42857143       0.00000000 </v>
   <v>       0.17857143       0.42857143       0.00000000 </v>
   <v>       0.21428571       0.42857143       0.00000000 </v>
   <v>       0.25000000       0.42857143       0.00000000 </v>
   <v>       0.28571429       0.42857143       0.00000000 </v>
   <v>      -0.39285714       0.42857143       0.00000000 </v>
   <v>      -0.35714286       0.42857143       0.00000000 </v>
   <v>      -0.32142857       0.42857143       0.00000000 </v>
   <v>      -0.28571429       0.42857143       0.00000000 </v>
   <v>      -0.25000000       0.42857143       0.00000000 </v>
   <v>      -0.21428571       0.42857143       0.00000000 </v>
   <v>       0.00000000       0.46428571       0.00000000 </v>
   <v>       0.03571429       0.46428571       0.00000000 </v>
   <v>       0.07142857       0.46428571       0.00000000 </v>
   <v>       0.10714286       0.46428571       0.00000000 </v>
   <v>       0.14285714       0.46428571       0.00000000 </v>
   <v>       0.17857143       0.46428571       0.00000000 </v>
   <v>       0.21428571       0.46428571       0.00000000 </v>
   <v>       0.25000000       0.46428571       0.00000000 </v>
   <v>      -0.42857143       0.46428571       0.00000000 </v>
   <v>      -0.39285714       0.46428571       0.00000000 </v>
   <v>      -0.35714286       0.46428571       0.00000000 </v>
   <v>      -0.32142857       0.46428571       0.00000000 </v>
   <v>      -0.28571429       0.46428571       0.00000000 </v>
   <v>      -0.25000000       0.46428571       0.00000000 </v>
   <v>       0.00000000       0.50000000       0.00000000 </v>
   <v>       0.03571429       0.50000000       0.00000000 </v>
   <v>       0.07142857       0.50000000       0.00000000 </v>
   <v>       0.10714286       0.50000000       0.00000000 </v>
   <v>       0.14285714       0.50000000       0.00000000 </v>
   <v>       0.17857143       0.50000000       0.00000000 </v>
   <v>       0.21428571       0.50000000       0.00000000 </v>
   <v>       0.25000000       0.50000000       0.00000000 </v>
   <v>       0.00000000       0.00000000       0.16666667 </v>
   <v>       0.03571429       0.00000000       0.16666667 </v>
   <v>       0.07142857       0.00000000       0.16666667 </v>
   <v>       0.10714286       0.00000000       0.16666667 </v>
   <v>       0.14285714       0.00000000       0.16666667 </v>
   <v>       0.17857143       0.00000000       0.16666667 </v>
   <v>       0.21428571       0.00000000       0.16666667 </v>
   <v>       0.25000000       0.00000000       0.16666667 </v>
   <v>       0.28571429       0.00000000       0.16666667 </v>
   <v>       0.32142857       0.00000000       0.16666667 </v>
   <v>       0.35714286       0.00000000       0.16666667 </v>
   <v>       0.39285714       0.00000000       0.16666667 </v>
   <v>       0.42857143       0.00000000       0.16666667 </v>
   <v>       0.46428571       0.00000000       0.16666667 </v>
   <v>       0.50000000       0.00000000       0.16666667 </v>
   <v>      -0.46428571       0.00000000       0.16666667 </v>
   <v>      -0.42857143       0.00000000       0.16666667 </v>
   <v>      -0.39285714       0.00000000       0.16666667 </v>
   <v>      -0.35714286       0.00000000       0.16666667 </v>
   <v>      -0.32142857       0.00000000       0.16666667 </v>
   <v>      -0.28571429       0.00000000       0.16666667 </v>
   <v>      -0.25000000       0.00000000       0.16666667 </v>
   <v>      -0.21428571       0.00000000       0.16666667 </v>
   <v>      -0.17857143       0.00000000       0.16666667 </v>
   <v>      -0.14285714       0.00000000       0.16666667 </v>
   <v>      -0.10714286       0.00000000       0.16666667 </v>
   <v>      -0.07142857       0.00000000       0.16666667 </v>
   <v>      -0.03571429       0.00000000       0.16666667 </v>
   <v>       0.00000000       0.03571429       0.16666667 </v>
   <v>       0.03571429       0.03571429       0.16666667 </v>
   <v>       0.07142857       0.03571429       0.16666667 </v>
   <v>       0.10714286       0.03571429       0.16666667 </v>
   <v>       0.14285714       0.03571429       0.16666667 </v>
   <v>       0.17857143       0.03571429       0.16666667 </v>
   <v>       0.21428571       0.03571429       0.16666667 </v>
   <v>       0.25000000       0.03571429       0.16666667 </v>
   <v>       0.28571429       0.03571429       0.16666667 </v>
   <v>       0.32142857       0.03571429       0.16666667 </v>
   <v>       0.35714286       0.03571429       0.16666667 </v>
   <v>       0.39285714       0.03571429       0.16666667 </v>
   <v>       0.42857143       0.03571429       0.16666667 </v>
   <v>       0.46428571       0.03571429       0.16666667 </v>
   <v>       0.50000000       0.03571429       0.16666667 </v>
   <v>      -0.46428571       0.03571429       0.16666667 </v>
   <v>      -0.42857143       0.03571429       0.16666667 </v>
   <v>      -0.39285714       0.03571429       0.16666667 </v>
   <v>      -0.35714286       0.03571429       0.16666667 </v>
   <v>      -0.32142857       0.03571429       0.16666667 </v>
   <v>      -0.28571429       0.03571429       0.16666667 </v>
   <v>      -0.25000000       0.03571429       0.16666667 </v>
   <v>      -0.21428571       0.03571429       0.16666667 </v>
   <v>      -0.17857143       0.03571429       0.16666667 </v>
   <v>      -0.14285714       0.03571429       0.16666667 </v>
   <v>      -0.10714286       0.03571429       0.16666667 </v>
   <v>      -0.07142857       0.03571429       0.16666667 </v>
   <v>      -0.03571429       0.03571429       0.16666667 </v>
   <v>       0.00000000       0.07142857       0.16666667 </v>
   <v>       0.03571429       0.07142857       0.16666667 </v>
   <v>       0.07142857       0.07142857       0.16666667 </v>
   <v>       0.10714286       0.07142857       0.16666667 </v>
   <v>       0.14285714       0.07142857       0.16666667 </v>
   <v>       0.17857143       0.07142857       0.16666667 </v>
   <v>       0.21428571       0.07142857       0.16666667 </v>
   <v>       0.25000000       0.07142857       0.16666667 </v>
   <v>       0.28571429       0.07142857       0.16666667 </v>
   <v>       0.32142857       0.07142857       0.16666667 </v>
   <v>       0.35714286       0.07142857       0.16666667 </v>
   <v>       0.39285714       0.07142857       0.16666667 </v>
   <v>       0.42857143       0.07142857       0.16666667 </v>
   <v>       0.46428571       0.07142857       0.16666667 </v>
   <v>       0.50000000       0.07142857       0.16666667 </v>
   <v>      -0.46428571       0.07142857       0.16666667 </v>
   <v>      -0.42857143       0.07142857       0.16666667 </v>
   <v>      -0.39285714       0.07142857       0.16666667 </v>
   <v>      -0.35714286       0.07142857       0.16666667 </v>
   <v>      -0.32142857       0.07142857       0.16666667 </v>
   <v>      -0.28571429       0.07142857       0.16666667 </v>
   <v>      -0.25000000       0.07142857       0.16666667 </v>
   <v>      -0.21428571       0.07142857       0.16666667 </v>
   <v>      -0.17857143       0.07142857       0.16666667 </v>
   <v>      -0.14285714       0.07142857       0.16666667 </v>
   <v>      -0.10714286       0.07142857       0.16666667 </v>
   <v>      -0.07142857       0.07142857       0.16666667 </v>
   <v>      -0.03571429       0.07142857       0.16666667 </v>
   <v>       0.00000000       0.10714286       0.16666667 </v>
   <v>       0.03571429       0.10714286       0.16666667 </v>
   <v>       0.07142857       0.10714286       0.16666667 </v>
   <v>       0.10714286       0.10714286       0.16666667 </v>
   <v>       0.14285714       0.10714286       0.16666667 </v>
   <v>       0.17857143       0.10714286       0.16666667 </v>
   <v>       0.21428571       0.10714286       0.16666667 </v>
   <v>       0.25000000       0.10714286       0.16666667 </v>
   <v>       0.28571429       0.10714286       0.16666667 </v>
   <v>       0.32142857       0.10714286       0.16666667 </v>
   <v>       0.35714286       0.10714286       0.16666667 </v>
   <v>       0.39285714       0.10714286       0.16666667 </v>
   <v>       0.42857143       0.10714286       0.16666667 </v>
   <v>       0.46428571       0.10714286       0.16666667 </v>
   <v>       0.50000000       0.10714286       0.16666667 </v>
   <v>      -0.46428571       0.10714286       0.16666667 </v>
   <v>      -0.42857143       0.10714286       0.16666667 </v>
   <v>      -0.39285714       0.10714286       0.16666667 </v>
   <v>      -0.35714286       0.10714286       0.16666667 </v>
   <v>      -0.32142857       0.10714286       0.16666667 </v>
   <v>      -0.28571429       0.10714286       0.16666667 </v>
   <v>      -0.25000000       0.10714286       0.16666667 </v>
   <v>      -0.21428571       0.10714286       0.16666667 </v>
   <v>      -0.17857143       0.10714286       0.16666667 </v>
   <v>      -0.14285714       0.10714286       0.16666667 </v>
   <v>      -0.10714286       0.10714286       0.16666667 </v>
   <v>      -0.07142857       0.10714286       0.16666667 </v>
   <v>      -0.03571429       0.10714286       0.16666667 </v>
   <v>       0.00000000       0.14285714       0.16666667 </v>
   <v>       0.03571429       0.14285714       0.16666667 </v>
   <v>       0.07142857       0.14285714       0.16666667 </v>
   <v>       0.10714286       0.14285714       0.16666667 </v>
   <v>       0.14285714       0.14285714       0.16666667 </v>
   <v>       0.17857143       0.14285714       0.16666667 </v>
   <v>       0.21428571       0.14285714       0.16666667 </v>
   <v>       0.25000000       0.14285714       0.16666667 </v>
   <v>       0.28571429       0.14285714       0.16666667 </v>
   <v>       0.32142857       0.14285714       0.16666667 </v>
   <v>       0.35714286       0.14285714       0.16666667 </v>
   <v>       0.39285714       0.14285714       0.16666667 </v>
   <v>       0.42857143       0.14285714       0.16666667 </v>
   <v>       0.46428571       0.14285714       0.16666667 </v>
   <v>       0.50000000       0.14285714       0.16666667 </v>
   <v>      -0.46428571       0.14285714       0.16666667 </v>
   <v>      -0.42857143       0.14285714       0.16666667 </v>
   <v>      -0.39285714       0.14285714       0.16666667 </v>
   <v>      -0.35714286       0.14285714       0.16666667 </v>
   <v>      -0.32142857       0.14285714       0.16666667 </v>
   <v>      -0.28571429       0.14285714       0.16666667 </v>
   <v>      -0.25000000       0.14285714       0.16666667 </v>
   <v>      -0.21428571       0.14285714       0.16666667 </v>
   <v>      -0.17857143       0.14285714       0.16666667 </v>
   <v>      -0.14285714       0.14285714       0.16666667 </v>
   <v>      -0.10714286       0.14285714       0.16666667 </v>
   <v>      -0.07142857       0.14285714       0.16666667 </v>
   <v>      -0.03571429       0.14285714       0.16666667 </v>
   <v>       0.00000000       0.17857143       0.16666667 </v>
   <v>       0.03571429       0.17857143       0.16666667 </v>
   <v>       0.07142857       0.17857143       0.16666667 </v>
   <v>       0.10714286       0.17857143       0.16666667 </v>
   <v>       0.14285714       0.17857143       0.16666667 </v>
   <v>       0.17857143       0.17857143       0.16666667 </v>
   <v>       0.21428571       0.17857143       0.16666667 </v>
   <v>       0.25000000       0.17857143       0.16666667 </v>
   <v>       0.28571429       0.17857143       0.16666667 </v>
   <v>       0.32142857       0.17857143       0.16666667 </v>
   <v>       0.35714286       0.17857143       0.16666667 </v>
   <v>       0.39285714       0.17857143       0.16666667 </v>
   <v>       0.42857143       0.17857143       0.16666667 </v>
   <v>       0.46428571       0.17857143       0.16666667 </v>
   <v>       0.50000000       0.17857143       0.16666667 </v>
   <v>      -0.46428571       0.17857143       0.16666667 </v>
   <v>      -0.42857143       0.17857143       0.16666667 </v>
   <v>      -0.39285714       0.17857143       0.16666667 </v>
   <v>      -0.35714286       0.17857143       0.16666667 </v>
   <v>      -0.32142857       0.17857143       0.16666667 </v>
   <v>      -0.28571429       0.17857143       0.16666667 </v>
   <v>      -0.25000000       0.17857143       0.16666667 </v>
   <v>      -0.21428571       0.17857143       0.16666667 </v>
   <v>      -0.17857143       0.17857143       0.16666667 </v>
   <v>      -0.14285714       0.17857143       0.16666667 </v>
   <v>      -0.10714286       0.17857143       0.16666667 </v>
   <v>      -0.07142857       0.17857143       0.16666667 </v>
   <v>      -0.03571429       0.17857143       0.16666667 </v>
   <v>       0.00000000       0.21428571       0.16666667 </v>
   <v>       0.03571429       0.21428571       0.16666667 </v>
   <v>       0.07142857       0.21428571       0.16666667 </v>
   <v>       0.10714286       0.21428571       0.16666667 </v>
   <v>       0.14285714       0.21428571       0.16666667 </v>
   <v>       0.17857143       0.21428571       0.16666667 </v>
   <v>       0.21428571       0.21428571       0.16666667 </v>
   <v>       0.25000000       0.21428571       0.16666667 </v>
   <v>       0.28571429       0.21428571       0.16666667 </v>
   <v>       0.32142857       0.21428571       0.16666667 </v>
   <v>       0.35714286       0.21428571       0.16666667 </v>
   <v>       0.39285714       0.21428571       0.16666667 </v>
   <v>       0.42857143       0.21428571       0.16666667 </v>
   <v>       0.46428571       0.21428571       0.16666667 </v>
   <v>       0.50000000       0.21428571       0.16666667 </v>
   <v>      -0.46428571       0.21428571       0.16666667 </v>
   <v>      -0.42857143       0.21428571       0.16666667 </v>
   <v>      -0.39285714       0.21428571       0.16666667 </v>
   <v>      -0.35714286       0.21428571       0.16666667 </v>
   <v>      -0.32142857       0.21428571       0.16666667 </v>
   <v>      -0.28571429       0.21428571       0.16666667 </v>
   <v>      -0.25000000       0.21428571       0.16666667 </v>
   <v>      -0.21428571       0.21428571       0.16666667 </v>
   <v>      -0.17857143       0.21428571       0.16666667 </v>
   <v>      -0.14285714       0.21428571       0.16666667 </v>
   <v>      -0.10714286       0.21428571       0.16666667 </v>
   <v>      -0.07142857       0.21428571       0.16666667 </v>
   <v>      -0.03571429       0.21428571       0.16666667 </v>
   <v>       0.00000000       0.25000000       0.16666667 </v>
   <v>       0.03571429       0.25000000       0.16666667 </v>
   <v>       0.07142857       0.25000000       0.16666667 </v>
   <v>       0.10714286       0.25000000       0.16666667 </v>
   <v>       0.14285714       0.25000000       0.16666667 </v>
   <v>       0.17857143       0.25000000       0.16666667 </v>
   <v>       0.21428571       0.25000000       0.16666667 </v>
   <v>       0.25000000       0.25000000       0.16666667 </v>
   <v>       0.28571429       0.25000000       0.16666667 </v>
   <v>       0.32142857       0.25000000       0.16666667 </v>
   <v>       0.35714286       0.25000000       0.16666667 </v>
   <v>       0.39285714       0.25000000       0.16666667 </v>
   <v>       0.42857143       0.25000000       0.16666667 </v>
   <v>       0.46428571       0.25000000       0.16666667 </v>
   <v>       0.50000000       0.25000000       0.16666667 </v>
   <v>      -0.46428571       0.25000000       0.16666667 </v>
   <v>      -0.42857143       0.25000000       0.16666667 </v>
   <v>      -0.39285714       0.25000000       0.16666667 </v>
   <v>      -0.35714286       0.25000000       0.16666667 </v>
   <v>      -0.32142857       0.25000000       0.16666667 </v>
   <v>      -0.28571429       0.25000000       0.16666667 </v>
   <v>      -0.25000000       0.25000000       0.16666667 </v>
   <v>      -0.21428571       0.25000000       0.16666667 </v>
   <v>      -0.17857143       0.25000000       0.16666667 </v>
   <v>      -0.14285714       0.25000000       0.16666667 </v>
   <v>      -0.10714286       0.25000000       0.16666667 </v>
   <v>      -0.07142857       0.25000000       0.16666667 </v>
   <v>      -0.03571429       0.25000000       0.16666667 </v>
   <v>       0.00000000       0.28571429       0.16666667 </v>
   <v>       0.03571429       0.28571429       0.16666667 </v>
   <v>       0.07142857       0.28571429       0.16666667 </v>
   <v>       0.10714286       0.28571429       0.16666667 </v>
   <v>       0.14285714       0.28571429       0.16666667 </v>
   <v>       0.17857143       0.28571429       0.16666667 </v>
   <v>       0.21428571       0.28571429       0.16666667 </v>
   <v>       0.25000000       0.28571429       0.16666667 </v>
   <v>       0.28571429       0.28571429       0.16666667 </v>
   <v>       0.32142857       0.28571429       0.16666667 </v>
   <v>       0.35714286       0.28571429       0.16666667 </v>
   <v>       0.39285714       0.28571429       0.16666667 </v>
   <v>       0.42857143       0.28571429       0.16666667 </v>
   <v>       0.46428571       0.28571429       0.16666667 </v>
   <v>       0.50000000       0.28571429       0.16666667 </v>
   <v>      -0.46428571       0.28571429       0.16666667 </v>
   <v>      -0.42857143       0.28571429       0.16666667 </v>
   <v>      -0.39285714       0.28571429       0.16666667 </v>
   <v>      -0.35714286       0.28571429       0.16666667 </v>
   <v>      -0.32142857       0.28571429       0.16666667 </v>
   <v>      -0.28571429       0.28571429       0.16666667 </v>
   <v>      -0.25000000       0.28571429       0.16666667 </v>
   <v>      -0.21428571       0.28571429       0.16666667 </v>
   <v>      -0.17857143       0.28571429       0.16666667 </v>
   <v>      -0.14285714       0.28571429       0.16666667 </v>
   <v>      -0.10714286       0.28571429       0.16666667 </v>
   <v>      -0.07142857       0.28571429       0.16666667 </v>
   <v>      -0.03571429       0.28571429       0.16666667 </v>
   <v>       0.00000000       0.32142857       0.16666667 </v>
   <v>       0.03571429       0.32142857       0.16666667 </v>
   <v>       0.07142857       0.32142857       0.16666667 </v>
   <v>       0.10714286       0.32142857       0.16666667 </v>
   <v>       0.14285714       0.32142857       0.16666667 </v>
   <v>       0.17857143       0.32142857       0.16666667 </v>
   <v>       0.21428571       0.32142857       0.16666667 </v>
   <v>       0.25000000       0.32142857       0.16666667 </v>
   <v>       0.28571429       0.32142857       0.16666667 </v>
   <v>       0.32142857       0.32142857       0.16666667 </v>
   <v>       0.35714286       0.32142857       0.16666667 </v>
   <v>       0.39285714       0.32142857       0.16666667 </v>
   <v>       0.42857143       0.32142857       0.16666667 </v>
   <v>       0.46428571       0.32142857       0.16666667 </v>
   <v>       0.50000000       0.32142857       0.16666667 </v>
   <v>      -0.46428571       0.32142857       0.16666667 </v>
   <v>      -0.42857143       0.32142857       0.16666667 </v>
   <v>      -0.39285714       0.32142857       0.16666667 </v>
   <v>      -0.35714286       0.32142857       0.16666667 </v>
   <v>      -0.32142857       0.32142857       0.16666667 </v>
   <v>      -0.28571429       0.32142857       0.16666667 </v>
   <v>      -0.25000000       0.32142857       0.16666667 </v>
   <v>      -0.21428571       0.32142857       0.16666667 </v>
   <v>      -0.17857143       0.32142857       0.16666667 </v>
   <v>      -0.14285714       0.32142857       0.16666667 </v>
   <v>      -0.10714286       0.32142857       0.16666667 </v>
   <v>      -0.07142857       0.32142857       0.16666667 </v>
   <v>      -0.03571429       0.32142857       0.16666667 </v>
   <v>       0.00000000       0.35714286       0.16666667 </v>
   <v>       0.03571429       0.35714286       0.16666667 </v>
   <v>       0.07142857       0.35714286       0.16666667 </v>
   <v>       0.10714286       0.35714286       0.16666667 </v>
   <v>       0.14285714       0.35714286       0.16666667 </v>
   <v>       0.17857143       0.35714286       0.16666667 </v>
   <v>       0.21428571       0.35714286       0.16666667 </v>
   <v>       0.25000000       0.35714286       0.16666667 </v>
   <v>       0.28571429       0.35714286       0.16666667 </v>
   <v>       0.32142857       0.35714286       0.16666667 </v>
   <v>       0.35714286       0.35714286       0.16666667 </v>
   <v>       0.39285714       0.35714286       0.16666667 </v>
   <v>       0.42857143       0.35714286       0.16666667 </v>
   <v>       0.46428571       0.35714286       0.16666667 </v>
   <v>       0.50000000       0.35714286       0.16666667 </v>
   <v>      -0.46428571       0.35714286       0.16666667 </v>
   <v>      -0.42857143       0.35714286       0.16666667 </v>
   <v>      -0.39285714       0.35714286       0.16666667 </v>
   <v>      -0.35714286       0.35714286       0.16666667 </v>
   <v>      -0.32142857       0.35714286       0.16666667 </v>
   <v>      -0.28571429       0.35714286       0.16666667 </v>
   <v>      -0.25000000       0.35714286       0.16666667 </v>
   <v>      -0.21428571       0.35714286       0.16666667 </v>
   <v>      -0.17857143       0.35714286       0.16666667 </v>
   <v>      -0.14285714       0.35714286       0.16666667 </v>
   <v>      -0.10714286       0.35714286       0.16666667 </v>
   <v>      -0.07142857       0.35714286       0.16666667 </v>
   <v>      -0.03571429       0.35714286       0.16666667 </v>
   <v>       0.00000000       0.39285714       0.16666667 </v>
   <v>       0.03571429       0.39285714       0.16666667 </v>
   <v>       0.07142857       0.39285714       0.16666667 </v>
   <v>       0.10714286       0.39285714       0.16666667 </v>
   <v>       0.14285714       0.39285714       0.16666667 </v>
   <v>       0.17857143       0.39285714       0.16666667 </v>
   <v>       0.21428571       0.39285714       0.16666667 </v>
   <v>       0.25000000       0.39285714       0.16666667 </v>
   <v>       0.28571429       0.39285714       0.16666667 </v>
   <v>       0.32142857       0.39285714       0.16666667 </v>
   <v>       0.35714286       0.39285714       0.16666667 </v>
   <v>       0.39285714       0.39285714       0.16666667 </v>
   <v>       0.42857143       0.39285714       0.16666667 </v>
   <v>       0.46428571       0.39285714       0.16666667 </v>
   <v>       0.50000000       0.39285714       0.16666667 </v>
   <v>      -0.46428571       0.39285714       0.16666667 </v>
   <v>      -0.42857143       0.39285714       0.16666667 </v>
   <v>      -0.39285714       0.39285714       0.16666667 </v>
   <v>      -0.35714286       0.39285714       0.16666667 </v>
   <v>      -0.32142857       0.39285714       0.16666667 </v>
   <v>      -0.28571429       0.39285714       0.16666667 </v>
   <v>      -0.25000000       0.39285714       0.16666667 </v>
   <v>      -0.21428571       0.39285714       0.16666667 </v>
   <v>      -0.17857143       0.39285714       0.16666667 </v>
   <v>      -0.14285714       0.39285714       0.16666667 </v>
   <v>      -0.10714286       0.39285714       0.16666667 </v>
   <v>      -0.07142857       0.39285714       0.16666667 </v>
   <v>      -0.03571429       0.39285714       0.16666667 </v>
   <v>       0.00000000       0.42857143       0.16666667 </v>
   <v>       0.03571429       0.42857143       0.16666667 </v>
   <v>       0.07142857       0.42857143       0.16666667 </v>
   <v>       0.10714286       0.42857143       0.16666667 </v>
   <v>       0.14285714       0.42857143       0.16666667 </v>
   <v>       0.17857143       0.42857143       0.16666667 </v>
   <v>       0.21428571       0.42857143       0.16666667 </v>
   <v>       0.25000000       0.42857143       0.16666667 </v>
   <v>       0.28571429       0.42857143       0.16666667 </v>
   <v>       0.32142857       0.42857143       0.16666667 </v>
   <v>       0.35714286       0.42857143       0.16666667 </v>
   <v>       0.39285714       0.42857143       0.16666667 </v>
   <v>       0.42857143       0.42857143       0.16666667 </v>
   <v>       0.46428571       0.42857143       0.16666667 </v>
   <v>       0.50000000       0.42857143       0.16666667 </v>
   <v>      -0.46428571       0.42857143       0.16666667 </v>
   <v>      -0.42857143       0.42857143       0.16666667 </v>
   <v>      -0.39285714       0.42857143       0.16666667 </v>
   <v>      -0.35714286       0.42857143       0.16666667 </v>
   <v>      -0.32142857       0.42857143       0.16666667 </v>
   <v>      -0.28571429       0.42857143       0.16666667 </v>
   <v>      -0.25000000       0.42857143       0.16666667 </v>
   <v>      -0.21428571       0.42857143       0.16666667 </v>
   <v>      -0.17857143       0.42857143       0.16666667 </v>
   <v>      -0.14285714       0.42857143       0.16666667 </v>
   <v>      -0.10714286       0.42857143       0.16666667 </v>
   <v>      -0.07142857       0.42857143       0.16666667 </v>
   <v>      -0.03571429       0.42857143       0.16666667 </v>
   <v>       0.00000000       0.46428571       0.16666667 </v>
   <v>       0.03571429       0.46428571       0.16666667 </v>
   <v>       0.07142857       0.46428571       0.16666667 </v>
   <v>       0.10714286       0.46428571       0.16666667 </v>
   <v>       0.14285714       0.46428571       0.16666667 </v>
   <v>       0.17857143       0.46428571       0.16666667 </v>
   <v>       0.21428571       0.46428571       0.16666667 </v>
   <v>       0.25000000       0.46428571       0.16666667 </v>
   <v>       0.28571429       0.46428571       0.16666667 </v>
   <v>       0.32142857       0.46428571       0.16666667 </v>
   <v>       0.35714286       0.46428571       0.16666667 </v>
   <v>       0.39285714       0.46428571       0.16666667 </v>
   <v>       0.42857143       0.46428571       0.16666667 </v>
   <v>       0.46428571       0.46428571       0.16666667 </v>
   <v>       0.50000000       0.46428571       0.16666667 </v>
   <v>      -0.46428571       0.46428571       0.16666667 </v>
   <v>      -0.42857143       0.46428571       0.16666667 </v>
   <v>      -0.39285714       0.46428571       0.16666667 </v>
   <v>      -0.35714286       0.46428571       0.16666667 </v>
   <v>      -0.32142857       0.46428571       0.16666667 </v>
   <v>      -0.28571429       0.46428571       0.16666667 </v>
   <v>      -0.25000000       0.46428571       0.16666667 </v>
   <v>      -0.21428571       0.46428571       0.16666667 </v>
   <v>      -0.17857143       0.46428571       0.16666667 </v>
   <v>      -0.14285714       0.46428571       0.16666667 </v>
   <v>      -0.10714286       0.46428571       0.16666667 </v>
   <v>      -0.07142857       0.46428571       0.16666667 </v>
   <v>      -0.03571429       0.46428571       0.16666667 </v>
   <v>       0.00000000       0.50000000       0.16666667 </v>
   <v>       0.03571429       0.50000000       0.16666667 </v>
   <v>       0.07142857       0.50000000       0.16666667 </v>
   <v>       0.10714286       0.50000000       0.16666667 </v>
   <v>       0.14285714       0.50000000       0.16666667 </v>
   <v>       0.17857143       0.50000000       0.16666667 </v>
   <v>       0.21428571       0.50000000       0.16666667 </v>
   <v>       0.25000000       0.50000000       0.16666667 </v>
   <v>       0.28571429       0.50000000       0.16666667 </v>
   <v>       0.32142857       0.50000000       0.16666667 </v>
   <v>       0.35714286       0.50000000       0.16666667 </v>
   <v>       0.39285714       0.50000000       0.16666667 </v>
   <v>       0.42857143       0.50000000       0.16666667 </v>
   <v>       0.46428571       0.50000000       0.16666667 </v>
   <v>       0.00000000       0.00000000       0.33333333 </v>
   <v>       0.03571429       0.00000000       0.33333333 </v>
   <v>       0.07142857       0.00000000       0.33333333 </v>
   <v>       0.10714286       0.00000000       0.33333333 </v>
   <v>       0.14285714       0.00000000       0.33333333 </v>
   <v>       0.17857143       0.00000000       0.33333333 </v>
   <v>       0.21428571       0.00000000       0.33333333 </v>
   <v>       0.25000000       0.00000000       0.33333333 </v>
   <v>       0.28571429       0.00000000       0.33333333 </v>
   <v>       0.32142857       0.00000000       0.33333333 </v>
   <v>       0.35714286       0.00000000       0.33333333 </v>
   <v>       0.39285714       0.00000000       0.33333333 </v>
   <v>       0.42857143       0.00000000       0.33333333 </v>
   <v>       0.46428571       0.00000000       0.33333333 </v>
   <v>      -0.46428571       0.00000000       0.33333333 </v>
   <v>      -0.42857143       0.00000000       0.33333333 </v>
   <v>      -0.39285714       0.00000000       0.33333333 </v>
   <v>      -0.35714286       0.00000000       0.33333333 </v>
   <v>      -0.32142857       0.00000000       0.33333333 </v>
   <v>      -0.28571429       0.00000000       0.33333333 </v>
   <v>      -0.25000000       0.00000000       0.33333333 </v>
   <v>      -0.21428571       0.00000000       0.33333333 </v>
   <v>      -0.17857143       0.00000000       0.33333333 </v>
   <v>      -0.14285714       0.00000000       0.33333333 </v>
   <v>      -0.10714286       0.00000000       0.33333333 </v>
   <v>      -0.07142857       0.00000000       0.33333333 </v>
   <v>      -0.03571429       0.00000000       0.33333333 </v>
   <v>       0.00000000       0.03571429       0.33333333 </v>
   <v>       0.03571429       0.03571429       0.33333333 </v>
   <v>       0.07142857       0.03571429       0.33333333 </v>
   <v>       0.10714286       0.03571429       0.33333333 </v>
   <v>       0.14285714       0.03571429       0.33333333 </v>
   <v>       0.17857143       0.03571429       0.33333333 </v>
   <v>       0.21428571       0.03571429       0.33333333 </v>
   <v>       0.25000000       0.03571429       0.33333333 </v>
   <v>       0.28571429       0.03571429       0.33333333 </v>
   <v>       0.32142857       0.03571429       0.33333333 </v>
   <v>       0.35714286       0.03571429       0.33333333 </v>
   <v>       0.39285714       0.03571429       0.33333333 </v>
   <v>       0.42857143       0.03571429       0.33333333 </v>
   <v>      -0.46428571       0.03571429       0.33333333 </v>
   <v>      -0.42857143       0.03571429       0.33333333 </v>
   <v>      -0.39285714       0.03571429       0.33333333 </v>
   <v>      -0.35714286       0.03571429       0.33333333 </v>
   <v>      -0.32142857       0.03571429       0.33333333 </v>
   <v>      -0.28571429       0.03571429       0.33333333 </v>
   <v>      -0.25000000       0.03571429       0.33333333 </v>
   <v>      -0.21428571       0.03571429       0.33333333 </v>
   <v>      -0.17857143       0.03571429       0.33333333 </v>
   <v>      -0.14285714       0.03571429       0.33333333 </v>
   <v>      -0.10714286       0.03571429       0.33333333 </v>
   <v>      -0.07142857       0.03571429       0.33333333 </v>
   <v>      -0.03571429       0.03571429       0.33333333 </v>
   <v>       0.00000000       0.07142857       0.33333333 </v>
   <v>       0.03571429       0.07142857       0.33333333 </v>
   <v>       0.07142857       0.07142857       0.33333333 </v>
   <v>       0.10714286       0.07142857       0.33333333 </v>
   <v>       0.14285714       0.07142857       0.33333333 </v>
   <v>       0.17857143       0.07142857       0.33333333 </v>
   <v>       0.21428571       0.07142857       0.33333333 </v>
   <v>       0.25000000       0.07142857       0.33333333 </v>
   <v>       0.28571429       0.07142857       0.33333333 </v>
   <v>       0.32142857       0.07142857       0.33333333 </v>
   <v>       0.35714286       0.07142857       0.33333333 </v>
   <v>       0.39285714       0.07142857       0.33333333 </v>
   <v>       0.46428571       0.07142857       0.33333333 </v>
   <v>      -0.46428571       0.07142857       0.33333333 </v>
   <v>      -0.42857143       0.07142857       0.33333333 </v>
   <v>      -0.39285714       0.07142857       0.33333333 </v>
   <v>      -0.35714286       0.07142857       0.33333333 </v>
   <v>      -0.32142857       0.07142857       0.33333333 </v>
   <v>      -0.28571429       0.07142857       0.33333333 </v>
   <v>      -0.25000000       0.07142857       0.33333333 </v>
   <v>      -0.21428571       0.07142857       0.33333333 </v>
   <v>      -0.17857143       0.07142857       0.33333333 </v>
   <v>      -0.14285714       0.07142857       0.33333333 </v>
   <v>      -0.10714286       0.07142857       0.33333333 </v>
   <v>      -0.07142857       0.07142857       0.33333333 </v>
   <v>      -0.03571429       0.07142857       0.33333333 </v>
   <v>       0.00000000       0.10714286       0.33333333 </v>
   <v>       0.03571429       0.10714286       0.33333333 </v>
   <v>       0.07142857       0.10714286       0.33333333 </v>
   <v>       0.10714286       0.10714286       0.33333333 </v>
   <v>       0.14285714       0.10714286       0.33333333 </v>
   <v>       0.17857143       0.10714286       0.33333333 </v>
   <v>       0.21428571       0.10714286       0.33333333 </v>
   <v>       0.25000000       0.10714286       0.33333333 </v>
   <v>       0.28571429       0.10714286       0.33333333 </v>
   <v>       0.32142857       0.10714286       0.33333333 </v>
   <v>       0.35714286       0.10714286       0.33333333 </v>
   <v>       0.42857143       0.10714286       0.33333333 </v>
   <v>       0.46428571       0.10714286       0.33333333 </v>
   <v>      -0.46428571       0.10714286       0.33333333 </v>
   <v>      -0.42857143       0.10714286       0.33333333 </v>
   <v>      -0.39285714       0.10714286       0.33333333 </v>
   <v>      -0.35714286       0.10714286       0.33333333 </v>
   <v>      -0.32142857       0.10714286       0.33333333 </v>
   <v>      -0.28571429       0.10714286       0.33333333 </v>
   <v>      -0.25000000       0.10714286       0.33333333 </v>
   <v>      -0.21428571       0.10714286       0.33333333 </v>
   <v>      -0.17857143       0.10714286       0.33333333 </v>
   <v>      -0.14285714       0.10714286       0.33333333 </v>
   <v>      -0.10714286       0.10714286       0.33333333 </v>
   <v>      -0.07142857       0.10714286       0.33333333 </v>
   <v>      -0.03571429       0.10714286       0.33333333 </v>
   <v>       0.00000000       0.14285714       0.33333333 </v>
   <v>       0.03571429       0.14285714       0.33333333 </v>
   <v>       0.07142857       0.14285714       0.33333333 </v>
   <v>       0.10714286       0.14285714       0.33333333 </v>
   <v>       0.14285714       0.14285714       0.33333333 </v>
   <v>       0.17857143       0.14285714       0.33333333 </v>
   <v>       0.21428571       0.14285714       0.33333333 </v>
   <v>       0.25000000       0.14285714       0.33333333 </v>
   <v>       0.28571429       0.14285714       0.33333333 </v>
   <v>       0.32142857       0.14285714       0.33333333 </v>
   <v>       0.39285714       0.14285714       0.33333333 </v>
   <v>       0.42857143       0.14285714       0.33333333 </v>
   <v>       0.46428571       0.14285714       0.33333333 </v>
   <v>      -0.46428571       0.14285714       0.33333333 </v>
   <v>      -0.42857143       0.14285714       0.33333333 </v>
   <v>      -0.39285714       0.14285714       0.33333333 </v>
   <v>      -0.35714286       0.14285714       0.33333333 </v>
   <v>      -0.32142857       0.14285714       0.33333333 </v>
   <v>      -0.28571429       0.14285714       0.33333333 </v>
   <v>      -0.25000000       0.14285714       0.33333333 </v>
   <v>      -0.21428571       0.14285714       0.33333333 </v>
   <v>      -0.17857143       0.14285714       0.33333333 </v>
   <v>      -0.14285714       0.14285714       0.33333333 </v>
   <v>      -0.10714286       0.14285714       0.33333333 </v>
   <v>      -0.07142857       0.14285714       0.33333333 </v>
   <v>      -0.03571429       0.14285714       0.33333333 </v>
   <v>       0.00000000       0.17857143       0.33333333 </v>
   <v>       0.03571429       0.17857143       0.33333333 </v>
   <v>       0.07142857       0.17857143       0.33333333 </v>
   <v>       0.10714286       0.17857143       0.33333333 </v>
   <v>       0.14285714       0.17857143       0.33333333 </v>
   <v>       0.17857143       0.17857143       0.33333333 </v>
   <v>       0.21428571       0.17857143       0.33333333 </v>
   <v>       0.25000000       0.17857143       0.33333333 </v>
   <v>       0.28571429       0.17857143       0.33333333 </v>
   <v>       0.35714286       0.17857143       0.33333333 </v>
   <v>       0.39285714       0.17857143       0.33333333 </v>
   <v>       0.42857143       0.17857143       0.33333333 </v>
   <v>       0.46428571       0.17857143       0.33333333 </v>
   <v>      -0.46428571       0.17857143       0.33333333 </v>
   <v>      -0.42857143       0.17857143       0.33333333 </v>
   <v>      -0.39285714       0.17857143       0.33333333 </v>
   <v>      -0.35714286       0.17857143       0.33333333 </v>
   <v>      -0.32142857       0.17857143       0.33333333 </v>
   <v>      -0.28571429       0.17857143       0.33333333 </v>
   <v>      -0.25000000       0.17857143       0.33333333 </v>
   <v>      -0.21428571       0.17857143       0.33333333 </v>
   <v>      -0.17857143       0.17857143       0.33333333 </v>
   <v>      -0.14285714       0.17857143       0.33333333 </v>
   <v>      -0.10714286       0.17857143       0.33333333 </v>
   <v>      -0.07142857       0.17857143       0.33333333 </v>
   <v>      -0.03571429       0.17857143       0.33333333 </v>
   <v>       0.00000000       0.21428571       0.33333333 </v>
   <v>       0.03571429       0.21428571       0.33333333 </v>
   <v>       0.07142857       0.21428571       0.33333333 </v>
   <v>       0.10714286       0.21428571       0.33333333 </v>
   <v>       0.14285714       0.21428571       0.33333333 </v>
   <v>       0.17857143       0.21428571       0.33333333 </v>
   <v>       0.21428571       0.21428571       0.33333333 </v>
   <v>       0.25000000       0.21428571       0.33333333 </v>
   <v>       0.32142857       0.21428571       0.33333333 </v>
   <v>       0.35714286       0.21428571       0.33333333 </v>
   <v>       0.39285714       0.21428571       0.33333333 </v>
   <v>       0.42857143       0.21428571       0.33333333 </v>
   <v>       0.46428571       0.21428571       0.33333333 </v>
   <v>      -0.46428571       0.21428571       0.33333333 </v>
   <v>      -0.42857143       0.21428571       0.33333333 </v>
   <v>      -0.39285714       0.21428571       0.33333333 </v>
   <v>      -0.35714286       0.21428571       0.33333333 </v>
   <v>      -0.32142857       0.21428571       0.33333333 </v>
   <v>      -0.28571429       0.21428571       0.33333333 </v>
   <v>      -0.25000000       0.21428571       0.33333333 </v>
   <v>      -0.21428571       0.21428571       0.33333333 </v>
   <v>      -0.17857143       0.21428571       0.33333333 </v>
   <v>      -0.14285714       0.21428571       0.33333333 </v>
   <v>      -0.10714286       0.21428571       0.33333333 </v>
   <v>      -0.07142857       0.21428571       0.33333333 </v>
   <v>      -0.03571429       0.21428571       0.33333333 </v>
   <v>       0.00000000       0.25000000       0.33333333 </v>
   <v>       0.03571429       0.25000000       0.33333333 </v>
   <v>       0.07142857       0.25000000       0.33333333 </v>
   <v>       0.10714286       0.25000000       0.33333333 </v>
   <v>       0.14285714       0.25000000       0.33333333 </v>
   <v>       0.17857143       0.25000000       0.33333333 </v>
   <v>       0.21428571       0.25000000       0.33333333 </v>
   <v>       0.28571429       0.25000000       0.33333333 </v>
   <v>       0.32142857       0.25000000       0.33333333 </v>
   <v>       0.35714286       0.25000000       0.33333333 </v>
   <v>       0.39285714       0.25000000       0.33333333 </v>
   <v>       0.42857143       0.25000000       0.33333333 </v>
   <v>       0.46428571       0.25000000       0.33333333 </v>
   <v>      -0.46428571       0.25000000       0.33333333 </v>
   <v>      -0.42857143       0.25000000       0.33333333 </v>
   <v>      -0.39285714       0.25000000       0.33333333 </v>
   <v>      -0.35714286       0.25000000       0.33333333 </v>
   <v>      -0.32142857       0.25000000       0.33333333 </v>
   <v>      -0.28571429       0.25000000       0.33333333 </v>
   <v>      -0.25000000       0.25000000       0.33333333 </v>
   <v>      -0.21428571       0.25000000       0.33333333 </v>
   <v>      -0.17857143       0.25000000       0.33333333 </v>
   <v>      -0.14285714       0.25000000       0.33333333 </v>
   <v>      -0.10714286       0.25000000       0.33333333 </v>
   <v>      -0.07142857       0.25000000       0.33333333 </v>
   <v>      -0.03571429       0.25000000       0.33333333 </v>
   <v>       0.00000000       0.28571429       0.33333333 </v>
   <v>       0.03571429       0.28571429       0.33333333 </v>
   <v>       0.07142857       0.28571429       0.33333333 </v>
   <v>       0.10714286       0.28571429       0.33333333 </v>
   <v>       0.14285714       0.28571429       0.33333333 </v>
   <v>       0.17857143       0.28571429       0.33333333 </v>
   <v>       0.25000000       0.28571429       0.33333333 </v>
   <v>       0.28571429       0.28571429       0.33333333 </v>
   <v>       0.32142857       0.28571429       0.33333333 </v>
   <v>       0.35714286       0.28571429       0.33333333 </v>
   <v>       0.39285714       0.28571429       0.33333333 </v>
   <v>       0.42857143       0.28571429       0.33333333 </v>
   <v>       0.46428571       0.28571429       0.33333333 </v>
   <v>      -0.46428571       0.28571429       0.33333333 </v>
   <v>      -0.42857143       0.28571429       0.33333333 </v>
   <v>      -0.39285714       0.28571429       0.33333333 </v>
   <v>      -0.35714286       0.28571429       0.33333333 </v>
   <v>      -0.32142857       0.28571429       0.33333333 </v>
   <v>      -0.28571429       0.28571429       0.33333333 </v>
   <v>      -0.25000000       0.28571429       0.33333333 </v>
   <v>      -0.21428571       0.28571429       0.33333333 </v>
   <v>      -0.17857143       0.28571429       0.33333333 </v>
   <v>      -0.14285714       0.28571429       0.33333333 </v>
   <v>      -0.10714286       0.28571429       0.33333333 </v>
   <v>      -0.07142857       0.28571429       0.33333333 </v>
   <v>      -0.03571429       0.28571429       0.33333333 </v>
   <v>       0.00000000       0.32142857       0.33333333 </v>
   <v>       0.03571429       0.32142857       0.33333333 </v>
   <v>       0.07142857       0.32142857       0.33333333 </v>
   <v>       0.10714286       0.32142857       0.33333333 </v>
   <v>       0.14285714       0.32142857       0.33333333 </v>
   <v>       0.21428571       0.32142857       0.33333333 </v>
   <v>       0.25000000       0.32142857       0.33333333 </v>
   <v>       0.28571429       0.32142857       0.33333333 </v>
   <v>       0.32142857       0.32142857       0.33333333 </v>
   <v>       0.35714286       0.32142857       0.33333333 </v>
   <v>       0.39285714       0.32142857       0.33333333 </v>
   <v>       0.42857143       0.32142857       0.33333333 </v>
   <v>       0.46428571       0.32142857       0.33333333 </v>
   <v>      -0.46428571       0.32142857       0.33333333 </v>
   <v>      -0.42857143       0.32142857       0.33333333 </v>
   <v>      -0.39285714       0.32142857       0.33333333 </v>
   <v>      -0.35714286       0.32142857       0.33333333 </v>
   <v>      -0.32142857       0.32142857       0.33333333 </v>
   <v>      -0.28571429       0.32142857       0.33333333 </v>
   <v>      -0.25000000       0.32142857       0.33333333 </v>
   <v>      -0.21428571       0.32142857       0.33333333 </v>
   <v>      -0.17857143       0.32142857       0.33333333 </v>
   <v>      -0.14285714       0.32142857       0.33333333 </v>
   <v>      -0.10714286       0.32142857       0.33333333 </v>
   <v>      -0.07142857       0.32142857       0.33333333 </v>
   <v>      -0.03571429       0.32142857       0.33333333 </v>
   <v>       0.00000000       0.35714286       0.33333333 </v>
   <v>       0.03571429       0.35714286       0.33333333 </v>
   <v>       0.07142857       0.35714286       0.33333333 </v>
   <v>       0.10714286       0.35714286       0.33333333 </v>
   <v>       0.17857143       0.35714286       0.33333333 </v>
   <v>       0.21428571       0.35714286       0.33333333 </v>
   <v>       0.25000000       0.35714286       0.33333333 </v>
   <v>       0.28571429       0.35714286       0.33333333 </v>
   <v>       0.32142857       0.35714286       0.33333333 </v>
   <v>       0.35714286       0.35714286       0.33333333 </v>
   <v>       0.39285714       0.35714286       0.33333333 </v>
   <v>       0.42857143       0.35714286       0.33333333 </v>
   <v>       0.46428571       0.35714286       0.33333333 </v>
   <v>      -0.46428571       0.35714286       0.33333333 </v>
   <v>      -0.42857143       0.35714286       0.33333333 </v>
   <v>      -0.39285714       0.35714286       0.33333333 </v>
   <v>      -0.35714286       0.35714286       0.33333333 </v>
   <v>      -0.32142857       0.35714286       0.33333333 </v>
   <v>      -0.28571429       0.35714286       0.33333333 </v>
   <v>      -0.25000000       0.35714286       0.33333333 </v>
   <v>      -0.21428571       0.35714286       0.33333333 </v>
   <v>      -0.17857143       0.35714286       0.33333333 </v>
   <v>      -0.14285714       0.35714286       0.33333333 </v>
   <v>      -0.10714286       0.35714286       0.33333333 </v>
   <v>      -0.07142857       0.35714286       0.33333333 </v>
   <v>      -0.03571429       0.35714286       0.33333333 </v>
   <v>       0.00000000       0.39285714       0.33333333 </v>
   <v>       0.03571429       0.39285714       0.33333333 </v>
   <v>       0.07142857       0.39285714       0.33333333 </v>
   <v>       0.14285714       0.39285714       0.33333333 </v>
   <v>       0.17857143       0.39285714       0.33333333 </v>
   <v>       0.21428571       0.39285714       0.33333333 </v>
   <v>       0.25000000       0.39285714       0.33333333 </v>
   <v>       0.28571429       0.39285714       0.33333333 </v>
   <v>       0.32142857       0.39285714       0.33333333 </v>
   <v>       0.35714286       0.39285714       0.33333333 </v>
   <v>       0.39285714       0.39285714       0.33333333 </v>
   <v>       0.42857143       0.39285714       0.33333333 </v>
   <v>       0.46428571       0.39285714       0.33333333 </v>
   <v>      -0.46428571       0.39285714       0.33333333 </v>
   <v>      -0.42857143       0.39285714       0.33333333 </v>
   <v>      -0.39285714       0.39285714       0.33333333 </v>
   <v>      -0.35714286       0.39285714       0.33333333 </v>
   <v>      -0.32142857       0.39285714       0.33333333 </v>
   <v>      -0.28571429       0.39285714       0.33333333 </v>
   <v>      -0.25000000       0.39285714       0.33333333 </v>
   <v>      -0.21428571       0.39285714       0.33333333 </v>
   <v>      -0.17857143       0.39285714       0.33333333 </v>
   <v>      -0.14285714       0.39285714       0.33333333 </v>
   <v>      -0.10714286       0.39285714       0.33333333 </v>
   <v>      -0.07142857       0.39285714       0.33333333 </v>
   <v>      -0.03571429       0.39285714       0.33333333 </v>
   <v>       0.00000000       0.42857143       0.33333333 </v>
   <v>       0.03571429       0.42857143       0.33333333 </v>
   <v>       0.10714286       0.42857143       0.33333333 </v>
   <v>       0.14285714       0.42857143       0.33333333 </v>
   <v>       0.17857143       0.42857143       0.33333333 </v>
   <v>       0.21428571       0.42857143       0.33333333 </v>
   <v>       0.25000000       0.42857143       0.33333333 </v>
   <v>       0.28571429       0.42857143       0.33333333 </v>
   <v>       0.32142857       0.42857143       0.33333333 </v>
   <v>       0.35714286       0.42857143       0.33333333 </v>
   <v>       0.39285714       0.42857143       0.33333333 </v>
   <v>       0.42857143       0.42857143       0.33333333 </v>
   <v>       0.46428571       0.42857143       0.33333333 </v>
   <v>      -0.46428571       0.42857143       0.33333333 </v>
   <v>      -0.42857143       0.42857143       0.33333333 </v>
   <v>      -0.39285714       0.42857143       0.33333333 </v>
   <v>      -0.35714286       0.42857143       0.33333333 </v>
   <v>      -0.32142857       0.42857143       0.33333333 </v>
   <v>      -0.28571429       0.42857143       0.33333333 </v>
   <v>      -0.25000000       0.42857143       0.33333333 </v>
   <v>      -0.21428571       0.42857143       0.33333333 </v>
   <v>      -0.17857143       0.42857143       0.33333333 </v>
   <v>      -0.14285714       0.42857143       0.33333333 </v>
   <v>      -0.10714286       0.42857143       0.33333333 </v>
   <v>      -0.07142857       0.42857143       0.33333333 </v>
   <v>      -0.03571429       0.42857143       0.33333333 </v>
   <v>       0.00000000       0.46428571       0.33333333 </v>
   <v>       0.07142857       0.46428571       0.33333333 </v>
   <v>       0.10714286       0.46428571       0.33333333 </v>
   <v>       0.14285714       0.46428571       0.33333333 </v>
   <v>       0.17857143       0.46428571       0.33333333 </v>
   <v>       0.21428571       0.46428571       0.33333333 </v>
   <v>       0.25000000       0.46428571       0.33333333 </v>
   <v>       0.28571429       0.46428571       0.33333333 </v>
   <v>       0.32142857       0.46428571       0.33333333 </v>
   <v>       0.35714286       0.46428571       0.33333333 </v>
   <v>       0.39285714       0.46428571       0.33333333 </v>
   <v>       0.42857143       0.46428571       0.33333333 </v>
   <v>       0.46428571       0.46428571       0.33333333 </v>
   <v>      -0.46428571       0.46428571       0.33333333 </v>
   <v>      -0.42857143       0.46428571       0.33333333 </v>
   <v>      -0.39285714       0.46428571       0.33333333 </v>
   <v>      -0.35714286       0.46428571       0.33333333 </v>
   <v>      -0.32142857       0.46428571       0.33333333 </v>
   <v>      -0.28571429       0.46428571       0.33333333 </v>
   <v>      -0.25000000       0.46428571       0.33333333 </v>
   <v>      -0.21428571       0.46428571       0.33333333 </v>
   <v>      -0.17857143       0.46428571       0.33333333 </v>
   <v>      -0.14285714       0.46428571       0.33333333 </v>
   <v>      -0.10714286       0.46428571       0.33333333 </v>
   <v>      -0.07142857       0.46428571       0.33333333 </v>
   <v>      -0.03571429       0.46428571       0.33333333 </v>
   <v>       0.03571429       0.50000000       0.33333333 </v>
   <v>       0.07142857       0.50000000       0.33333333 </v>
   <v>       0.10714286       0.50000000       0.33333333 </v>
   <v>       0.14285714       0.50000000       0.33333333 </v>
   <v>       0.17857143       0.50000000       0.33333333 </v>
   <v>       0.21428571       0.50000000       0.33333333 </v>
   <v>       0.25000000       0.50000000       0.33333333 </v>
   <v>       0.28571429       0.50000000       0.33333333 </v>
   <v>       0.32142857       0.50000000       0.33333333 </v>
   <v>       0.35714286       0.50000000       0.33333333 </v>
   <v>       0.39285714       0.50000000       0.33333333 </v>
   <v>       0.42857143       0.50000000       0.33333333 </v>
   <v>       0.46428571       0.50000000       0.33333333 </v>
   <v>       0.00000000       0.00000000       0.50000000 </v>
   <v>       0.03571429       0.00000000       0.50000000 </v>
   <v>       0.07142857       0.00000000       0.50000000 </v>
   <v>       0.10714286       0.00000000       0.50000000 </v>
   <v>       0.14285714       0.00000000       0.50000000 </v>
   <v>       0.17857143       0.00000000       0.50000000 </v>
   <v>       0.21428571       0.00000000       0.50000000 </v>
   <v>       0.25000000       0.00000000       0.50000000 </v>
   <v>       0.28571429       0.00000000       0.50000000 </v>
   <v>       0.32142857       0.00000000       0.50000000 </v>
   <v>       0.35714286       0.00000000       0.50000000 </v>
   <v>       0.39285714       0.00000000       0.50000000 </v>
   <v>       0.42857143       0.00000000       0.50000000 </v>
   <v>       0.46428571       0.00000000       0.50000000 </v>
   <v>       0.00000000       0.03571429       0.50000000 </v>
   <v>       0.03571429       0.03571429       0.50000000 </v>
   <v>       0.07142857       0.03571429       0.50000000 </v>
   <v>       0.10714286       0.03571429       0.50000000 </v>
   <v>       0.14285714       0.03571429       0.50000000 </v>
   <v>       0.17857143       0.03571429       0.50000000 </v>
   <v>       0.21428571       0.03571429       0.50000000 </v>
   <v>       0.25000000       0.03571429       0.50000000 </v>
   <v>       0.28571429       0.03571429       0.50000000 </v>
   <v>       0.32142857       0.03571429       0.50000000 </v>
   <v>       0.35714286       0.03571429       0.50000000 </v>
   <v>       0.39285714       0.03571429       0.50000000 </v>
   <v>       0.42857143       0.03571429       0.50000000 </v>
   <v>       0.00000000       0.07142857       0.50000000 </v>
   <v>       0.03571429       0.07142857       0.50000000 </v>
   <v>       0.07142857       0.07142857       0.50000000 </v>
   <v>       0.10714286       0.07142857       0.50000000 </v>
   <v>       0.14285714       0.07142857       0.50000000 </v>
   <v>       0.17857143       0.07142857       0.50000000 </v>
   <v>       0.21428571       0.07142857       0.50000000 </v>
   <v>       0.25000000       0.07142857       0.50000000 </v>
   <v>       0.28571429       0.07142857       0.50000000 </v>
   <v>       0.32142857       0.07142857       0.50000000 </v>
   <v>       0.35714286       0.07142857       0.50000000 </v>
   <v>       0.39285714       0.07142857       0.50000000 </v>
   <v>       0.46428571       0.07142857       0.50000000 </v>
   <v>      -0.03571429       0.07142857       0.50000000 </v>
   <v>       0.00000000       0.10714286       0.50000000 </v>
   <v>       0.03571429       0.10714286       0.50000000 </v>
   <v>       0.07142857       0.10714286       0.50000000 </v>
   <v>       0.10714286       0.10714286       0.50000000 </v>
   <v>       0.14285714       0.10714286       0.50000000 </v>
   <v>       0.17857143       0.10714286       0.50000000 </v>
   <v>       0.21428571       0.10714286       0.50000000 </v>
   <v>       0.25000000       0.10714286       0.50000000 </v>
   <v>       0.28571429       0.10714286       0.50000000 </v>
   <v>       0.32142857       0.10714286       0.50000000 </v>
   <v>       0.35714286       0.10714286       0.50000000 </v>
   <v>       0.42857143       0.10714286       0.50000000 </v>
   <v>      -0.07142857       0.10714286       0.50000000 </v>
   <v>       0.00000000       0.14285714       0.50000000 </v>
   <v>       0.03571429       0.14285714       0.50000000 </v>
   <v>       0.07142857       0.14285714       0.50000000 </v>
   <v>       0.10714286       0.14285714       0.50000000 </v>
   <v>       0.14285714       0.14285714       0.50000000 </v>
   <v>       0.17857143       0.14285714       0.50000000 </v>
   <v>       0.21428571       0.14285714       0.50000000 </v>
   <v>       0.25000000       0.14285714       0.50000000 </v>
   <v>       0.28571429       0.14285714       0.50000000 </v>
   <v>       0.32142857       0.14285714       0.50000000 </v>
   <v>       0.39285714       0.14285714       0.50000000 </v>
   <v>       0.42857143       0.14285714       0.50000000 </v>
   <v>      -0.10714286       0.14285714       0.50000000 </v>
   <v>      -0.07142857       0.14285714       0.50000000 </v>
   <v>       0.00000000       0.17857143       0.50000000 </v>
   <v>       0.03571429       0.17857143       0.50000000 </v>
   <v>       0.07142857       0.17857143       0.50000000 </v>
   <v>       0.10714286       0.17857143       0.50000000 </v>
   <v>       0.14285714       0.17857143       0.50000000 </v>
   <v>       0.17857143       0.17857143       0.50000000 </v>
   <v>       0.21428571       0.17857143       0.50000000 </v>
   <v>       0.25000000       0.17857143       0.50000000 </v>
   <v>       0.28571429       0.17857143       0.50000000 </v>
   <v>       0.35714286       0.17857143       0.50000000 </v>
   <v>       0.39285714       0.17857143       0.50000000 </v>
   <v>      -0.14285714       0.17857143       0.50000000 </v>
   <v>      -0.10714286       0.17857143       0.50000000 </v>
   <v>       0.00000000       0.21428571       0.50000000 </v>
   <v>       0.03571429       0.21428571       0.50000000 </v>
   <v>       0.07142857       0.21428571       0.50000000 </v>
   <v>       0.10714286       0.21428571       0.50000000 </v>
   <v>       0.14285714       0.21428571       0.50000000 </v>
   <v>       0.17857143       0.21428571       0.50000000 </v>
   <v>       0.21428571       0.21428571       0.50000000 </v>
   <v>       0.25000000       0.21428571       0.50000000 </v>
   <v>       0.32142857       0.21428571       0.50000000 </v>
   <v>       0.35714286       0.21428571       0.50000000 </v>
   <v>       0.39285714       0.21428571       0.50000000 </v>
   <v>      -0.17857143       0.21428571       0.50000000 </v>
   <v>      -0.14285714       0.21428571       0.50000000 </v>
   <v>      -0.10714286       0.21428571       0.50000000 </v>
   <v>       0.00000000       0.25000000       0.50000000 </v>
   <v>       0.03571429       0.25000000       0.50000000 </v>
   <v>       0.07142857       0.25000000       0.50000000 </v>
   <v>       0.10714286       0.25000000       0.50000000 </v>
   <v>       0.14285714       0.25000000       0.50000000 </v>
   <v>       0.17857143       0.25000000       0.50000000 </v>
   <v>       0.21428571       0.25000000       0.50000000 </v>
   <v>       0.28571429       0.25000000       0.50000000 </v>
   <v>       0.32142857       0.25000000       0.50000000 </v>
   <v>       0.35714286       0.25000000       0.50000000 </v>
   <v>      -0.21428571       0.25000000       0.50000000 </v>
   <v>      -0.17857143       0.25000000       0.50000000 </v>
   <v>      -0.14285714       0.25000000       0.50000000 </v>
   <v>       0.00000000       0.28571429       0.50000000 </v>
   <v>       0.03571429       0.28571429       0.50000000 </v>
   <v>       0.07142857       0.28571429       0.50000000 </v>
   <v>       0.10714286       0.28571429       0.50000000 </v>
   <v>       0.14285714       0.28571429       0.50000000 </v>
   <v>       0.17857143       0.28571429       0.50000000 </v>
   <v>       0.25000000       0.28571429       0.50000000 </v>
   <v>       0.28571429       0.28571429       0.50000000 </v>
   <v>       0.32142857       0.28571429       0.50000000 </v>
   <v>       0.35714286       0.28571429       0.50000000 </v>
   <v>      -0.25000000       0.28571429       0.50000000 </v>
   <v>      -0.21428571       0.28571429       0.50000000 </v>
   <v>      -0.17857143       0.28571429       0.50000000 </v>
   <v>      -0.14285714       0.28571429       0.50000000 </v>
   <v>       0.00000000       0.32142857       0.50000000 </v>
   <v>       0.03571429       0.32142857       0.50000000 </v>
   <v>       0.07142857       0.32142857       0.50000000 </v>
   <v>       0.10714286       0.32142857       0.50000000 </v>
   <v>       0.14285714       0.32142857       0.50000000 </v>
   <v>       0.21428571       0.32142857       0.50000000 </v>
   <v>       0.25000000       0.32142857       0.50000000 </v>
   <v>       0.28571429       0.32142857       0.50000000 </v>
   <v>       0.32142857       0.32142857       0.50000000 </v>
   <v>      -0.28571429       0.32142857       0.50000000 </v>
   <v>      -0.25000000       0.32142857       0.50000000 </v>
   <v>      -0.21428571       0.32142857       0.50000000 </v>
   <v>      -0.17857143       0.32142857       0.50000000 </v>
   <v>       0.00000000       0.35714286       0.50000000 </v>
   <v>       0.03571429       0.35714286       0.50000000 </v>
   <v>       0.07142857       0.35714286       0.50000000 </v>
   <v>       0.10714286       0.35714286       0.50000000 </v>
   <v>       0.17857143       0.35714286       0.50000000 </v>
   <v>       0.21428571       0.35714286       0.50000000 </v>
   <v>       0.25000000       0.35714286       0.50000000 </v>
   <v>       0.28571429       0.35714286       0.50000000 </v>
   <v>       0.32142857       0.35714286       0.50000000 </v>
   <v>      -0.32142857       0.35714286       0.50000000 </v>
   <v>      -0.28571429       0.35714286       0.50000000 </v>
   <v>      -0.25000000       0.35714286       0.50000000 </v>
   <v>      -0.21428571       0.35714286       0.50000000 </v>
   <v>      -0.17857143       0.35714286       0.50000000 </v>
   <v>       0.00000000       0.39285714       0.50000000 </v>
   <v>       0.03571429       0.39285714       0.50000000 </v>
   <v>       0.07142857       0.39285714       0.50000000 </v>
   <v>       0.14285714       0.39285714       0.50000000 </v>
   <v>       0.17857143       0.39285714       0.50000000 </v>
   <v>       0.21428571       0.39285714       0.50000000 </v>
   <v>       0.25000000       0.39285714       0.50000000 </v>
   <v>       0.28571429       0.39285714       0.50000000 </v>
   <v>      -0.35714286       0.39285714       0.50000000 </v>
   <v>      -0.32142857       0.39285714       0.50000000 </v>
   <v>      -0.28571429       0.39285714       0.50000000 </v>
   <v>      -0.25000000       0.39285714       0.50000000 </v>
   <v>      -0.21428571       0.39285714       0.50000000 </v>
   <v>       0.00000000       0.42857143       0.50000000 </v>
   <v>       0.03571429       0.42857143       0.50000000 </v>
   <v>       0.10714286       0.42857143       0.50000000 </v>
   <v>       0.14285714       0.42857143       0.50000000 </v>
   <v>       0.17857143       0.42857143       0.50000000 </v>
   <v>       0.21428571       0.42857143       0.50000000 </v>
   <v>       0.25000000       0.42857143       0.50000000 </v>
   <v>       0.28571429       0.42857143       0.50000000 </v>
   <v>      -0.39285714       0.42857143       0.50000000 </v>
   <v>      -0.35714286       0.42857143       0.50000000 </v>
   <v>      -0.32142857       0.42857143       0.50000000 </v>
   <v>      -0.28571429       0.42857143       0.50000000 </v>
   <v>      -0.25000000       0.42857143       0.50000000 </v>
   <v>      -0.21428571       0.42857143       0.50000000 </v>
   <v>       0.00000000       0.46428571       0.50000000 </v>
   <v>       0.07142857       0.46428571       0.50000000 </v>
   <v>       0.10714286       0.46428571       0.50000000 </v>
   <v>       0.14285714       0.46428571       0.50000000 </v>
   <v>       0.17857143       0.46428571       0.50000000 </v>
   <v>       0.21428571       0.46428571       0.50000000 </v>
   <v>       0.25000000       0.46428571       0.50000000 </v>
   <v>      -0.42857143       0.46428571       0.50000000 </v>
   <v>      -0.39285714       0.46428571       0.50000000 </v>
   <v>      -0.35714286       0.46428571       0.50000000 </v>
   <v>      -0.32142857       0.46428571       0.50000000 </v>
   <v>      -0.28571429       0.46428571       0.50000000 </v>
   <v>      -0.25000000       0.46428571       0.50000000 </v>
   <v>       0.03571429       0.50000000       0.50000000 </v>
   <v>       0.07142857       0.50000000       0.50000000 </v>
   <v>       0.10714286       0.50000000       0.50000000 </v>
   <v>       0.14285714       0.50000000       0.50000000 </v>
   <v>       0.17857143       0.50000000       0.50000000 </v>
   <v>       0.21428571       0.50000000       0.50000000 </v>
   <v>       0.25000000       0.50000000       0.50000000 </v>
  </varray>
  <varray name="weights" >
   <v>       0.00021259 </v>
   <v>       0.00042517 </v>
   <v>       0.00042517 </v>
   <v>       0.00042517 </v>
   <v>       0.00042517 </v>
   <v>       0.00042517 </v>
   <v>       0.00042517 </v>
   <v>       0.00042517 </v>
   <v>       0.00042517 </v>
   <v>       0.00042517 </v>
   <v>       0.00042517 </v>
   <v>       0.00042517 </v>
   <v>       0.00042517 </v>
   <v>       0.00042517 </v>
   <v>       0.00063776 </v>
   <v>       0.00085034 </v>
   <v>       0.00085034 </v>
   <v>       0.00085034 </v>
   <v>       0.00085034 </v>
   <v>       0.00085034 </v>
   <v>       0.00085034 </v>
   <v>       0.00085034 </v>
   <v>       0.00085034 </v>
   <v>       0.00085034 </v>
   <v>       0.00085034 </v>
   <v>       0.00085034 </v>
   <v>       0.00085034 </v>
   <v>       0.00085034 </v>
   <v>       0.00170068 </v>
   <v>       0.00085034 </v>
   <v>       0.00085034 </v>
   <v>       0.00085034 </v>
   <v>       0.00085034 </v>
   <v>       0.00085034 </v>
   <v>       0.00085034 </v>
   <v>       0.00085034 </v>
   <v>       0.00085034 </v>
   <v>       0.00085034 </v>
   <v>       0.00085034 </v>
   <v>       0.00085034 </v>
   <v>       0.00085034 </v>
   <v>       0.00170068 </v>
   <v>       0.00042517 </v>
   <v>       0.00042517 </v>
   <v>       0.00085034 </v>
   <v>       0.00085034 </v>
   <v>       0.00085034 </v>
   <v>       0.00085034 </v>
   <v>       0.00085034 </v>
   <v>       0.00085034 </v>
   <v>       0.00085034 </v>
   <v>       0.00085034 </v>
   <v>       0.00085034 </v>
   <v>       0.00085034 </v>
   <v>       0.00085034 </v>
   <v>       0.00170068 </v>
   <v>       0.00085034 </v>
   <v>       0.00085034 </v>
   <v>       0.00085034 </v>
   <v>       0.00085034 </v>
   <v>       0.00085034 </v>
   <v>       0.00085034 </v>
   <v>       0.00085034 </v>
   <v>       0.00085034 </v>
   <v>       0.00085034 </v>
   <v>       0.00085034 </v>
   <v>       0.00085034 </v>
   <v>       0.00085034 </v>
   <v>       0.00170068 </v>
   <v>       0.00085034 </v>
   <v>       0.00042517 </v>
   <v>       0.00085034 </v>
   <v>       0.00042517 </v>
   <v>       0.00085034 </v>
   <v>       0.00085034 </v>
   <v>       0.00085034 </v>
   <v>       0.00085034 </v>
   <v>       0.00085034 </v>
   <v>       0.00085034 </v>
   <v>       0.00085034 </v>
   <v>       0.00085034 </v>
   <v>       0.00085034 </v>
   <v>       0.00170068 </v>
   <v>       0.00085034 </v>
   <v>       0.00085034 </v>
   <v>       0.00085034 </v>
   <v>       0.00085034 </v>
   <v>       0.00085034 </v>
   <v>       0.00085034 </v>
   <v>       0.00085034 </v>
   <v>       0.00085034 </v>
   <v>       0.00085034 </v>
   <v>       0.00085034 </v>
   <v>       0.00085034 </v>
   <v>       0.00085034 </v>
   <v>       0.00170068 </v>
   <v>       0.00085034 </v>
   <v>       0.00085034 </v>
   <v>       0.00042517 </v>
   <v>       0.00085034 </v>
   <v>       0.00085034 </v>
   <v>       0.00042517 </v>
   <v>       0.00085034 </v>
   <v>       0.00085034 </v>
   <v>       0.00085034 </v>
   <v>       0.00085034 </v>
   <v>       0.00085034 </v>
   <v>       0.00085034 </v>
   <v>       0.00085034 </v>
   <v>       0.00170068 </v>
[...]
       <r>    3.2265    1.0000 </r>
       <r>    3.5079    1.0000 </r>
       <r>    3.7425    1.0000 </r>
       <r>    3.8299    1.0000 </r>
       <r>    4.1056    1.0000 </r>
       <r>    4.3716    1.0000 </r>
       <r>    4.3956    1.0000 </r>
       <r>    4.5783    1.0000 </r>
       <r>    4.7898    1.0000 </r>
       <r>    5.0716    1.0000 </r>
       <r>    5.2686    1.0000 </r>
       <r>    5.4705    1.0000 </r>
       <r>    5.6772    1.0000 </r>
       <r>    5.7465    1.0000 </r>
       <r>    5.8653    1.0000 </r>
       <r>    6.1477    1.0000 </r>
       <r>    6.5126    1.0000 </r>
       <r>    6.6876    1.0000 </r>
       <r>    8.1904    1.0313 </r>
       <r>    8.3644    0.8676 </r>
       <r>   10.0591    0.0000 </r>
       <r>   10.3260    0.0000 </r>
       <r>   12.2940    0.0000 </r>
       <r>   12.7086    0.0000 </r>
       <r>   13.8776    0.0000 </r>
       <r>   14.2202    0.0000 </r>
       <r>   14.9378    0.0000 </r>
       <r>   15.7313    0.0000 </r>
       <r>   17.0254    0.0000 </r>
      </set>
      <set comment="kpoint 1190">
       <r>    2.5006    1.0000 </r>
       <r>    2.5412    1.0000 </r>
       <r>    2.6725    1.0000 </r>
       <r>    2.9274    1.0000 </r>
       <r>    2.9657    1.0000 </r>
       <r>    3.0034    1.0000 </r>
       <r>    3.4101    1.0000 </r>
       <r>    3.4164    1.0000 </r>
       <r>    3.4340    1.0000 </r>
       <r>    3.6636    1.0000 </r>
       <r>    3.7540    1.0000 </r>
       <r>    3.8828    1.0000 </r>
       <r>    4.1222    1.0000 </r>
       <r>    4.2775    1.0000 </r>
       <r>    4.6578    1.0000 </r>
       <r>    4.7062    1.0000 </r>
       <r>    4.9642    1.0000 </r>
       <r>    5.1392    1.0000 </r>
       <r>    5.2765    1.0000 </r>
       <r>    5.5162    1.0000 </r>
       <r>    5.6592    1.0000 </r>
       <r>    5.8165    1.0000 </r>
       <r>    6.1604    1.0000 </r>
       <r>    6.5076    1.0000 </r>
       <r>    6.7155    1.0000 </r>
       <r>    8.2289    1.0187 </r>
       <r>    8.3176    0.9418 </r>
       <r>   10.0832    0.0000 </r>
       <r>   10.3599    0.0000 </r>
       <r>   12.8464    0.0000 </r>
       <r>   13.2088    0.0000 </r>
       <r>   14.1118    0.0000 </r>
       <r>   14.3050    0.0000 </r>
       <r>   14.9847    0.0000 </r>
       <r>   15.3026    0.0000 </r>
       <r>   16.5503    0.0000 </r>
      </set>
      <set comment="kpoint 1191">
       <r>    2.5889    1.0000 </r>
       <r>    2.5917    1.0000 </r>
       <r>    2.7129    1.0000 </r>
       <r>    2.8801    1.0000 </r>
       <r>    2.9492    1.0000 </r>
       <r>    3.2223    1.0000 </r>
       <r>    3.2278    1.0000 </r>
       <r>    3.6299    1.0000 </r>
       <r>    3.6439    1.0000 </r>
       <r>    3.6639    1.0000 </r>
       <r>    3.7164    1.0000 </r>
       <r>    3.7375    1.0000 </r>
       <r>    3.7978    1.0000 </r>
       <r>    4.3815    1.0000 </r>
       <r>    4.4340    1.0000 </r>
       <r>    4.8655    1.0000 </r>
       <r>    4.8880    1.0000 </r>
       <r>    5.0998    1.0000 </r>
       <r>    5.3026    1.0000 </r>
       <r>    5.3212    1.0000 </r>
       <r>    5.6579    1.0000 </r>
       <r>    5.8035    1.0000 </r>
       <r>    6.1659    1.0000 </r>
       <r>    6.5051    1.0000 </r>
       <r>    6.7264    1.0000 </r>
       <r>    8.2519    1.0059 </r>
       <r>    8.2938    0.9701 </r>
       <r>   10.0903    0.0000 </r>
       <r>   10.3683    0.0000 </r>
       <r>   13.1478    0.0000 </r>
       <r>   13.4390    0.0000 </r>
       <r>   14.0239    0.0000 </r>
       <r>   14.5693    0.0000 </r>
       <r>   14.5784    0.0000 </r>
       <r>   15.5639    0.0000 </r>
       <r>   16.1112    0.0000 </r>
      </set>
     </set>
    </set>
   </array>
  </eigenvalues>
  <separator name="orbital magnetization" >
   <v name="MAGDIPOLOUT">      0.00000000      0.00000000      0.00000000</v>
  </separator>
  <dos>
   <i name="efermi">      8.51301406 </i>
   <total>
    <array>
     <dimension dim="1">gridpoints</dimension>
     <dimension dim="2">spin</dimension>
     <field>energy</field>
     <field>total</field>
     <field>integrated</field>
     <set>
      <set comment="spin 1">
       <r>    -3.6133     0.0000     0.0000 </r>
       <r>    -3.5122     0.0000     0.0000 </r>
       <r>    -3.4111     0.0000     0.0000 </r>
       <r>    -3.3099     0.0000     0.0000 </r>
       <r>    -3.2088     0.0000     0.0000 </r>
       <r>    -3.1077     0.0000     0.0000 </r>
       <r>    -3.0065     0.0000     0.0000 </r>
       <r>    -2.9054     0.0000     0.0000 </r>
       <r>    -2.8042     0.0000     0.0000 </r>
       <r>    -2.7031     0.0000     0.0000 </r>
       <r>    -2.6020     0.0000     0.0000 </r>
       <r>    -2.5008     0.0000     0.0000 </r>
       <r>    -2.3997     0.0000     0.0000 </r>
       <r>    -2.2986     0.0000     0.0000 </r>
       <r>    -2.1974     0.0000     0.0000 </r>
       <r>    -2.0963     0.0000     0.0000 </r>
       <r>    -1.9952     0.0000     0.0000 </r>
       <r>    -1.8940     0.0000     0.0000 </r>
       <r>    -1.7929     0.0000     0.0000 </r>
       <r>    -1.6917     0.0000     0.0000 </r>
       <r>    -1.5906     0.0000     0.0000 </r>
       <r>    -1.4895     0.0000     0.0000 </r>
       <r>    -1.3883     0.0000     0.0000 </r>
       <r>    -1.2872    -0.0002     0.0000 </r>
       <r>    -1.1861    -0.0009    -0.0001 </r>
       <r>    -1.0849    -0.0026    -0.0004 </r>
       <r>    -0.9838    -0.0056    -0.0009 </r>
       <r>    -0.8827    -0.0077    -0.0017 </r>
       <r>    -0.7815    -0.0014    -0.0019 </r>
       <r>    -0.6804     0.0237     0.0005 </r>
       <r>    -0.5792     0.0730     0.0079 </r>
       <r>    -0.4781     0.1373     0.0218 </r>
       <r>    -0.3770     0.1967     0.0417 </r>
       <r>    -0.2758     0.2362     0.0656 </r>
       <r>    -0.1747     0.2575     0.0916 </r>
       <r>    -0.0736     0.2753     0.1195 </r>
       <r>     0.0276     0.3036     0.1502 </r>
       <r>     0.1287     0.3469     0.1853 </r>
       <r>     0.2299     0.4000     0.2257 </r>
       <r>     0.3310     0.4547     0.2717 </r>
       <r>     0.4321     0.5024     0.3225 </r>
       <r>     0.5333     0.5379     0.3769 </r>
       <r>     0.6344     0.5632     0.4339 </r>
       <r>     0.7355     0.5858     0.4931 </r>
       <r>     0.8367     0.6146     0.5553 </r>
       <r>     0.9378     0.6579     0.6218 </r>
       <r>     1.0389     0.7187     0.6945 </r>
       <r>     1.1401     0.7893     0.7743 </r>
       <r>     1.2412     0.8616     0.8615 </r>
       <r>     1.3424     0.9442     0.9570 </r>
       <r>     1.4435     1.0663     1.0648 </r>
       <r>     1.5446     1.2760     1.1939 </r>
       <r>     1.6458     1.6185     1.3575 </r>
       <r>     1.7469     2.0928     1.5692 </r>
       <r>     1.8480     2.6543     1.8377 </r>
       <r>     1.9492     3.2975     2.1711 </r>
       <r>     2.0503     4.1060     2.5864 </r>
       <r>     2.1514     5.1776     3.1101 </r>
       <r>     2.2526     6.4999     3.7674 </r>
       <r>     2.3537     7.9049     4.5669 </r>
       <r>     2.4549     9.1402     5.4913 </r>
       <r>     2.5560     9.9987     6.5025 </r>
       <r>     2.6571    10.4146     7.5558 </r>
       <r>     2.7583    10.4498     8.6127 </r>
       <r>     2.8594    10.1875     9.6430 </r>
       <r>     2.9605     9.6690    10.6209 </r>
       <r>     3.0617     8.9940    11.5305 </r>
       <r>     3.1628     8.4500    12.3851 </r>
       <r>     3.2639     8.4017    13.2349 </r>
       <r>     3.3651     8.9699    14.1421 </r>
       <r>     3.4662     9.8822    15.1415 </r>
       <r>     3.5674    10.7039    16.2241 </r>
       <r>     3.6685    11.1998    17.3568 </r>
       <r>     3.7696    11.4841    18.5182 </r>
       <r>     3.8708    11.9007    19.7218 </r>
       <r>     3.9719    12.7707    21.0134 </r>
       <r>     4.0730    14.1186    22.4413 </r>
       <r>     4.1742    15.5007    24.0090 </r>
       <r>     4.2753    16.1671    25.6441 </r>
       <r>     4.3765    15.6121    27.2231 </r>
       <r>     4.4776    14.0461    28.6436 </r>
       <r>     4.5787    12.2381    29.8814 </r>
       <r>     4.6799    10.9088    30.9846 </r>
       <r>     4.7810    10.3494    32.0313 </r>
       <r>     4.8821    10.4618    33.0894 </r>
       <r>     4.9833    10.9222    34.1940 </r>
       <r>     5.0844    11.3449    35.3414 </r>
       <r>     5.1855    11.4832    36.5028 </r>
       <r>     5.2867    11.3356    37.6492 </r>
       <r>     5.3878    11.0596    38.7678 </r>
       <r>     5.4890    10.8069    39.8608 </r>
       <r>     5.5901    10.6146    40.9343 </r>
       <r>     5.6912    10.4182    41.9879 </r>
       <r>     5.7924    10.1727    43.0168 </r>
       <r>     5.8935     9.9393    44.0220 </r>
       <r>     5.9946     9.8432    45.0175 </r>
       <r>     6.0958    10.0068    46.0296 </r>
       <r>     6.1969    10.4991    47.0914 </r>
       <r>     6.2980    11.1714    48.2213 </r>
       <r>     6.3992    11.5198    49.3863 </r>
       <r>     6.5003    10.9367    50.4924 </r>
       <r>     6.6015     9.2222    51.4251 </r>
       <r>     6.7026     6.7771    52.1105 </r>
       <r>     6.8037     4.3124    52.5467 </r>
       <r>     6.9049     2.4365    52.7931 </r>
       <r>     7.0060     1.4096    52.9357 </r>
       <r>     7.1071     1.1097    53.0479 </r>
       <r>     7.2083     1.1872    53.1680 </r>
       <r>     7.3094     1.3147    53.3009 </r>
       <r>     7.4106     1.3587    53.4384 </r>
       <r>     7.5117     1.3607    53.5760 </r>
       <r>     7.6128     1.3877    53.7163 </r>
       <r>     7.7140     1.4279    53.8607 </r>
       <r>     7.8151     1.4275    54.0051 </r>
       <r>     7.9162     1.3867    54.1453 </r>
       <r>     8.0174     1.3707    54.2840 </r>
       <r>     8.1185     1.4218    54.4278 </r>
       <r>     8.2196     1.4939    54.5788 </r>
       <r>     8.3208     1.5040    54.7309 </r>
       <r>     8.4219     1.4351    54.8761 </r>
       <r>     8.5231     1.3582    55.0135 </r>
       <r>     8.6242     1.3507    55.1501 </r>
       <r>     8.7253     1.4134    55.2930 </r>
       <r>     8.8265     1.4776    55.4424 </r>
       <r>     8.9276     1.4822    55.5924 </r>
       <r>     9.0287     1.4307    55.7370 </r>
       <r>     9.1299     1.3725    55.8759 </r>
       <r>     9.2310     1.3504    56.0124 </r>
       <r>     9.3321     1.3706    56.1510 </r>
       <r>     9.4333     1.4098    56.2936 </r>
       <r>     9.5344     1.4372    56.4390 </r>
       <r>     9.6356     1.4336    56.5840 </r>
       <r>     9.7367     1.4021    56.7258 </r>
       <r>     9.8378     1.3680    56.8641 </r>
       <r>     9.9390     1.3613    57.0018 </r>
       <r>    10.0401     1.3862    57.1420 </r>
       <r>    10.1412     1.4112    57.2847 </r>
       <r>    10.2424     1.3985    57.4262 </r>
       <r>    10.3435     1.3443    57.5621 </r>
       <r>    10.4447     1.2857    57.6921 </r>
       <r>    10.5458     1.2629    57.8199 </r>
       <r>    10.6469     1.2747    57.9488 </r>
       <r>    10.7481     1.2804    58.0783 </r>
       <r>    10.8492     1.2483    58.2045 </r>
       <r>    10.9503     1.1945    58.3253 </r>
       <r>    11.0515     1.1663    58.4433 </r>
       <r>    11.1526     1.2044    58.5651 </r>
       <r>    11.2537     1.3323    58.6998 </r>
       <r>    11.3549     1.5516    58.8568 </r>
       <r>    11.4560     1.8151    59.0403 </r>
       <r>    11.5572     2.0230    59.2449 </r>
       <r>    11.6583     2.0837    59.4557 </r>
       <r>    11.7594     1.9822    59.6561 </r>
       <r>    11.8606     1.7861    59.8368 </r>
       <r>    11.9617     1.5949    59.9981 </r>
       <r>    12.0628     1.4810    60.1479 </r>
       <r>    12.1640     1.4595    60.2955 </r>
       <r>    12.2651     1.4989    60.4471 </r>
       <r>    12.3662     1.5498    60.6038 </r>
       <r>    12.4674     1.5666    60.7622 </r>
       <r>    12.5685     1.5287    60.9169 </r>
       <r>    12.6697     1.4602    61.0645 </r>
       <r>    12.7708     1.4168    61.2078 </r>
       <r>    12.8719     1.4305    61.3525 </r>
       <r>    12.9731     1.4741    61.5016 </r>
       <r>    13.0742     1.4944    61.6527 </r>
       <r>    13.1753     1.4807    61.8025 </r>
       <r>    13.2765     1.4813    61.9523 </r>
       <r>    13.3776     1.5423    62.1083 </r>
       <r>    13.4788     1.6477    62.2749 </r>
       <r>    13.5799     1.7432    62.4512 </r>
       <r>    13.6810     1.8041    62.6337 </r>
       <r>    13.7822     1.8427    62.8200 </r>
       <r>    13.8833     1.8614    63.0083 </r>
       <r>    13.9844     1.8416    63.1945 </r>
       <r>    14.0856     1.7802    63.3746 </r>
       <r>    14.1867     1.7097    63.5475 </r>
       <r>    14.2878     1.6687    63.7163 </r>
       <r>    14.3890     1.6606    63.8842 </r>
       <r>    14.4901     1.6480    64.0509 </r>
       <r>    14.5913     1.5966    64.2124 </r>
       <r>    14.6924     1.5204    64.3661 </r>
       <r>    14.7935     1.4687    64.5147 </r>
       <r>    14.8947     1.4641    64.6627 </r>
       <r>    14.9958     1.4757    64.8120 </r>
       <r>    15.0969     1.4633    64.9600 </r>
       <r>    15.1981     1.4359    65.1052 </r>
       <r>    15.2992     1.4459    65.2514 </r>
       <r>    15.4003     1.5324    65.4064 </r>
       <r>    15.5015     1.6783    65.5761 </r>
       <r>    15.6026     1.8192    65.7601 </r>
       <r>    15.7038     1.8907    65.9514 </r>
       <r>    15.8049     1.8787    66.1414 </r>
       <r>    15.9060     1.8277    66.3262 </r>
       <r>    16.0072     1.7918    66.5074 </r>
       <r>    16.1083     1.7764    66.6871 </r>
       <r>    16.2094     1.7410    66.8632 </r>
       <r>    16.3106     1.6584    67.0309 </r>
       <r>    16.4117     1.5511    67.1878 </r>
       <r>    16.5129     1.4613    67.3356 </r>
       <r>    16.6140     1.4110    67.4783 </r>
       <r>    16.7151     1.4033    67.6202 </r>
       <r>    16.8163     1.4340    67.7652 </r>
       <r>    16.9174     1.4832    67.9152 </r>
       <r>    17.0185     1.5172    68.0687 </r>
       <r>    17.1197     1.5140    68.2218 </r>
       <r>    17.2208     1.4763    68.3711 </r>
       <r>    17.3219     1.4163    68.5143 </r>
       <r>    17.4231     1.3432    68.6502 </r>
       <r>    17.5242     1.2670    68.7783 </r>
       <r>    17.6254     1.1992    68.8996 </r>
       <r>    17.7265     1.1446    69.0154 </r>
       <r>    17.8276     1.0988    69.1265 </r>
       <r>    17.9288     1.0546    69.2332 </r>
       <r>    18.0299     1.0091    69.3352 </r>
       <r>    18.1310     0.9657    69.4329 </r>
       <r>    18.2322     0.9303    69.5270 </r>
       <r>    18.3333     0.9052    69.6185 </r>
       <r>    18.4344     0.8839    69.7079 </r>
       <r>    18.5356     0.8510    69.7940 </r>
       <r>    18.6367     0.7955    69.8744 </r>
       <r>    18.7379     0.7280    69.9481 </r>
       <r>    18.8390     0.6786    70.0167 </r>
       <r>    18.9401     0.6692    70.0844 </r>
       <r>    19.0413     0.6889    70.1540 </r>
       <r>    19.1424     0.7019    70.2250 </r>
       <r>    19.2435     0.6800    70.2938 </r>
       <r>    19.3447     0.6274    70.3573 </r>
       <r>    19.4458     0.5749    70.4154 </r>
       <r>    19.5470     0.5522    70.4713 </r>
       <r>    19.6481     0.5616    70.5280 </r>
       <r>    19.7492     0.5778    70.5865 </r>
       <r>    19.8504     0.5727    70.6444 </r>
       <r>    19.9515     0.5400    70.6990 </r>
       <r>    20.0526     0.4950    70.7491 </r>
       <r>    20.1538     0.4592    70.7955 </r>
       <r>    20.2549     0.4460    70.8406 </r>
       <r>    20.3560     0.4533    70.8865 </r>
       <r>    20.4572     0.4647    70.9335 </r>
       <r>    20.5583     0.4614    70.9801 </r>
       <r>    20.6595     0.4383    71.0245 </r>
       <r>    20.7606     0.4074    71.0657 </r>
       <r>    20.8617     0.3858    71.1047 </r>
       <r>    20.9629     0.3809    71.1432 </r>
       <r>    21.0640     0.3850    71.1821 </r>
       <r>    21.1651     0.3823    71.2208 </r>
       <r>    21.2663     0.3664    71.2579 </r>
       <r>    21.3674     0.3480    71.2931 </r>
       <r>    21.4685     0.3437    71.3278 </r>
       <r>    21.5697     0.3550    71.3637 </r>
       <r>    21.6708     0.3614    71.4003 </r>
       <r>    21.7720     0.3410    71.4348 </r>
       <r>    21.8731     0.2970    71.4648 </r>
       <r>    21.9742     0.2571    71.4908 </r>
       <r>    22.0754     0.2464    71.5157 </r>
       <r>    22.1765     0.2646    71.5425 </r>
       <r>    22.2776     0.2914    71.5720 </r>
       <r>    22.3788     0.3084    71.6031 </r>
       <r>    22.4799     0.3160    71.6351 </r>
       <r>    22.5811     0.3317    71.6686 </r>
       <r>    22.6822     0.3681    71.7059 </r>
       <r>    22.7833     0.4102    71.7474 </r>
       <r>    22.8845     0.4245    71.7903 </r>
       <r>    22.9856     0.3956    71.8303 </r>
       <r>    23.0867     0.3441    71.8651 </r>
       <r>    23.1879     0.3003    71.8955 </r>
       <r>    23.2890     0.2724    71.9230 </r>
       <r>    23.3901     0.2467    71.9480 </r>
       <r>    23.4913     0.2094    71.9691 </r>
       <r>    23.5924     0.1579    71.9851 </r>
       <r>    23.6936     0.1002    71.9953 </r>
       <r>    23.7947     0.0487    72.0002 </r>
       <r>    23.8958     0.0137    72.0016 </r>
       <r>    23.9970    -0.0027    72.0013 </r>
       <r>    24.0981    -0.0060    72.0007 </r>
       <r>    24.1992    -0.0041    72.0003 </r>
       <r>    24.3004    -0.0019    72.0001 </r>
       <r>    24.4015    -0.0006    72.0000 </r>
       <r>    24.5026    -0.0002    72.0000 </r>
       <r>    24.6038     0.0000    72.0000 </r>
       <r>    24.7049     0.0000    72.0000 </r>
       <r>    24.8061     0.0000    72.0000 </r>
       <r>    24.9072     0.0000    72.0000 </r>
       <r>    25.0083     0.0000    72.0000 </r>
       <r>    25.1095     0.0000    72.0000 </r>
       <r>    25.2106     0.0000    72.0000 </r>
       <r>    25.3117     0.0000    72.0000 </r>
       <r>    25.4129     0.0000    72.0000 </r>
       <r>    25.5140     0.0000    72.0000 </r>
       <r>    25.6151     0.0000    72.0000 </r>
       <r>    25.7163     0.0000    72.0000 </r>
       <r>    25.8174     0.0000    72.0000 </r>
       <r>    25.9186     0.0000    72.0000 </r>
       <r>    26.0197     0.0000    72.0000 </r>
       <r>    26.1208     0.0000    72.0000 </r>
       <r>    26.2220     0.0000    72.0000 </r>
       <r>    26.3231     0.0000    72.0000 </r>
       <r>    26.4242     0.0000    72.0000 </r>
       <r>    26.5254     0.0000    72.0000 </r>
       <r>    26.6265     0.0000    72.0000 </r>
       <r>    26.7277     0.0000    72.0000 </r>
      </set>
     </set>
    </array>
   </total>
  </dos>
 </calculation>
 <structure name="finalpos" >
  <crystal>
   <varray name="basis" >
    <v>       0.00000000       2.07135712       2.07135712 </v>
    <v>      -2.07135712       0.00000000      -2.07135712 </v>
    <v>      -6.25733188      -8.32868900       6.25733188 </v>
   </varray>
   <i name="volume">     89.42882869 </i>
   <varray name="rec_basis" >
    <v>      -0.19290971       0.28986556       0.19290971 </v>
    <v>      -0.33784249       0.14493278      -0.14493278 </v>
    <v>      -0.04797693      -0.04797693       0.04797693 </v>
   </varray>
  </crystal>
  <varray name="positions" >
   <v>       0.80000000       0.40000000       0.20000000 </v>
   <v>       0.00140532       0.00070266       0.00210799 </v>
   <v>       0.20007925       0.60003962       0.80011887 </v>
   <v>       0.39992075       0.19996038       0.59988113 </v>
   <v>       0.59859468       0.79929734       0.39789201 </v>
  </varray>
 </structure>
</modeling>
