<?xml version="1.0" encoding="ISO-8859-1"?>
<modeling>
 <generator>
  <i name="program" type="string">vasp </i>
  <i name="version" type="string">5.3.5  </i>
  <i name="subversion" type="string">31Mar14 (build Jun 20 2014 13:15:13) complex                          parallel </i>
  <i name="platform" type="string">LinuxIFC </i>
  <i name="date" type="string">2025 12 12 </i>
  <i name="time" type="string">12:46:06 </i>
 </generator>
 <incar>
  <i type="string" name="PREC">accurate</i>
  <i type="int" name="IALGO">    38</i>
  <i type="logical" name="ADDGRID"> T  </i>
  <i type="int" name="ISPIN">     2</i>
  <i type="int" name="NELM">   100</i>
  <i type="int" name="NELMIN">     4</i>
  <i name="EDIFF">      0.00000100</i>
  <i name="ENCUT">    500.00000000</i>
  <i type="logical" name="LREAL"> F  </i>
  <i type="int" name="ISMEAR">     0</i>
  <i name="SIGMA">      0.05000000</i>
  <i type="logical" name="LWAVE"> F  </i>
  <i type="logical" name="LCHARG"> F  </i>
  <i type="int" name="NELM">   100</i>
  <i type="logical" name="LDAU"> T  </i>
  <v name="LDAUU">      0.00000000      4.00000000      0.00000000</v>
  <v name="LDAUJ">      0.00000000      0.00000000      0.00000000</v>
 </incar>
 <kpoints>
  <generation param="Auto">
   <i name="subdivisionlength">     20.00000000 </i>
   <v type="int" name="divisions">       2        3        4 </v>
   <v name="usershift">      0.00000000       0.00000000       0.00000000 </v>
   <v name="genvec1">      0.50000000       0.00000000       0.00000000 </v>
   <v name="genvec2">      0.00000000       0.33333333       0.00000000 </v>
   <v name="genvec3">      0.00000000       0.00000000       0.25000000 </v>
   <v name="shift">      0.00000000       0.00000000       0.00000000 </v>
  </generation>
  <varray name="kpointlist" >
   <v>       0.00000000       0.00000000       0.00000000 </v>
   <v>       0.50000000       0.00000000       0.00000000 </v>
   <v>       0.00000000       0.33333333       0.00000000 </v>
   <v>       0.50000000       0.33333333       0.00000000 </v>
   <v>       0.00000000       0.00000000       0.25000000 </v>
   <v>       0.50000000       0.00000000       0.25000000 </v>
   <v>       0.00000000       0.33333333       0.25000000 </v>
   <v>       0.50000000       0.33333333       0.25000000 </v>
   <v>       0.00000000       0.00000000       0.50000000 </v>
   <v>       0.50000000       0.00000000       0.50000000 </v>
   <v>       0.00000000       0.33333333       0.50000000 </v>
   <v>       0.50000000       0.33333333       0.50000000 </v>
  </varray>
  <varray name="weights" >
   <v>       0.04166667 </v>
   <v>       0.04166667 </v>
   <v>       0.08333333 </v>
   <v>       0.08333333 </v>
   <v>       0.08333333 </v>
   <v>       0.08333333 </v>
   <v>       0.16666667 </v>
   <v>       0.16666667 </v>
   <v>       0.04166667 </v>
   <v>       0.04166667 </v>
   <v>       0.08333333 </v>
   <v>       0.08333333 </v>
  </varray>
 </kpoints>
 <parameters>
  <separator name="general" >
   <i type="string" name="SYSTEM">unknown system</i>
   <i type="logical" name="LCOMPAT"> F  </i>
  </separator>
  <separator name="electronic" >
   <i type="string" name="PREC">accura</i>
   <i name="ENMAX">    500.00000000</i>
   <i name="ENAUG">    586.98000000</i>
   <i name="EDIFF">      0.00000100</i>
   <i type="int" name="IALGO">    38</i>
   <i type="int" name="IWAVPR">    10</i>
   <i type="int" name="NBANDS">   176</i>
   <i name="NELECT">    264.00000000</i>
   <i type="int" name="TURBO">     0</i>
   <i type="int" name="IRESTART">     0</i>
   <i type="int" name="NREBOOT">     0</i>
   <i type="int" name="NMIN">     0</i>
   <i name="EREF">      0.00000000</i>
   <separator name="electronic smearing" >
    <i type="int" name="ISMEAR">     0</i>
    <i name="SIGMA">      0.05000000</i>
    <i name="KSPACING">      0.50000000</i>
    <i type="logical" name="KGAMMA"> T  </i>
   </separator>
   <separator name="electronic projectors" >
    <i type="logical" name="LREAL"> F  </i>
    <v name="ROPT">      0.00000000      0.00000000      0.00000000</v>
    <i type="int" name="LMAXPAW">  -100</i>
    <i type="int" name="LMAXMIX">     2</i>
    <i type="logical" name="NLSPLINE"> F  </i>
   </separator>
   <separator name="electronic startup" >
    <i type="int" name="ISTART">     0</i>
    <i type="int" name="ICHARG">     2</i>
    <i type="int" name="INIWAV">     1</i>
   </separator>
   <separator name="electronic spin" >
    <i type="int" name="ISPIN">     2</i>
    <i type="logical" name="LNONCOLLINEAR"> F  </i>
    <v name="MAGMOM">      1.00000000      1.00000000      1.00000000      1.00000000      1.00000000      1.00000000      1.00000000      1.00000000      1.00000000      1.00000000      1.00000000      1.00000000      1.00000000      1.00000000      1.00000000      1.00000000      1.00000000      1.00000000      1.00000000      1.00000000
      1.00000000      1.00000000      1.00000000      1.00000000      1.00000000      1.00000000      1.00000000      1.00000000      1.00000000      1.00000000      1.00000000      1.00000000</v>
    <i name="NUPDOWN">     -1.00000000</i>
    <i type="logical" name="LSORBIT"> F  </i>
    <v name="SAXIS">      0.00000000      0.00000000      1.00000000</v>
    <i type="logical" name="LSPIRAL"> F  </i>
    <v name="QSPIRAL">      0.00000000      0.00000000      0.00000000</v>
    <i type="logical" name="LZEROZ"> F  </i>
   </separator>
   <separator name="electronic exchange-correlation" >
    <i type="logical" name="LASPH"> F  </i>
    <i type="logical" name="LMETAGGA"> F  </i>
   </separator>
   <separator name="electronic convergence" >
    <i type="int" name="NELM">   100</i>
    <i type="int" name="NELMDL">    -5</i>
    <i type="int" name="NELMIN">     4</i>
    <i name="ENINI">    500.00000000</i>
    <separator name="electronic convergence detail" >
     <i type="logical" name="LDIAG"> T  </i>
     <i type="logical" name="LSUBROT"> F  </i>
     <i name="WEIMIN">      0.00000000</i>
     <i name="EBREAK">      0.00000000</i>
     <i name="DEPER">      0.30000000</i>
     <i type="int" name="NRMM">     4</i>
     <i name="TIME">      0.40000000</i>
    </separator>
   </separator>
   <separator name="electronic mixer" >
    <i name="AMIX">      0.40000000</i>
    <i name="BMIX">      1.00000000</i>
    <i name="AMIN">      0.10000000</i>
    <i name="AMIX_MAG">      1.60000000</i>
    <i name="BMIX_MAG">      1.00000000</i>
    <separator name="electronic mixer details" >
     <i type="int" name="IMIX">     4</i>
     <i type="int" name="MAXMIX">   -45</i>
     <i name="WC">    100.00000000</i>
     <i type="int" name="INIMIX">     1</i>
     <i type="int" name="MIXPRE">     1</i>
     <i type="int" name="MREMOVE">     5</i>
    </separator>
   </separator>
   <separator name="electronic dipolcorrection" >
    <i type="logical" name="LDIPOL"> F  </i>
    <i type="logical" name="LMONO"> F  </i>
    <i type="int" name="IDIPOL">     0</i>
    <i name="EPSILON">      1.00000000</i>
    <v name="DIPOL">   -100.00000000   -100.00000000   -100.00000000</v>
    <i name="EFIELD">      0.00000000</i>
   </separator>
  </separator>
  <separator name="grids" >
   <i type="int" name="NGX">    84</i>
   <i type="int" name="NGY">    60</i>
   <i type="int" name="NGZ">    42</i>
   <i type="int" name="NGXF">   168</i>
   <i type="int" name="NGYF">   120</i>
   <i type="int" name="NGZF">    84</i>
   <i type="logical" name="ADDGRID"> T  </i>
  </separator>
  <separator name="ionic" >
   <i type="int" name="NSW">     0</i>
   <i type="int" name="IBRION">    -1</i>
   <i type="int" name="ISIF">     2</i>
   <i name="PSTRESS">      0.00000000</i>
   <i name="EDIFFG">      0.00001000</i>
   <i type="int" name="NFREE">     0</i>
   <i name="POTIM">      0.50000000</i>
   <i name="SMASS">     -3.00000000</i>
   <i name="SCALEE">      1.00000000</i>
  </separator>
  <separator name="ionic md" >
   <i name="TEBEG">      0.00010000</i>
   <i name="TEEND">      0.00010000</i>
   <i type="int" name="NBLOCK">     1</i>
   <i type="int" name="KBLOCK">     1</i>
   <i type="int" name="NPACO">   256</i>
   <i name="APACO">     16.00000000</i>
  </separator>
  <separator name="symmetry" >
   <i type="int" name="ISYM">     2</i>
   <i name="SYMPREC">      0.00001000</i>
  </separator>
  <separator name="dos" >
   <i type="logical" name="LORBIT"> F  </i>
   <v name="RWIGS">     -1.00000000     -1.00000000     -1.00000000</v>
   <i type="int" name="NEDOS">   301</i>
   <i name="EMIN">     10.00000000</i>
   <i name="EMAX">    -10.00000000</i>
   <i name="EFERMI">      0.00000000</i>
  </separator>
  <separator name="writing" >
   <i type="int" name="NWRITE">     2</i>
   <i type="logical" name="LWAVE"> F  </i>
   <i type="logical" name="LCHARG"> F  </i>
   <i type="logical" name="LPARD"> F  </i>
   <i type="logical" name="LVTOT"> F  </i>
   <i type="logical" name="LVHAR"> F  </i>
   <i type="logical" name="LELF"> F  </i>
   <i type="logical" name="LOPTICS"> F  </i>
   <v name="STM">      0.00000000      0.00000000      0.00000000      0.00000000      0.00000000      0.00000000      0.00000000</v>
  </separator>
  <separator name="performance" >
   <i type="int" name="NPAR">     4</i>
   <i type="int" name="NSIM">     4</i>
   <i type="int" name="NBLK">    -1</i>
   <i type="logical" name="LPLANE"> T  </i>
   <i type="logical" name="LSCALAPACK"> T  </i>
   <i type="logical" name="LSCAAWARE"> F  </i>
   <i type="logical" name="LSCALU"> F  </i>
   <i type="logical" name="LASYNC"> F  </i>
   <i type="logical" name="LORBITALREAL"> F  </i>
  </separator>
  <separator name="miscellaneous" >
   <i type="int" name="IDIOT">     3</i>
   <i type="logical" name="LMUSIC"> F  </i>
   <v name="POMASS">     87.62000000     63.54600000     16.00000000</v>
   <v name="DARWINR">      0.00000000      0.00000000      0.00000000</v>
   <v name="DARWINV">      1.00000000      1.00000000      1.00000000</v>
   <i type="logical" name="LCORR"> T  </i>
  </separator>
  <i type="logical" name="GGA_COMPAT"> T  </i>
  <i type="logical" name="LBERRY"> F  </i>
  <i type="int" name="ICORELEVEL">     0</i>
  <i type="logical" name="LDAU"> T  </i>
  <v type="int" name="LDAUTYPE">     2</v>
  <v type="int" name="LDAUL">     2</v>
  <v name="LDAUU">      0.00000000</v>
  <v name="LDAUJ">      0.00000000</v>
  <i type="int" name="LDAUPRINT">     0</i>
  <i type="int" name="I_CONSTRAINED_M">     0</i>
  <separator name="electronic exchange-correlation" >
   <i type="string" name="GGA">--</i>
   <i type="int" name="VOSKOWN">     0</i>
   <i type="logical" name="LHFCALC"> F  </i>
   <i type="string" name="PRECFOCK"></i>
   <i type="logical" name="LSYMGRAD"> F  </i>
   <i type="logical" name="LHFONE"> F  </i>
   <i type="logical" name="LRHFCALC"> F  </i>
   <i type="logical" name="LTHOMAS"> F  </i>
   <i type="logical" name="LMODELHF"> F  </i>
   <i name="ENCUT4O">     -1.00000000</i>
   <i type="int" name="EXXOEP">     0</i>
   <i type="int" name="FOURORBIT">     0</i>
   <i name="AEXX">      0.00000000</i>
   <i name="HFALPHA">      0.00000000</i>
   <i name="MCALPHA">      0.00000000</i>
   <i name="ALDAX">      1.00000000</i>
   <i name="AGGAX">      1.00000000</i>
   <i name="ALDAC">      1.00000000</i>
   <i name="AGGAC">      1.00000000</i>
   <i type="int" name="NKREDX">     1</i>
   <i type="int" name="NKREDY">     1</i>
   <i type="int" name="NKREDZ">     1</i>
   <i type="logical" name="SHIFTRED"> F  </i>
   <i type="logical" name="ODDONLY"> F  </i>
   <i type="logical" name="EVENONLY"> F  </i>
   <i type="int" name="LMAXFOCK">     0</i>
   <i type="int" name="NMAXFOCKAE">     0</i>
   <i type="logical" name="LFOCKAEDFT"> F  </i>
   <i name="HFSCREEN">      0.00000000</i>
   <i name="HFSCREENC">      0.00000000</i>
   <i type="int" name="NBANDSGWLOW">     0</i>
  </separator>
  <separator name="vdW DFT" >
   <i type="logical" name="LUSE_VDW"> F  </i>
   <i name="Zab_VDW">     -0.84910000</i>
   <i name="PARAM1">      0.12340000</i>
   <i name="PARAM2">      1.00000000</i>
   <i name="PARAM3">      0.00000000</i>
  </separator>
  <separator name="model GW" >
   <i type="int" name="MODEL_GW">     0</i>
   <i name="MODEL_EPS0">      9.60000000</i>
   <i name="MODEL_ALPHA">      1.00000000</i>
  </separator>
  <separator name="linear response parameters" >
   <i type="logical" name="LEPSILON"> F  </i>
   <i type="logical" name="LRPA"> F  </i>
   <i type="logical" name="LNABLA"> F  </i>
   <i type="logical" name="LVEL"> F  </i>
   <i type="int" name="KINTER">     0</i>
   <i name="CSHIFT">      0.10000000</i>
   <i name="OMEGAMAX">     -1.00000000</i>
   <i name="DEG_THRESHOLD">      0.00200000</i>
  </separator>
  <separator name="orbital magnetization" >
   <i type="logical" name="NUCIND"> F  </i>
   <v name="MAGPOS">      0.00000000      0.00000000      0.00000000</v>
   <i type="logical" name="LNICSALL"> T  </i>
   <i type="logical" name="ORBITALMAG"> F  </i>
   <i type="logical" name="LMAGBLOCH"> F  </i>
   <i type="logical" name="LCHIMAG"> F  </i>
   <i type="logical" name="LGAUGE"> T  </i>
   <i type="int" name="MAGATOM">     0</i>
   <v name="MAGDIPOL">      0.00000000      0.00000000      0.00000000</v>
   <v name="AVECCONST">      0.00000000      0.00000000      0.00000000</v>
  </separator>
  <separator name="response functions" >
   <i type="logical" name="LADDER"> F  </i>
   <i type="logical" name="LFXC"> F  </i>
   <i type="logical" name="LHARTREE"> T  </i>
   <i type="int" name="IBSE">     0</i>
   <i type="logical" name="LTCTE"> F  </i>
   <i type="logical" name="LTETE"> F  </i>
   <i type="logical" name="LTRIPLET"> F  </i>
   <i type="logical" name="LFXCEPS"> F  </i>
   <i type="logical" name="LFXHEG"> F  </i>
   <i type="logical" name="L2ORDER"> F  </i>
   <i type="logical" name="LUSEW"> F  </i>
   <i name="ENCUTGW">     -2.00000000</i>
   <i name="ENCUTGWSOFT">     -2.00000000</i>
   <i name="ENCUTLF">     -1.00000000</i>
   <i type="int" name="LMAXMP2">    -1</i>
   <i name="SCISSOR">      0.00000000</i>
   <i type="int" name="NOMEGA">     0</i>
   <i type="int" name="NOMEGAR">     0</i>
   <i type="int" name="NBANDSGW">    -1</i>
   <i type="int" name="NBANDSO">    -1</i>
   <i type="int" name="NBANDSV">    -1</i>
   <i type="int" name="NELM">   100</i>
   <i type="int" name="DIM">     3</i>
   <i type="int" name="ANTIRES">     0</i>
   <i name="OMEGAMAX">    -30.00000000</i>
   <i name="OMEGAMIN">    -30.00000000</i>
   <i name="OMEGATL">   -200.00000000</i>
   <i type="int" name="OMEGAGRID">     0</i>
   <i name="CSHIFT">     -0.10000000</i>
   <i type="logical" name="SELFENERGY"> F  </i>
   <i type="logical" name="LSPECTRAL"> F  </i>
   <i type="logical" name="ODDONLYGW"> F  </i>
   <i type="logical" name="EVENONLYGW"> F  </i>
   <i type="int" name="NKREDLFX">     1</i>
   <i type="int" name="NKREDLFY">     1</i>
   <i type="int" name="NKREDLFZ">     1</i>
   <i type="int" name="MAXMEM">  1800</i>
   <i type="int" name="TELESCOPE">     0</i>
   <i type="int" name="TAUPAR">     1</i>
  </separator>
  <separator name="External order field" >
   <i name="OFIELD_KAPPA">      0.00000000</i>
   <v name="OFIELD_K">      0.00000000      0.00000000      0.00000000</v>
   <i name="OFIELD_Q6_NEAR">      0.00000000</i>
   <i name="OFIELD_Q6_FAR">      0.00000000</i>
   <i name="OFIELD_A">      0.00000000</i>
  </separator>
 </parameters>
 <atominfo>
  <atoms>      32 </atoms>
  <types>       3 </types>
  <array name="atoms" >
   <dimension dim="1">ion</dimension>
   <field type="string">element</field>
   <field type="int">atomtype</field>
   <set>
    <rc><c>Sr</c><c>   1</c></rc>
    <rc><c>Sr</c><c>   1</c></rc>
    <rc><c>Sr</c><c>   1</c></rc>
    <rc><c>Sr</c><c>   1</c></rc>
    <rc><c>Sr</c><c>   1</c></rc>
    <rc><c>Sr</c><c>   1</c></rc>
    <rc><c>Sr</c><c>   1</c></rc>
    <rc><c>Sr</c><c>   1</c></rc>
    <rc><c>Cu</c><c>   2</c></rc>
    <rc><c>Cu</c><c>   2</c></rc>
    <rc><c>Cu</c><c>   2</c></rc>
    <rc><c>Cu</c><c>   2</c></rc>
    <rc><c>Cu</c><c>   2</c></rc>
    <rc><c>Cu</c><c>   2</c></rc>
    <rc><c>Cu</c><c>   2</c></rc>
    <rc><c>Cu</c><c>   2</c></rc>
    <rc><c>O </c><c>   3</c></rc>
    <rc><c>O </c><c>   3</c></rc>
    <rc><c>O </c><c>   3</c></rc>
    <rc><c>O </c><c>   3</c></rc>
    <rc><c>O </c><c>   3</c></rc>
    <rc><c>O </c><c>   3</c></rc>
    <rc><c>O </c><c>   3</c></rc>
    <rc><c>O </c><c>   3</c></rc>
    <rc><c>O </c><c>   3</c></rc>
    <rc><c>O </c><c>   3</c></rc>
    <rc><c>O </c><c>   3</c></rc>
    <rc><c>O </c><c>   3</c></rc>
    <rc><c>O </c><c>   3</c></rc>
    <rc><c>O </c><c>   3</c></rc>
    <rc><c>O </c><c>   3</c></rc>
    <rc><c>O </c><c>   3</c></rc>
   </set>
  </array>
  <array name="atomtypes" >
   <dimension dim="1">type</dimension>
   <field type="int">atomspertype</field>
   <field type="string">element</field>
   <field>mass</field>
   <field>valence</field>
   <field type="string">pseudopotential</field>
   <set>
    <rc><c>   8</c><c>Sr</c><c>     87.62000000</c><c>     10.00000000</c><c>  PAW_PBE Sr_sv 07Sep2000               </c></rc>
    <rc><c>   8</c><c>Cu</c><c>     63.54600000</c><c>     11.00000000</c><c>  PAW_PBE Cu 22Jun2005                  </c></rc>
    <rc><c>  16</c><c>O </c><c>     16.00000000</c><c>      6.00000000</c><c>  PAW_PBE O_s 07Sep2000                 </c></rc>
   </set>
  </array>
 </atominfo>
 <structure name="initialpos" >
  <crystal>
   <varray name="basis" >
    <v>      11.31370850       0.00000000       0.00000000 </v>
    <v>       0.00000000       8.00000000       0.00000000 </v>
    <v>       0.00000000       0.00000000       5.65685425 </v>
   </varray>
   <i name="volume">    512.00000000 </i>
   <varray name="rec_basis" >
    <v>       0.08838835       0.00000000       0.00000000 </v>
    <v>       0.00000000       0.12500000       0.00000000 </v>
    <v>       0.00000000       0.00000000       0.17677670 </v>
   </varray>
  </crystal>
  <varray name="positions" >
   <v>       0.62500000       0.75000000       0.75000000 </v>
   <v>       0.87500000       0.25000000       0.25000000 </v>
   <v>       0.62500000       0.25000000       0.75000000 </v>
   <v>       0.37500000       0.25000000       0.25000000 </v>
   <v>       0.12500000       0.25000000       0.75000000 </v>
   <v>       0.37500000       0.75000000       0.25000000 </v>
   <v>       0.12500000       0.75000000       0.75000000 </v>
   <v>       0.87500000       0.75000000       0.25000000 </v>
   <v>       0.62500000       0.50000000       0.25000000 </v>
   <v>       0.87500000       0.00000000       0.75000000 </v>
   <v>       0.62500000       0.00000000       0.25000000 </v>
   <v>       0.37500000       0.00000000       0.75000000 </v>
   <v>       0.12500000       0.00000000       0.25000000 </v>
   <v>       0.37500000       0.50000000       0.75000000 </v>
   <v>       0.12500000       0.50000000       0.25000000 </v>
   <v>       0.87500000       0.50000000       0.75000000 </v>
   <v>       0.50000000       0.00000000       0.00000000 </v>
   <v>       0.50000000       0.50000000       0.50000000 </v>
   <v>       0.75000000       0.00000000       0.00000000 </v>
   <v>       0.75000000       0.50000000       0.00000000 </v>
   <v>       0.62500000       0.75000000       0.25000000 </v>
   <v>       0.87500000       0.25000000       0.75000000 </v>
   <v>       0.62500000       0.25000000       0.25000000 </v>
   <v>       0.37500000       0.25000000       0.75000000 </v>
   <v>       0.00000000       0.50000000       0.00000000 </v>
   <v>       0.00000000       0.00000000       0.50000000 </v>
   <v>       0.25000000       0.50000000       0.00000000 </v>
   <v>       0.25000000       0.00000000       0.00000000 </v>
   <v>       0.12500000       0.25000000       0.25000000 </v>
   <v>       0.37500000       0.75000000       0.75000000 </v>
   <v>       0.12500000       0.75000000       0.25000000 </v>
   <v>       0.87500000       0.75000000       0.75000000 </v>
  </varray>
 </structure>
 <calculation>
  <scstep>
   <time name="dav">   12.27   12.28</time>
   <time name="total">   12.65   12.68</time>
   <energy>
    <i name="alphaZ">   1197.30728287 </i>
    <i name="ewald"> -17415.61993413 </i>
    <i name="hartreedc">  -7472.88380941 </i>
    <i name="XCdc">   1086.24571350 </i>
    <i name="pawpsdc">  20377.93945936 </i>
    <i name="pawaedc"> -21035.46554250 </i>
    <i name="eentropy">     -0.00916356 </i>
    <i name="bandstr">   1946.11662277 </i>
    <i name="atom">  24790.01456472 </i>
    <i name="e_fr_energy">   3473.64519363 </i>
    <i name="e_wo_entrp">   3473.65435719 </i>
    <i name="e_0_energy">   3473.64977541 </i>
   </energy>
  </scstep>
  <scstep>
   <time name="dav">   12.28   12.30</time>
   <time name="total">   12.29   12.31</time>
   <energy>
    <i name="e_fr_energy">    411.61718824 </i>
    <i name="e_wo_entrp">    411.62824910 </i>
    <i name="e_0_energy">    411.62271867 </i>
   </energy>
  </scstep>
  <scstep>
   <time name="dav">   12.35   12.36</time>
   <time name="total">   12.35   12.38</time>
   <energy>
    <i name="e_fr_energy">   -141.28690455 </i>
    <i name="e_wo_entrp">   -141.27040178 </i>
    <i name="e_0_energy">   -141.27865317 </i>
   </energy>
  </scstep>
  <scstep>
   <time name="dav">   16.12   16.13</time>
   <time name="total">   16.12   16.15</time>
   <energy>
    <i name="e_fr_energy">   -191.26108871 </i>
    <i name="e_wo_entrp">   -191.24353835 </i>
    <i name="e_0_energy">   -191.25231353 </i>
   </energy>
  </scstep>
  <scstep>
   <time name="dav">   19.51   19.52</time>
   <time name="total">   20.26   20.29</time>
   <energy>
    <i name="e_fr_energy">   -194.43643301 </i>
    <i name="e_wo_entrp">   -194.41787913 </i>
    <i name="e_0_energy">   -194.42715607 </i>
   </energy>
  </scstep>
  <scstep>
   <time name="dav">   17.11   17.11</time>
   <time name="total">   18.23   18.25</time>
   <energy>
    <i name="e_fr_energy">   -170.33380865 </i>
    <i name="e_wo_entrp">   -170.31111068 </i>
    <i name="e_0_energy">   -170.32245967 </i>
   </energy>
  </scstep>
  <scstep>
   <time name="dav">   16.81   16.81</time>
   <time name="total">   17.93   17.95</time>
   <energy>
    <i name="e_fr_energy">   -159.12993935 </i>
    <i name="e_wo_entrp">   -159.11477032 </i>
    <i name="e_0_energy">   -159.12235483 </i>
   </energy>
  </scstep>
  <scstep>
   <time name="dav">   17.49   17.50</time>
   <time name="total">   18.61   18.64</time>
   <energy>
    <i name="e_fr_energy">   -158.94828867 </i>
    <i name="e_wo_entrp">   -158.94128071 </i>
    <i name="e_0_energy">   -158.94478469 </i>
   </energy>
  </scstep>
  <scstep>
   <time name="dav">   17.43   17.49</time>
   <time name="total">   18.55   18.63</time>
   <energy>
    <i name="e_fr_energy">   -159.88019214 </i>
    <i name="e_wo_entrp">   -159.85980721 </i>
    <i name="e_0_energy">   -159.86999967 </i>
   </energy>
  </scstep>
  <scstep>
   <time name="dav">   16.62   16.63</time>
   <time name="total">   17.74   17.77</time>
   <energy>
    <i name="e_fr_energy">   -158.43847250 </i>
    <i name="e_wo_entrp">   -158.42603473 </i>
    <i name="e_0_energy">   -158.43225361 </i>
   </energy>
  </scstep>
  <scstep>
   <time name="dav">   17.70   17.70</time>
   <time name="total">   18.82   18.84</time>
   <energy>
    <i name="e_fr_energy">   -158.78356953 </i>
    <i name="e_wo_entrp">   -158.77127471 </i>
    <i name="e_0_energy">   -158.77742212 </i>
   </energy>
  </scstep>
  <scstep>
   <time name="dav">   17.08   17.10</time>
   <time name="total">   18.21   18.24</time>
   <energy>
    <i name="e_fr_energy">   -158.91805136 </i>
    <i name="e_wo_entrp">   -158.90724206 </i>
    <i name="e_0_energy">   -158.91264671 </i>
   </energy>
  </scstep>
  <scstep>
   <time name="dav">   15.92   15.97</time>
   <time name="total">   17.05   17.11</time>
   <energy>
    <i name="e_fr_energy">   -158.95770929 </i>
    <i name="e_wo_entrp">   -158.94825314 </i>
    <i name="e_0_energy">   -158.95298121 </i>
   </energy>
  </scstep>
  <scstep>
   <time name="dav">   18.48   18.54</time>
   <time name="total">   19.61   19.68</time>
   <energy>
    <i name="e_fr_energy">   -158.95611043 </i>
    <i name="e_wo_entrp">   -158.94671598 </i>
    <i name="e_0_energy">   -158.95141321 </i>
   </energy>
  </scstep>
  <scstep>
   <time name="dav">   17.39   17.40</time>
   <time name="total">   18.52   18.54</time>
   <energy>
    <i name="e_fr_energy">   -158.95812219 </i>
    <i name="e_wo_entrp">   -158.94843880 </i>
    <i name="e_0_energy">   -158.95328049 </i>
   </energy>
  </scstep>
  <scstep>
   <time name="dav">   17.47   17.48</time>
   <time name="total">   18.59   18.61</time>
   <energy>
    <i name="e_fr_energy">   -158.95911601 </i>
    <i name="e_wo_entrp">   -158.94909259 </i>
    <i name="e_0_energy">   -158.95410430 </i>
   </energy>
  </scstep>
  <scstep>
   <time name="dav">   18.78   18.80</time>
   <time name="total">   19.90   19.94</time>
   <energy>
    <i name="e_fr_energy">   -158.95953533 </i>
    <i name="e_wo_entrp">   -158.94940970 </i>
    <i name="e_0_energy">   -158.95447251 </i>
   </energy>
  </scstep>
  <scstep>
   <time name="dav">   18.09   18.17</time>
   <time name="total">   19.21   19.31</time>
   <energy>
    <i name="e_fr_energy">   -158.95983473 </i>
    <i name="e_wo_entrp">   -158.94951768 </i>
    <i name="e_0_energy">   -158.95467620 </i>
   </energy>
  </scstep>
  <scstep>
   <time name="dav">   17.73   17.75</time>
   <time name="total">   18.85   18.88</time>
   <energy>
    <i name="e_fr_energy">   -158.96003262 </i>
    <i name="e_wo_entrp">   -158.94953878 </i>
    <i name="e_0_energy">   -158.95478570 </i>
   </energy>
  </scstep>
  <scstep>
   <time name="dav">   17.61   17.62</time>
   <time name="total">   18.73   18.76</time>
   <energy>
    <i name="e_fr_energy">   -158.96019896 </i>
    <i name="e_wo_entrp">   -158.94934664 </i>
    <i name="e_0_energy">   -158.95477280 </i>
   </energy>
  </scstep>
  <scstep>
   <time name="dav">   16.54   16.55</time>
   <time name="total">   17.67   17.69</time>
   <energy>
    <i name="e_fr_energy">   -158.96039174 </i>
    <i name="e_wo_entrp">   -158.94943202 </i>
    <i name="e_0_energy">   -158.95491188 </i>
   </energy>
  </scstep>
  <scstep>
   <time name="dav">   15.59   15.59</time>
   <time name="total">   16.71   16.73</time>
   <energy>
    <i name="e_fr_energy">   -158.96044295 </i>
    <i name="e_wo_entrp">   -158.94939268 </i>
    <i name="e_0_energy">   -158.95491782 </i>
   </energy>
  </scstep>
  <scstep>
   <time name="dav">   13.98   13.98</time>
   <time name="total">   15.10   15.12</time>
   <energy>
    <i name="e_fr_energy">   -158.96046122 </i>
    <i name="e_wo_entrp">   -158.94936546 </i>
    <i name="e_0_energy">   -158.95491334 </i>
   </energy>
  </scstep>
  <scstep>
   <time name="dav">   14.50   14.51</time>
   <time name="total">   15.63   15.65</time>
   <energy>
    <i name="e_fr_energy">   -158.96037364 </i>
    <i name="e_wo_entrp">   -158.94936058 </i>
    <i name="e_0_energy">   -158.95486711 </i>
   </energy>
  </scstep>
  <scstep>
   <time name="dav">   13.49   13.50</time>
   <time name="total">   14.62   14.64</time>
   <energy>
    <i name="e_fr_energy">   -158.96037417 </i>
    <i name="e_wo_entrp">   -158.94939347 </i>
    <i name="e_0_energy">   -158.95488382 </i>
   </energy>
  </scstep>
  <scstep>
   <time name="dav">    9.89    9.89</time>
   <time name="total">   11.02   11.03</time>
   <energy>
    <i name="e_fr_energy">   -158.96037605 </i>
    <i name="e_wo_entrp">   -158.94941103 </i>
    <i name="e_0_energy">   -158.95489354 </i>
   </energy>
  </scstep>
  <scstep>
   <time name="dav">   15.10   15.10</time>
   <time name="total">   16.22   16.24</time>
   <energy>
    <i name="e_fr_energy">   -158.96030413 </i>
    <i name="e_wo_entrp">   -158.94942727 </i>
    <i name="e_0_energy">   -158.95486570 </i>
   </energy>
  </scstep>
  <scstep>
   <time name="dav">   15.94   15.95</time>
   <time name="total">   17.07   17.09</time>
   <energy>
    <i name="e_fr_energy">   -158.96020354 </i>
    <i name="e_wo_entrp">   -158.94944248 </i>
    <i name="e_0_energy">   -158.95482301 </i>
   </energy>
  </scstep>
  <scstep>
   <time name="dav">   13.69   13.69</time>
   <time name="total">   14.81   14.83</time>
   <energy>
    <i name="e_fr_energy">   -158.96017053 </i>
    <i name="e_wo_entrp">   -158.94948805 </i>
    <i name="e_0_energy">   -158.95482929 </i>
   </energy>
  </scstep>
  <scstep>
   <time name="dav">   15.76   15.76</time>
   <time name="total">   16.89   16.91</time>
   <energy>
    <i name="e_fr_energy">   -158.95997110 </i>
    <i name="e_wo_entrp">   -158.94945803 </i>
    <i name="e_0_energy">   -158.95471457 </i>
   </energy>
  </scstep>
  <scstep>
   <time name="dav">   15.44   15.44</time>
   <time name="total">   16.56   16.58</time>
   <energy>
    <i name="e_fr_energy">   -158.95994847 </i>
    <i name="e_wo_entrp">   -158.94952996 </i>
    <i name="e_0_energy">   -158.95473922 </i>
   </energy>
  </scstep>
  <scstep>
   <time name="dav">   12.80   12.81</time>
   <time name="total">   13.92   13.95</time>
   <energy>
    <i name="e_fr_energy">   -158.95992176 </i>
    <i name="e_wo_entrp">   -158.94956217 </i>
    <i name="e_0_energy">   -158.95474197 </i>
   </energy>
  </scstep>
  <scstep>
   <time name="dav">   10.59   10.59</time>
   <time name="total">   11.71   11.73</time>
   <energy>
    <i name="e_fr_energy">   -158.95991514 </i>
    <i name="e_wo_entrp">   -158.94958501 </i>
    <i name="e_0_energy">   -158.95475008 </i>
   </energy>
  </scstep>
  <scstep>
   <time name="dav">   10.17   10.18</time>
   <time name="total">   11.30   11.32</time>
   <energy>
    <i name="e_fr_energy">   -158.95991836 </i>
    <i name="e_wo_entrp">   -158.94959860 </i>
    <i name="e_0_energy">   -158.95475848 </i>
   </energy>
  </scstep>
  <scstep>
   <time name="dav">   10.46   10.46</time>
   <time name="total">   11.59   11.61</time>
   <energy>
    <i name="e_fr_energy">   -158.95998501 </i>
    <i name="e_wo_entrp">   -158.94961631 </i>
    <i name="e_0_energy">   -158.95480066 </i>
   </energy>
  </scstep>
  <scstep>
   <time name="dav">   13.89   13.90</time>
   <time name="total">   15.02   15.04</time>
   <energy>
    <i name="e_fr_energy">   -158.96006426 </i>
    <i name="e_wo_entrp">   -158.94961264 </i>
    <i name="e_0_energy">   -158.95483845 </i>
   </energy>
  </scstep>
  <scstep>
   <time name="dav">   14.48   14.48</time>
   <time name="total">   15.65   15.67</time>
   <energy>
    <i name="e_fr_energy">   -158.96013965 </i>
    <i name="e_wo_entrp">   -158.94959391 </i>
    <i name="e_0_energy">   -158.95486678 </i>
   </energy>
  </scstep>
  <scstep>
   <time name="dav">   16.30   16.31</time>
   <time name="total">   17.43   17.45</time>
   <energy>
    <i name="e_fr_energy">   -158.96029375 </i>
    <i name="e_wo_entrp">   -158.94951803 </i>
    <i name="e_0_energy">   -158.95490589 </i>
   </energy>
  </scstep>
  <scstep>
   <time name="dav">   17.25   17.25</time>
   <time name="total">   18.38   18.40</time>
   <energy>
    <i name="e_fr_energy">   -158.96039862 </i>
    <i name="e_wo_entrp">   -158.94946649 </i>
    <i name="e_0_energy">   -158.95493256 </i>
   </energy>
  </scstep>
  <scstep>
   <time name="dav">   14.08   14.08</time>
   <time name="total">   15.20   15.22</time>
   <energy>
    <i name="e_fr_energy">   -158.96042361 </i>
    <i name="e_wo_entrp">   -158.94943918 </i>
    <i name="e_0_energy">   -158.95493140 </i>
   </energy>
  </scstep>
  <scstep>
   <time name="dav">   12.29   12.29</time>
   <time name="total">   13.42   13.43</time>
   <energy>
    <i name="e_fr_energy">   -158.96047310 </i>
    <i name="e_wo_entrp">   -158.94940473 </i>
    <i name="e_0_energy">   -158.95493892 </i>
   </energy>
  </scstep>
  <scstep>
   <time name="dav">   12.27   12.28</time>
   <time name="total">   13.40   13.43</time>
   <energy>
    <i name="e_fr_energy">   -158.96049977 </i>
    <i name="e_wo_entrp">   -158.94937396 </i>
    <i name="e_0_energy">   -158.95493687 </i>
   </energy>
  </scstep>
  <scstep>
   <time name="dav">   12.63   12.64</time>
   <time name="total">   13.76   13.78</time>
   <energy>
    <i name="e_fr_energy">   -158.96045832 </i>
    <i name="e_wo_entrp">   -158.94936574 </i>
    <i name="e_0_energy">   -158.95491203 </i>
   </energy>
  </scstep>
  <scstep>
   <time name="dav">   15.01   15.02</time>
   <time name="total">   16.16   16.19</time>
   <energy>
    <i name="e_fr_energy">   -158.96035316 </i>
    <i name="e_wo_entrp">   -158.94936787 </i>
    <i name="e_0_energy">   -158.95486052 </i>
   </energy>
  </scstep>
  <scstep>
   <time name="dav">   13.04   13.04</time>
   <time name="total">   14.17   14.19</time>
   <energy>
    <i name="e_fr_energy">   -158.96032818 </i>
    <i name="e_wo_entrp">   -158.94941263 </i>
    <i name="e_0_energy">   -158.95487041 </i>
   </energy>
  </scstep>
  <scstep>
   <time name="dav">   10.84   10.84</time>
   <time name="total">   11.98   11.99</time>
   <energy>
    <i name="e_fr_energy">   -158.96030673 </i>
    <i name="e_wo_entrp">   -158.94943732 </i>
    <i name="e_0_energy">   -158.95487202 </i>
   </energy>
  </scstep>
  <scstep>
   <time name="dav">   11.03   11.04</time>
   <time name="total">   12.17   12.19</time>
   <energy>
    <i name="e_fr_energy">   -158.96031533 </i>
    <i name="e_wo_entrp">   -158.94945812 </i>
    <i name="e_0_energy">   -158.95488672 </i>
   </energy>
  </scstep>
  <scstep>
   <time name="dav">   14.15   14.16</time>
   <time name="total">   15.28   15.31</time>
   <energy>
    <i name="e_fr_energy">   -158.96041465 </i>
    <i name="e_wo_entrp">   -158.94944185 </i>
    <i name="e_0_energy">   -158.95492825 </i>
   </energy>
  </scstep>
  <scstep>
   <time name="dav">   14.46   14.46</time>
   <time name="total">   15.60   15.61</time>
   <energy>
    <i name="e_fr_energy">   -158.96047081 </i>
    <i name="e_wo_entrp">   -158.94939467 </i>
    <i name="e_0_energy">   -158.95493274 </i>
   </energy>
  </scstep>
  <scstep>
   <time name="dav">   12.46   12.47</time>
   <time name="total">   13.60   13.62</time>
   <energy>
    <i name="e_fr_energy">   -158.96046640 </i>
    <i name="e_wo_entrp">   -158.94937530 </i>
    <i name="e_0_energy">   -158.95492085 </i>
   </energy>
  </scstep>
  <scstep>
   <time name="dav">   14.81   14.81</time>
   <time name="total">   15.94   15.96</time>
   <energy>
    <i name="e_fr_energy">   -158.96032664 </i>
    <i name="e_wo_entrp">   -158.94936286 </i>
    <i name="e_0_energy">   -158.95484475 </i>
   </energy>
  </scstep>
  <scstep>
   <time name="dav">   12.74   12.74</time>
   <time name="total">   13.90   13.92</time>
   <energy>
    <i name="e_fr_energy">   -158.96033798 </i>
    <i name="e_wo_entrp">   -158.94942022 </i>
    <i name="e_0_energy">   -158.95487910 </i>
   </energy>
  </scstep>
  <scstep>
   <time name="dav">   12.42   12.42</time>
   <time name="total">   13.56   13.57</time>
   <energy>
    <i name="e_fr_energy">   -158.96040589 </i>
    <i name="e_wo_entrp">   -158.94943348 </i>
    <i name="e_0_energy">   -158.95491969 </i>
   </energy>
  </scstep>
  <scstep>
   <time name="dav">   14.26   14.26</time>
   <time name="total">   15.39   15.41</time>
   <energy>
    <i name="e_fr_energy">   -158.96046722 </i>
    <i name="e_wo_entrp">   -158.94939675 </i>
    <i name="e_0_energy">   -158.95493199 </i>
   </energy>
  </scstep>
  <scstep>
   <time name="dav">   16.51   16.51</time>
   <time name="total">   17.65   17.67</time>
   <energy>
    <i name="e_fr_energy">   -158.96055345 </i>
    <i name="e_wo_entrp">   -158.94927739 </i>
    <i name="e_0_energy">   -158.95491542 </i>
   </energy>
  </scstep>
  <scstep>
   <time name="dav">   15.86   15.86</time>
   <time name="total">   16.99   17.02</time>
   <energy>
    <i name="e_fr_energy">   -158.96061052 </i>
    <i name="e_wo_entrp">   -158.94923213 </i>
    <i name="e_0_energy">   -158.95492132 </i>
   </energy>
  </scstep>
  <scstep>
   <time name="dav">   11.42   11.42</time>
   <time name="total">   12.57   12.59</time>
   <energy>
    <i name="e_fr_energy">   -158.96062722 </i>
    <i name="e_wo_entrp">   -158.94920046 </i>
    <i name="e_0_energy">   -158.95491384 </i>
   </energy>
  </scstep>
  <scstep>
   <time name="dav">   11.59   11.66</time>
   <time name="total">   12.73   12.82</time>
   <energy>
    <i name="e_fr_energy">   -158.96060822 </i>
    <i name="e_wo_entrp">   -158.94919737 </i>
    <i name="e_0_energy">   -158.95490280 </i>
   </energy>
  </scstep>
  <scstep>
   <time name="dav">    9.99   10.00</time>
   <time name="total">   11.12   11.15</time>
   <energy>
    <i name="e_fr_energy">   -158.96060205 </i>
    <i name="e_wo_entrp">   -158.94920467 </i>
    <i name="e_0_energy">   -158.95490336 </i>
   </energy>
  </scstep>
  <scstep>
   <time name="dav">    8.45    8.45</time>
   <time name="total">    9.59    9.60</time>
   <energy>
    <i name="e_fr_energy">   -158.96060405 </i>
    <i name="e_wo_entrp">   -158.94920867 </i>
    <i name="e_0_energy">   -158.95490636 </i>
   </energy>
  </scstep>
  <scstep>
   <time name="dav">   13.38   13.38</time>
   <time name="total">   14.51   14.53</time>
   <energy>
    <i name="e_fr_energy">   -158.96065964 </i>
    <i name="e_wo_entrp">   -158.94914920 </i>
    <i name="e_0_energy">   -158.95490442 </i>
   </energy>
  </scstep>
  <scstep>
   <time name="dav">   11.60   11.61</time>
   <time name="total">   12.74   12.76</time>
   <energy>
    <i name="e_fr_energy">   -158.96067517 </i>
    <i name="e_wo_entrp">   -158.94911668 </i>
    <i name="e_0_energy">   -158.95489592 </i>
   </energy>
  </scstep>
  <scstep>
   <time name="dav">    9.71    9.72</time>
   <time name="total">   10.84   10.87</time>
   <energy>
    <i name="e_fr_energy">   -158.96068251 </i>
    <i name="e_wo_entrp">   -158.94909508 </i>
    <i name="e_0_energy">   -158.95488880 </i>
   </energy>
  </scstep>
  <scstep>
   <time name="dav">   10.05   10.05</time>
   <time name="total">   11.18   11.20</time>
   <energy>
    <i name="e_fr_energy">   -158.96067768 </i>
    <i name="e_wo_entrp">   -158.94908838 </i>
    <i name="e_0_energy">   -158.95488303 </i>
   </energy>
  </scstep>
  <scstep>
   <time name="dav">    9.84    9.85</time>
   <time name="total">   10.98   11.01</time>
   <energy>
    <i name="e_fr_energy">   -158.96064540 </i>
    <i name="e_wo_entrp">   -158.94910347 </i>
    <i name="e_0_energy">   -158.95487443 </i>
   </energy>
  </scstep>
  <scstep>
   <time name="dav">   16.09   16.10</time>
   <time name="total">   17.23   17.25</time>
   <energy>
    <i name="e_fr_energy">   -158.96053607 </i>
    <i name="e_wo_entrp">   -158.94913913 </i>
    <i name="e_0_energy">   -158.95483760 </i>
   </energy>
  </scstep>
  <scstep>
   <time name="dav">   13.34   13.35</time>
   <time name="total">   14.48   14.50</time>
   <energy>
    <i name="e_fr_energy">   -158.96057013 </i>
    <i name="e_wo_entrp">   -158.94920970 </i>
    <i name="e_0_energy">   -158.95488991 </i>
   </energy>
  </scstep>
  <scstep>
   <time name="dav">   14.10   14.11</time>
   <time name="total">   15.24   15.26</time>
   <energy>
    <i name="e_fr_energy">   -158.96046500 </i>
    <i name="e_wo_entrp">   -158.94923196 </i>
    <i name="e_0_energy">   -158.95484848 </i>
   </energy>
  </scstep>
  <scstep>
   <time name="dav">   15.47   15.47</time>
   <time name="total">   16.60   16.62</time>
   <energy>
    <i name="e_fr_energy">   -158.96041309 </i>
    <i name="e_wo_entrp">   -158.94928993 </i>
    <i name="e_0_energy">   -158.95485151 </i>
   </energy>
  </scstep>
  <scstep>
   <time name="dav">   12.69   12.69</time>
   <time name="total">   13.83   13.85</time>
   <energy>
    <i name="e_fr_energy">   -158.96044270 </i>
    <i name="e_wo_entrp">   -158.94934374 </i>
    <i name="e_0_energy">   -158.95489322 </i>
   </energy>
  </scstep>
  <scstep>
   <time name="dav">   10.05   10.05</time>
   <time name="total">   11.18   11.20</time>
   <energy>
    <i name="e_fr_energy">   -158.96043908 </i>
    <i name="e_wo_entrp">   -158.94935708 </i>
    <i name="e_0_energy">   -158.95489808 </i>
   </energy>
  </scstep>
  <scstep>
   <time name="dav">    8.39    8.39</time>
   <time name="total">    9.53    9.54</time>
   <energy>
    <i name="e_fr_energy">   -158.96042141 </i>
    <i name="e_wo_entrp">   -158.94936493 </i>
    <i name="e_0_energy">   -158.95489317 </i>
   </energy>
  </scstep>
  <scstep>
   <time name="dav">   13.61   13.61</time>
   <time name="total">   14.74   14.76</time>
   <energy>
    <i name="e_fr_energy">   -158.96031483 </i>
    <i name="e_wo_entrp">   -158.94936298 </i>
    <i name="e_0_energy">   -158.95483890 </i>
   </energy>
  </scstep>
  <scstep>
   <time name="dav">   15.40   15.40</time>
   <time name="total">   16.53   16.55</time>
   <energy>
    <i name="e_fr_energy">   -158.96026231 </i>
    <i name="e_wo_entrp">   -158.94939893 </i>
    <i name="e_0_energy">   -158.95483062 </i>
   </energy>
  </scstep>
  <scstep>
   <time name="dav">   12.37   12.38</time>
   <time name="total">   13.51   13.53</time>
   <energy>
    <i name="e_fr_energy">   -158.96028940 </i>
    <i name="e_wo_entrp">   -158.94944239 </i>
    <i name="e_0_energy">   -158.95486589 </i>
   </energy>
  </scstep>
  <scstep>
   <time name="dav">   10.65   10.65</time>
   <time name="total">   11.79   11.80</time>
   <energy>
    <i name="e_fr_energy">   -158.96032096 </i>
    <i name="e_wo_entrp">   -158.94945206 </i>
    <i name="e_0_energy">   -158.95488651 </i>
   </energy>
  </scstep>
  <scstep>
   <time name="dav">    9.15    9.15</time>
   <time name="total">   10.28   10.30</time>
   <energy>
    <i name="e_fr_energy">   -158.96034266 </i>
    <i name="e_wo_entrp">   -158.94944461 </i>
    <i name="e_0_energy">   -158.95489364 </i>
   </energy>
  </scstep>
  <scstep>
   <time name="dav">   11.52   11.52</time>
   <time name="total">   12.65   12.67</time>
   <energy>
    <i name="e_fr_energy">   -158.96039763 </i>
    <i name="e_wo_entrp">   -158.94942572 </i>
    <i name="e_0_energy">   -158.95491167 </i>
   </energy>
  </scstep>
  <scstep>
   <time name="dav">   14.55   14.56</time>
   <time name="total">   15.68   15.71</time>
   <energy>
    <i name="e_fr_energy">   -158.96043616 </i>
    <i name="e_wo_entrp">   -158.94939730 </i>
    <i name="e_0_energy">   -158.95491673 </i>
   </energy>
  </scstep>
  <scstep>
   <time name="dav">   10.23   10.23</time>
   <time name="total">   11.36   11.38</time>
   <energy>
    <i name="e_fr_energy">   -158.96043945 </i>
    <i name="e_wo_entrp">   -158.94937855 </i>
    <i name="e_0_energy">   -158.95490900 </i>
   </energy>
  </scstep>
  <scstep>
   <time name="dav">   13.59   13.59</time>
   <time name="total">   14.72   14.74</time>
   <energy>
    <i name="e_fr_energy">   -158.96033901 </i>
    <i name="e_wo_entrp">   -158.94936760 </i>
    <i name="e_0_energy">   -158.95485331 </i>
   </energy>
  </scstep>
  <scstep>
   <time name="dav">   11.93   11.94</time>
   <time name="total">   13.06   13.08</time>
   <energy>
    <i name="e_fr_energy">   -158.96032343 </i>
    <i name="e_wo_entrp">   -158.94940255 </i>
    <i name="e_0_energy">   -158.95486299 </i>
   </energy>
  </scstep>
  <scstep>
   <time name="dav">    9.74    9.74</time>
   <time name="total">   10.87   10.89</time>
   <energy>
    <i name="e_fr_energy">   -158.96033993 </i>
    <i name="e_wo_entrp">   -158.94942487 </i>
    <i name="e_0_energy">   -158.95488240 </i>
   </energy>
  </scstep>
  <scstep>
   <time name="dav">    8.80    8.80</time>
   <time name="total">    9.91    9.97</time>
   <energy>
    <i name="e_fr_energy">   -158.96035207 </i>
    <i name="e_wo_entrp">   -158.94942797 </i>
    <i name="e_0_energy">   -158.95489002 </i>
   </energy>
  </scstep>
  <scstep>
   <time name="dav">    8.35    8.35</time>
   <time name="total">    9.48    9.50</time>
   <energy>
    <i name="e_fr_energy">   -158.96037438 </i>
    <i name="e_wo_entrp">   -158.94942314 </i>
    <i name="e_0_energy">   -158.95489876 </i>
   </energy>
  </scstep>
  <scstep>
   <time name="dav">    9.87    9.87</time>
   <time name="total">   11.00   11.02</time>
   <energy>
    <i name="e_fr_energy">   -158.96030829 </i>
    <i name="e_wo_entrp">   -158.94941181 </i>
    <i name="e_0_energy">   -158.95486005 </i>
   </energy>
  </scstep>
  <scstep>
   <time name="dav">    8.38    8.38</time>
   <time name="total">    9.52    9.53</time>
   <energy>
    <i name="e_fr_energy">   -158.96033216 </i>
    <i name="e_wo_entrp">   -158.94943389 </i>
    <i name="e_0_energy">   -158.95488302 </i>
   </energy>
  </scstep>
  <scstep>
   <time name="dav">    8.35    8.35</time>
   <time name="total">    9.48    9.50</time>
   <energy>
    <i name="e_fr_energy">   -158.96033775 </i>
    <i name="e_wo_entrp">   -158.94943400 </i>
    <i name="e_0_energy">   -158.95488588 </i>
   </energy>
  </scstep>
  <scstep>
   <time name="dav">    8.21    8.21</time>
   <time name="total">    9.35    9.36</time>
   <energy>
    <i name="e_fr_energy">   -158.96034230 </i>
    <i name="e_wo_entrp">   -158.94943223 </i>
    <i name="e_0_energy">   -158.95488726 </i>
   </energy>
  </scstep>
  <scstep>
   <time name="dav">    8.32    8.32</time>
   <time name="total">    9.45    9.47</time>
   <energy>
    <i name="e_fr_energy">   -158.96033772 </i>
    <i name="e_wo_entrp">   -158.94943002 </i>
    <i name="e_0_energy">   -158.95488387 </i>
   </energy>
  </scstep>
  <scstep>
   <time name="dav">    9.21    9.21</time>
   <time name="total">   10.35   10.36</time>
   <energy>
    <i name="e_fr_energy">   -158.96038035 </i>
    <i name="e_wo_entrp">   -158.94942597 </i>
    <i name="e_0_energy">   -158.95490316 </i>
   </energy>
  </scstep>
  <scstep>
   <time name="dav">   13.69   13.69</time>
   <time name="total">   14.83   14.85</time>
   <energy>
    <i name="e_fr_energy">   -158.96043507 </i>
    <i name="e_wo_entrp">   -158.94939912 </i>
    <i name="e_0_energy">   -158.95491709 </i>
   </energy>
  </scstep>
  <scstep>
   <time name="dav">   13.17   13.18</time>
   <time name="total">   14.31   14.33</time>
   <energy>
    <i name="e_fr_energy">   -158.96046983 </i>
    <i name="e_wo_entrp">   -158.94936880 </i>
    <i name="e_0_energy">   -158.95491931 </i>
   </energy>
  </scstep>
  <scstep>
   <time name="dav">   11.47   11.48</time>
   <time name="total">   12.61   12.63</time>
   <energy>
    <i name="e_fr_energy">   -158.96050516 </i>
    <i name="e_wo_entrp">   -158.94933692 </i>
    <i name="e_0_energy">   -158.95492104 </i>
   </energy>
  </scstep>
  <scstep>
   <time name="dav">   11.09   11.09</time>
   <time name="total">   11.47   11.49</time>
   <energy>
    <i name="alphaZ">   1197.30728287 </i>
    <i name="ewald"> -17415.61993413 </i>
    <i name="hartreedc">  -7489.98867492 </i>
    <i name="XCdc">   1087.37267519 </i>
    <i name="pawpsdc">  31163.05422880 </i>
    <i name="pawaedc"> -31894.02386829 </i>
    <i name="eentropy">     -0.01118517 </i>
    <i name="bandstr">  -1597.06559394 </i>
    <i name="atom">  24790.01456472 </i>
    <i name="e_fr_energy">   -158.96050486 </i>
    <i name="e_wo_entrp">   -158.94931969 </i>
    <i name="e_0_energy">   -158.95491228 </i>
   </energy>
  </scstep>
  <structure>
   <crystal>
    <varray name="basis" >
     <v>      11.31370850       0.00000000       0.00000000 </v>
     <v>       0.00000000       8.00000000       0.00000000 </v>
     <v>       0.00000000       0.00000000       5.65685425 </v>
    </varray>
    <i name="volume">    512.00000000 </i>
    <varray name="rec_basis" >
     <v>       0.08838835       0.00000000       0.00000000 </v>
     <v>       0.00000000       0.12500000       0.00000000 </v>
     <v>       0.00000000       0.00000000       0.17677670 </v>
    </varray>
   </crystal>
   <varray name="positions" >
    <v>       0.62500000       0.75000000       0.75000000 </v>
    <v>       0.87500000       0.25000000       0.25000000 </v>
    <v>       0.62500000       0.25000000       0.75000000 </v>
    <v>       0.37500000       0.25000000       0.25000000 </v>
    <v>       0.12500000       0.25000000       0.75000000 </v>
    <v>       0.37500000       0.75000000       0.25000000 </v>
    <v>       0.12500000       0.75000000       0.75000000 </v>
    <v>       0.87500000       0.75000000       0.25000000 </v>
    <v>       0.62500000       0.50000000       0.25000000 </v>
    <v>       0.87500000       0.00000000       0.75000000 </v>
    <v>       0.62500000       0.00000000       0.25000000 </v>
    <v>       0.37500000       0.00000000       0.75000000 </v>
    <v>       0.12500000       0.00000000       0.25000000 </v>
    <v>       0.37500000       0.50000000       0.75000000 </v>
    <v>       0.12500000       0.50000000       0.25000000 </v>
    <v>       0.87500000       0.50000000       0.75000000 </v>
    <v>       0.50000000       0.00000000       0.00000000 </v>
    <v>       0.50000000       0.50000000       0.50000000 </v>
    <v>       0.75000000       0.00000000       0.00000000 </v>
    <v>       0.75000000       0.50000000       0.00000000 </v>
    <v>       0.62500000       0.75000000       0.25000000 </v>
    <v>       0.87500000       0.25000000       0.75000000 </v>
    <v>       0.62500000       0.25000000       0.25000000 </v>
    <v>       0.37500000       0.25000000       0.75000000 </v>
    <v>       0.00000000       0.50000000       0.00000000 </v>
    <v>       0.00000000       0.00000000       0.50000000 </v>
    <v>       0.25000000       0.50000000       0.00000000 </v>
    <v>       0.25000000       0.00000000       0.00000000 </v>
    <v>       0.12500000       0.25000000       0.25000000 </v>
    <v>       0.37500000       0.75000000       0.75000000 </v>
    <v>       0.12500000       0.75000000       0.25000000 </v>
    <v>       0.87500000       0.75000000       0.75000000 </v>
   </varray>
  </structure>
  <varray name="forces" >
   <v>       0.01604141       0.04775690       0.93697747 </v>
   <v>      -0.01604141       0.04775690      -0.93697747 </v>
   <v>       0.01604141      -0.04775690       0.93697747 </v>
   <v>      -0.01604141      -0.04775690      -0.93697747 </v>
   <v>       0.01604141       0.04775690       0.93697747 </v>
   <v>      -0.01604141       0.04775690      -0.93697747 </v>
   <v>       0.01604141      -0.04775690       0.93697747 </v>
   <v>      -0.01604141      -0.04775690      -0.93697747 </v>
   <v>       0.10646891       0.00000000       0.09684805 </v>
   <v>      -0.10646891       0.00000000      -0.09684805 </v>
   <v>      -0.22180253       0.00000000      -1.28061675 </v>
   <v>       0.22180253       0.00000000       1.28061675 </v>
   <v>       0.10646891       0.00000000       0.09684805 </v>
   <v>      -0.10646891       0.00000000      -0.09684805 </v>
   <v>      -0.22180253       0.00000000      -1.28061675 </v>
   <v>       0.22180253       0.00000000       1.28061675 </v>
   <v>       0.00000000       0.00000000       0.00000000 </v>
   <v>       0.00000000       0.00000000       0.00000000 </v>
   <v>       1.45661589       0.00000000      -0.67330699 </v>
   <v>      -1.45661589       0.00000000       0.67330699 </v>
   <v>       0.03035320      -0.00805299       0.73713016 </v>
   <v>      -0.03035320      -0.00805299      -0.73713016 </v>
   <v>       0.03035320       0.00805299       0.73713016 </v>
   <v>      -0.03035320       0.00805299      -0.73713016 </v>
   <v>       0.00000000       0.00000000       0.00000000 </v>
   <v>       0.00000000       0.00000000       0.00000000 </v>
   <v>       1.45661589       0.00000000      -0.67330699 </v>
   <v>      -1.45661589       0.00000000       0.67330699 </v>
   <v>       0.03035320      -0.00805299       0.73713016 </v>
   <v>      -0.03035320      -0.00805299      -0.73713016 </v>
   <v>       0.03035320       0.00805299       0.73713016 </v>
   <v>      -0.03035320       0.00805299      -0.73713016 </v>
  </varray>
  <varray name="stress" >
   <v>     -81.57508770       0.00000000     -30.90215717 </v>
   <v>       0.00000000     -80.19022456       0.00000000 </v>
   <v>     -30.90215834       0.00000000    -115.12587088 </v>
  </varray>
  <energy>
   <i name="e_fr_energy">   -158.96050486 </i>
   <i name="e_wo_entrp">   -158.95491228 </i>
   <i name="e_0_energy">     -0.01118517 </i>
  </energy>
  <time name="totalsc"> 1388.62 1390.96</time>
  <eigenvalues>
   <array>
    <dimension dim="1">band</dimension>
    <dimension dim="2">kpoint</dimension>
    <dimension dim="3">spin</dimension>
    <field>eigene</field>
    <field>occ</field>
    <set>
     <set comment="spin 1">
      <set comment="kpoint 1">
       <r>  -31.3982    1.0000 </r>
       <r>  -31.3849    1.0000 </r>
       <r>  -31.3849    1.0000 </r>
       <r>  -31.3847    1.0000 </r>
       <r>  -31.3722    1.0000 </r>
       <r>  -31.3722    1.0000 </r>
       <r>  -31.3721    1.0000 </r>
       <r>  -31.3601    1.0000 </r>
       <r>  -14.7270    1.0000 </r>
       <r>  -14.7135    1.0000 </r>
       <r>  -14.6885    1.0000 </r>
       <r>  -14.6272    1.0000 </r>
       <r>  -14.4629    1.0000 </r>
       <r>  -14.3153    1.0000 </r>
       <r>  -14.2804    1.0000 </r>
       <r>  -14.2782    1.0000 </r>
       <r>  -14.1984    1.0000 </r>
       <r>  -14.1623    1.0000 </r>
       <r>  -13.9758    1.0000 </r>
       <r>  -13.9425    1.0000 </r>
       <r>  -13.9223    1.0000 </r>
       <r>  -13.8971    1.0000 </r>
       <r>  -13.8040    1.0000 </r>
       <r>  -13.7089    1.0000 </r>
       <r>  -13.5813    1.0000 </r>
       <r>  -13.5463    1.0000 </r>
       <r>  -13.4701    1.0000 </r>
       <r>  -13.4623    1.0000 </r>
       <r>  -13.4432    1.0000 </r>
       <r>  -13.4337    1.0000 </r>
       <r>  -13.4209    1.0000 </r>
       <r>  -13.3584    1.0000 </r>
       <r>  -13.3241    1.0000 </r>
       <r>  -13.3086    1.0000 </r>
       <r>  -13.3075    1.0000 </r>
       <r>  -13.2902    1.0000 </r>
       <r>  -13.2737    1.0000 </r>
       <r>  -13.2283    1.0000 </r>
       <r>  -13.1917    1.0000 </r>
       <r>  -13.1711    1.0000 </r>
       <r>  -13.0954    1.0000 </r>
       <r>  -13.0372    1.0000 </r>
       <r>  -12.9656    1.0000 </r>
       <r>  -12.9480    1.0000 </r>
       <r>  -12.9425    1.0000 </r>
       <r>  -12.8682    1.0000 </r>
       <r>  -12.7996    1.0000 </r>
       <r>  -12.7675    1.0000 </r>
       <r>   -2.9862    1.0000 </r>
       <r>   -2.8316    1.0000 </r>
       <r>   -2.8285    1.0000 </r>
       <r>   -2.7358    1.0000 </r>
       <r>   -2.4748    1.0000 </r>
       <r>   -2.3406    1.0000 </r>
       <r>   -2.0623    1.0000 </r>
       <r>   -2.0501    1.0000 </r>
       <r>   -1.9454    1.0000 </r>
       <r>   -1.8604    1.0000 </r>
       <r>   -1.7523    1.0000 </r>
       <r>   -1.7090    1.0000 </r>
       <r>   -1.6996    1.0000 </r>
       <r>   -1.5702    1.0000 </r>
       <r>   -1.4879    1.0000 </r>
       <r>   -1.4370    1.0000 </r>
       <r>   -1.3068    1.0000 </r>
       <r>   -1.2964    1.0000 </r>
       <r>   -1.2700    1.0000 </r>
       <r>   -1.1929    1.0000 </r>
       <r>   -1.1607    1.0000 </r>
       <r>   -1.1367    1.0000 </r>
       <r>   -1.0709    1.0000 </r>
       <r>   -1.0139    1.0000 </r>
       <r>   -0.9929    1.0000 </r>
       <r>   -0.9869    1.0000 </r>
       <r>   -0.9267    1.0000 </r>
       <r>   -0.9056    1.0000 </r>
       <r>   -0.8258    1.0000 </r>
       <r>   -0.8025    1.0000 </r>
       <r>   -0.7390    1.0000 </r>
       <r>   -0.6282    1.0000 </r>
       <r>   -0.5906    1.0000 </r>
       <r>   -0.5738    1.0000 </r>
       <r>   -0.5726    1.0000 </r>
       <r>   -0.5425    1.0000 </r>
       <r>   -0.5297    1.0000 </r>
       <r>   -0.4405    1.0000 </r>
       <r>   -0.4396    1.0000 </r>
       <r>   -0.4317    1.0000 </r>
       <r>   -0.4283    1.0000 </r>
       <r>   -0.3266    1.0000 </r>
       <r>   -0.2957    1.0000 </r>
       <r>   -0.2801    1.0000 </r>
       <r>   -0.0887    1.0000 </r>
       <r>    0.0882    1.0000 </r>
       <r>    0.0900    1.0000 </r>
       <r>    0.1732    1.0000 </r>
       <r>    0.2108    1.0000 </r>
       <r>    0.4199    1.0000 </r>
       <r>    0.4550    1.0000 </r>
       <r>    0.6429    1.0000 </r>
       <r>    0.6461    1.0000 </r>
       <r>    0.7112    1.0000 </r>
       <r>    0.7431    1.0000 </r>
       <r>    0.8482    1.0000 </r>
       <r>    0.8489    1.0000 </r>
       <r>    0.8648    1.0000 </r>
       <r>    1.0046    1.0000 </r>
       <r>    1.1679    1.0000 </r>
       <r>    1.1920    1.0000 </r>
       <r>    1.2010    1.0000 </r>
       <r>    1.2344    1.0000 </r>
       <r>    1.2807    1.0000 </r>
       <r>    1.3969    1.0000 </r>
       <r>    1.4225    1.0000 </r>
       <r>    1.4278    1.0000 </r>
       <r>    1.4590    1.0000 </r>
       <r>    1.4918    1.0000 </r>
       <r>    1.4960    1.0000 </r>
       <r>    1.5164    1.0000 </r>
       <r>    1.5319    1.0000 </r>
       <r>    1.6155    1.0000 </r>
       <r>    1.7629    1.0000 </r>
       <r>    1.7962    1.0000 </r>
       <r>    1.8099    1.0000 </r>
       <r>    1.8219    1.0000 </r>
       <r>    1.8345    1.0000 </r>
       <r>    1.8603    1.0000 </r>
       <r>    1.9273    1.0000 </r>
       <r>    2.0765    1.0000 </r>
       <r>    2.0914    1.0000 </r>
       <r>    2.2567    1.0000 </r>
       <r>    2.3115    1.0000 </r>
       <r>    2.3571    1.0000 </r>
       <r>    2.5223    1.0000 </r>
       <r>    3.0519    0.0000 </r>
       <r>    3.5696    0.0000 </r>
       <r>    3.6679    0.0000 </r>
       <r>    4.0293    0.0000 </r>
       <r>    4.8729    0.0000 </r>
       <r>    5.1321    0.0000 </r>
       <r>    5.4082    0.0000 </r>
       <r>    5.6779    0.0000 </r>
       <r>    6.1785    0.0000 </r>
       <r>    6.3530    0.0000 </r>
       <r>    6.7672    0.0000 </r>
       <r>    7.2040    0.0000 </r>
       <r>    7.6057    0.0000 </r>
       <r>    7.7417    0.0000 </r>
       <r>    7.9374    0.0000 </r>
       <r>    7.9415    0.0000 </r>
       <r>    7.9882    0.0000 </r>
       <r>    8.1064    0.0000 </r>
       <r>    8.1508    0.0000 </r>
       <r>    8.3376    0.0000 </r>
       <r>    8.3859    0.0000 </r>
       <r>    8.5251    0.0000 </r>
       <r>    8.6882    0.0000 </r>
       <r>    8.7093    0.0000 </r>
       <r>    8.8340    0.0000 </r>
       <r>    8.9036    0.0000 </r>
       <r>    9.0961    0.0000 </r>
       <r>    9.1091    0.0000 </r>
       <r>    9.4561    0.0000 </r>
       <r>    9.4567    0.0000 </r>
       <r>    9.5216    0.0000 </r>
       <r>    9.5705    0.0000 </r>
       <r>    9.5961    0.0000 </r>
       <r>    9.6288    0.0000 </r>
       <r>    9.7100    0.0000 </r>
       <r>    9.7531    0.0000 </r>
       <r>    9.8080    0.0000 </r>
       <r>    9.8917    0.0000 </r>
       <r>   10.0015    0.0000 </r>
       <r>   10.1003    0.0000 </r>
       <r>   10.2464    0.0000 </r>
       <r>   10.3264    0.0000 </r>
      </set>
      <set comment="kpoint 2">
       <r>  -31.3943    1.0000 </r>
       <r>  -31.3943    1.0000 </r>
       <r>  -31.3810    1.0000 </r>
       <r>  -31.3810    1.0000 </r>
       <r>  -31.3758    1.0000 </r>
       <r>  -31.3758    1.0000 </r>
       <r>  -31.3636    1.0000 </r>
       <r>  -31.3636    1.0000 </r>
       <r>  -14.6892    1.0000 </r>
       <r>  -14.6892    1.0000 </r>
       <r>  -14.6114    1.0000 </r>
       <r>  -14.6114    1.0000 </r>
       <r>  -14.5434    1.0000 </r>
       <r>  -14.5434    1.0000 </r>
       <r>  -14.1557    1.0000 </r>
       <r>  -14.1557    1.0000 </r>
       <r>  -14.1480    1.0000 </r>
       <r>  -14.1480    1.0000 </r>
       <r>  -14.1080    1.0000 </r>
       <r>  -14.1080    1.0000 </r>
       <r>  -13.9055    1.0000 </r>
       <r>  -13.9055    1.0000 </r>
       <r>  -13.7726    1.0000 </r>
       <r>  -13.7726    1.0000 </r>
       <r>  -13.5025    1.0000 </r>
       <r>  -13.5025    1.0000 </r>
       <r>  -13.4962    1.0000 </r>
       <r>  -13.4962    1.0000 </r>
       <r>  -13.4347    1.0000 </r>
       <r>  -13.4347    1.0000 </r>
       <r>  -13.3290    1.0000 </r>
       <r>  -13.3290    1.0000 </r>
       <r>  -13.3039    1.0000 </r>
       <r>  -13.3039    1.0000 </r>
       <r>  -13.2495    1.0000 </r>
       <r>  -13.2495    1.0000 </r>
       <r>  -13.2041    1.0000 </r>
       <r>  -13.2041    1.0000 </r>
       <r>  -13.1630    1.0000 </r>
       <r>  -13.1630    1.0000 </r>
       <r>  -13.1009    1.0000 </r>
       <r>  -13.1009    1.0000 </r>
       <r>  -13.0490    1.0000 </r>
       <r>  -13.0490    1.0000 </r>
       <r>  -12.9255    1.0000 </r>
       <r>  -12.9255    1.0000 </r>
       <r>  -12.7789    1.0000 </r>
       <r>  -12.7789    1.0000 </r>
       <r>   -2.9313    1.0000 </r>
       <r>   -2.9313    1.0000 </r>
       <r>   -2.7611    1.0000 </r>
       <r>   -2.7611    1.0000 </r>
       <r>   -2.4011    1.0000 </r>
       <r>   -2.4011    1.0000 </r>
       <r>   -2.0798    1.0000 </r>
       <r>   -2.0798    1.0000 </r>
       <r>   -1.8796    1.0000 </r>
       <r>   -1.8796    1.0000 </r>
       <r>   -1.7562    1.0000 </r>
       <r>   -1.7562    1.0000 </r>
       <r>   -1.4863    1.0000 </r>
       <r>   -1.4863    1.0000 </r>
       <r>   -1.4386    1.0000 </r>
       <r>   -1.4386    1.0000 </r>
       <r>   -1.4364    1.0000 </r>
       <r>   -1.4364    1.0000 </r>
       <r>   -1.2384    1.0000 </r>
       <r>   -1.2384    1.0000 </r>
       <r>   -1.1922    1.0000 </r>
       <r>   -1.1922    1.0000 </r>
       <r>   -1.1757    1.0000 </r>
       <r>   -1.1757    1.0000 </r>
       <r>   -0.9532    1.0000 </r>
       <r>   -0.9532    1.0000 </r>
       <r>   -0.8059    1.0000 </r>
       <r>   -0.8059    1.0000 </r>
       <r>   -0.7227    1.0000 </r>
       <r>   -0.7227    1.0000 </r>
       <r>   -0.6888    1.0000 </r>
       <r>   -0.6888    1.0000 </r>
       <r>   -0.5732    1.0000 </r>
       <r>   -0.5732    1.0000 </r>
       <r>   -0.5622    1.0000 </r>
       <r>   -0.5622    1.0000 </r>
       <r>   -0.5130    1.0000 </r>
       <r>   -0.5130    1.0000 </r>
       <r>   -0.5028    1.0000 </r>
       <r>   -0.5028    1.0000 </r>
       <r>   -0.3435    1.0000 </r>
       <r>   -0.3435    1.0000 </r>
       <r>   -0.3256    1.0000 </r>
       <r>   -0.3256    1.0000 </r>
       <r>    0.0613    1.0000 </r>
       <r>    0.0613    1.0000 </r>
       <r>    0.1945    1.0000 </r>
       <r>    0.1945    1.0000 </r>
       <r>    0.3045    1.0000 </r>
       <r>    0.3045    1.0000 </r>
       <r>    0.5493    1.0000 </r>
       <r>    0.5493    1.0000 </r>
       <r>    0.6029    1.0000 </r>
       <r>    0.6029    1.0000 </r>
       <r>    0.7943    1.0000 </r>
       <r>    0.7943    1.0000 </r>
       <r>    0.8257    1.0000 </r>
       <r>    0.8257    1.0000 </r>
       <r>    0.9804    1.0000 </r>
       <r>    0.9804    1.0000 </r>
       <r>    1.2633    1.0000 </r>
       <r>    1.2633    1.0000 </r>
       <r>    1.3622    1.0000 </r>
       <r>    1.3622    1.0000 </r>
       <r>    1.3924    1.0000 </r>
       <r>    1.3924    1.0000 </r>
       <r>    1.4575    1.0000 </r>
       <r>    1.4575    1.0000 </r>
       <r>    1.4943    1.0000 </r>
       <r>    1.4943    1.0000 </r>
       <r>    1.6229    1.0000 </r>
       <r>    1.6229    1.0000 </r>
       <r>    1.6508    1.0000 </r>
       <r>    1.6508    1.0000 </r>
       <r>    1.7904    1.0000 </r>
       <r>    1.7904    1.0000 </r>
       <r>    1.8834    1.0000 </r>
       <r>    1.8834    1.0000 </r>
       <r>    1.9010    1.0000 </r>
       <r>    1.9010    1.0000 </r>
       <r>    1.9558    1.0000 </r>
       <r>    1.9558    1.0000 </r>
       <r>    2.2540    1.0000 </r>
       <r>    2.2540    1.0000 </r>
       <r>    2.3100    1.0000 </r>
       <r>    2.3100    1.0000 </r>
       <r>    3.2930    0.0000 </r>
       <r>    3.2930    0.0000 </r>
       <r>    4.0221    0.0000 </r>
       <r>    4.0221    0.0000 </r>
       <r>    4.8662    0.0000 </r>
       <r>    4.8662    0.0000 </r>
       <r>    5.5944    0.0000 </r>
       <r>    5.5944    0.0000 </r>
       <r>    6.5520    0.0000 </r>
       <r>    6.5520    0.0000 </r>
       <r>    7.1657    0.0000 </r>
       <r>    7.1657    0.0000 </r>
       <r>    7.3013    0.0000 </r>
       <r>    7.3013    0.0000 </r>
       <r>    7.5459    0.0000 </r>
       <r>    7.5459    0.0000 </r>
       <r>    8.2719    0.0000 </r>
       <r>    8.2719    0.0000 </r>
       <r>    8.3069    0.0000 </r>
       <r>    8.3069    0.0000 </r>
       <r>    8.3366    0.0000 </r>
       <r>    8.3366    0.0000 </r>
       <r>    8.6899    0.0000 </r>
       <r>    8.6899    0.0000 </r>
       <r>    9.1188    0.0000 </r>
       <r>    9.1188    0.0000 </r>
       <r>    9.2585    0.0000 </r>
       <r>    9.2585    0.0000 </r>
       <r>    9.2884    0.0000 </r>
       <r>    9.2884    0.0000 </r>
       <r>    9.5626    0.0000 </r>
       <r>    9.5626    0.0000 </r>
       <r>    9.7757    0.0000 </r>
       <r>    9.7757    0.0000 </r>
       <r>    9.7960    0.0000 </r>
       <r>    9.7960    0.0000 </r>
       <r>    9.9292    0.0000 </r>
       <r>    9.9292    0.0000 </r>
       <r>   10.0489    0.0000 </r>
       <r>   10.0489    0.0000 </r>
       <r>   10.2032    0.0000 </r>
       <r>   10.2032    0.0000 </r>
      </set>
      <set comment="kpoint 3">
       <r>  -31.3949    1.0000 </r>
       <r>  -31.3881    1.0000 </r>
       <r>  -31.3817    1.0000 </r>
       <r>  -31.3817    1.0000 </r>
       <r>  -31.3754    1.0000 </r>
       <r>  -31.3754    1.0000 </r>
       <r>  -31.3691    1.0000 </r>
       <r>  -31.3631    1.0000 </r>
       <r>  -14.6763    1.0000 </r>
       <r>  -14.6469    1.0000 </r>
       <r>  -14.6417    1.0000 </r>
       <r>  -14.6212    1.0000 </r>
       <r>  -14.5371    1.0000 </r>
       <r>  -14.4844    1.0000 </r>
       <r>  -14.2049    1.0000 </r>
       <r>  -14.1138    1.0000 </r>
       <r>  -14.1077    1.0000 </r>
       <r>  -14.1010    1.0000 </r>
       <r>  -14.0303    1.0000 </r>
       <r>  -13.9995    1.0000 </r>
       <r>  -13.9838    1.0000 </r>
       <r>  -13.9522    1.0000 </r>
       <r>  -13.8916    1.0000 </r>
       <r>  -13.8750    1.0000 </r>
       <r>  -13.5788    1.0000 </r>
       <r>  -13.5606    1.0000 </r>
       <r>  -13.5469    1.0000 </r>
       <r>  -13.4839    1.0000 </r>
       <r>  -13.4625    1.0000 </r>
       <r>  -13.4473    1.0000 </r>
       <r>  -13.4314    1.0000 </r>
       <r>  -13.3690    1.0000 </r>
       <r>  -13.3162    1.0000 </r>
       <r>  -13.3094    1.0000 </r>
       <r>  -13.2261    1.0000 </r>
       <r>  -13.2144    1.0000 </r>
       <r>  -13.1959    1.0000 </r>
       <r>  -13.1410    1.0000 </r>
       <r>  -13.1348    1.0000 </r>
       <r>  -13.1197    1.0000 </r>
       <r>  -13.0980    1.0000 </r>
       <r>  -13.0538    1.0000 </r>
       <r>  -12.9593    1.0000 </r>
       <r>  -12.9401    1.0000 </r>
       <r>  -12.9187    1.0000 </r>
       <r>  -12.8749    1.0000 </r>
       <r>  -12.8663    1.0000 </r>
       <r>  -12.8388    1.0000 </r>
       <r>   -2.6963    1.0000 </r>
       <r>   -2.5457    1.0000 </r>
       <r>   -2.4701    1.0000 </r>
       <r>   -2.4189    1.0000 </r>
       <r>   -2.3951    1.0000 </r>
       <r>   -2.2305    1.0000 </r>
       <r>   -2.0662    1.0000 </r>
       <r>   -2.0451    1.0000 </r>
       <r>   -1.9609    1.0000 </r>
       <r>   -1.8809    1.0000 </r>
       <r>   -1.7028    1.0000 </r>
       <r>   -1.6383    1.0000 </r>
       <r>   -1.5681    1.0000 </r>
       <r>   -1.5516    1.0000 </r>
       <r>   -1.5407    1.0000 </r>
       <r>   -1.4872    1.0000 </r>
       <r>   -1.4739    1.0000 </r>
       <r>   -1.3668    1.0000 </r>
       <r>   -1.3519    1.0000 </r>
       <r>   -1.3342    1.0000 </r>
       <r>   -1.2965    1.0000 </r>
       <r>   -1.2168    1.0000 </r>
       <r>   -1.2075    1.0000 </r>
       <r>   -1.2022    1.0000 </r>
       <r>   -1.1956    1.0000 </r>
       <r>   -1.0803    1.0000 </r>
       <r>   -1.0802    1.0000 </r>
       <r>   -1.0046    1.0000 </r>
       <r>   -1.0024    1.0000 </r>
       <r>   -0.9931    1.0000 </r>
       <r>   -0.9649    1.0000 </r>
       <r>   -0.9501    1.0000 </r>
       <r>   -0.9368    1.0000 </r>
       <r>   -0.8537    1.0000 </r>
       <r>   -0.8136    1.0000 </r>
       <r>   -0.7686    1.0000 </r>
       <r>   -0.7302    1.0000 </r>
       <r>   -0.6706    1.0000 </r>
       <r>   -0.5328    1.0000 </r>
       <r>   -0.5052    1.0000 </r>
       <r>   -0.4380    1.0000 </r>
       <r>   -0.4305    1.0000 </r>
       <r>   -0.1858    1.0000 </r>
       <r>   -0.1611    1.0000 </r>
       <r>    0.1392    1.0000 </r>
       <r>    0.2033    1.0000 </r>
       <r>    0.4121    1.0000 </r>
       <r>    0.4770    1.0000 </r>
       <r>    0.5482    1.0000 </r>
       <r>    0.6065    1.0000 </r>
       <r>    0.6296    1.0000 </r>
       <r>    0.6847    1.0000 </r>
       <r>    0.7979    1.0000 </r>
       <r>    0.8244    1.0000 </r>
       <r>    0.9156    1.0000 </r>
       <r>    0.9279    1.0000 </r>
       <r>    0.9551    1.0000 </r>
       <r>    1.0072    1.0000 </r>
       <r>    1.0809    1.0000 </r>
       <r>    1.1302    1.0000 </r>
       <r>    1.2193    1.0000 </r>
       <r>    1.2850    1.0000 </r>
       <r>    1.3023    1.0000 </r>
       <r>    1.3201    1.0000 </r>
       <r>    1.3356    1.0000 </r>
       <r>    1.3837    1.0000 </r>
       <r>    1.3956    1.0000 </r>
       <r>    1.3966    1.0000 </r>
       <r>    1.4146    1.0000 </r>
       <r>    1.4659    1.0000 </r>
       <r>    1.4939    1.0000 </r>
       <r>    1.5452    1.0000 </r>
       <r>    1.5855    1.0000 </r>
       <r>    1.6012    1.0000 </r>
       <r>    1.6291    1.0000 </r>
       <r>    1.6564    1.0000 </r>
       <r>    1.7530    1.0000 </r>
       <r>    1.8315    1.0000 </r>
       <r>    1.8754    1.0000 </r>
       <r>    1.9962    1.0000 </r>
       <r>    2.0848    1.0000 </r>
       <r>    2.2391    1.0000 </r>
       <r>    2.2939    1.0000 </r>
       <r>    2.5387    1.0000 </r>
       <r>    2.5599    1.0000 </r>
       <r>    2.8351    0.0009 </r>
       <r>    3.1433    0.0000 </r>
       <r>    3.5291    0.0000 </r>
       <r>    4.0006    0.0000 </r>
       <r>    4.2604    0.0000 </r>
       <r>    4.9003    0.0000 </r>
       <r>    5.2302    0.0000 </r>
       <r>    5.3468    0.0000 </r>
       <r>    5.3656    0.0000 </r>
       <r>    5.6317    0.0000 </r>
       <r>    5.9357    0.0000 </r>
       <r>    7.1599    0.0000 </r>
       <r>    7.3669    0.0000 </r>
       <r>    7.6286    0.0000 </r>
       <r>    7.6467    0.0000 </r>
       <r>    7.8743    0.0000 </r>
       <r>    7.9174    0.0000 </r>
       <r>    8.1360    0.0000 </r>
       <r>    8.2504    0.0000 </r>
       <r>    8.2622    0.0000 </r>
       <r>    8.2979    0.0000 </r>
       <r>    8.3320    0.0000 </r>
       <r>    8.5053    0.0000 </r>
       <r>    8.6580    0.0000 </r>
       <r>    8.7431    0.0000 </r>
       <r>    8.8173    0.0000 </r>
       <r>    8.8297    0.0000 </r>
       <r>    8.9270    0.0000 </r>
       <r>    9.0475    0.0000 </r>
       <r>    9.0513    0.0000 </r>
       <r>    9.1637    0.0000 </r>
       <r>    9.2763    0.0000 </r>
       <r>    9.3791    0.0000 </r>
       <r>    9.4771    0.0000 </r>
       <r>    9.6172    0.0000 </r>
       <r>    9.6842    0.0000 </r>
       <r>    9.7403    0.0000 </r>
       <r>    9.7565    0.0000 </r>
       <r>    9.9428    0.0000 </r>
       <r>   10.0315    0.0000 </r>
       <r>   10.0550    0.0000 </r>
       <r>   10.1438    0.0000 </r>
       <r>   10.3367    0.0000 </r>
      </set>
      <set comment="kpoint 4">
       <r>  -31.3909    1.0000 </r>
       <r>  -31.3909    1.0000 </r>
       <r>  -31.3843    1.0000 </r>
       <r>  -31.3843    1.0000 </r>
       <r>  -31.3727    1.0000 </r>
       <r>  -31.3727    1.0000 </r>
       <r>  -31.3667    1.0000 </r>
       <r>  -31.3667    1.0000 </r>
       <r>  -14.6582    1.0000 </r>
       <r>  -14.6582    1.0000 </r>
       <r>  -14.5962    1.0000 </r>
       <r>  -14.5962    1.0000 </r>
       <r>  -14.4827    1.0000 </r>
       <r>  -14.4827    1.0000 </r>
       <r>  -14.3140    1.0000 </r>
       <r>  -14.3140    1.0000 </r>
       <r>  -14.1146    1.0000 </r>
       <r>  -14.1146    1.0000 </r>
       <r>  -14.0090    1.0000 </r>
       <r>  -14.0090    1.0000 </r>
       <r>  -13.9407    1.0000 </r>
       <r>  -13.9407    1.0000 </r>
       <r>  -13.8680    1.0000 </r>
       <r>  -13.8680    1.0000 </r>
       <r>  -13.5464    1.0000 </r>
       <r>  -13.5464    1.0000 </r>
       <r>  -13.5167    1.0000 </r>
       <r>  -13.5167    1.0000 </r>
       <r>  -13.4119    1.0000 </r>
       <r>  -13.4119    1.0000 </r>
       <r>  -13.3511    1.0000 </r>
       <r>  -13.3511    1.0000 </r>
       <r>  -13.3046    1.0000 </r>
       <r>  -13.3046    1.0000 </r>
       <r>  -13.2752    1.0000 </r>
       <r>  -13.2752    1.0000 </r>
       <r>  -13.1247    1.0000 </r>
       <r>  -13.1247    1.0000 </r>
       <r>  -13.0826    1.0000 </r>
       <r>  -13.0826    1.0000 </r>
       <r>  -13.0510    1.0000 </r>
       <r>  -13.0510    1.0000 </r>
       <r>  -13.0379    1.0000 </r>
       <r>  -13.0379    1.0000 </r>
       <r>  -12.9468    1.0000 </r>
       <r>  -12.9468    1.0000 </r>
       <r>  -12.8467    1.0000 </r>
       <r>  -12.8467    1.0000 </r>
       <r>   -2.6378    1.0000 </r>
       <r>   -2.6378    1.0000 </r>
       <r>   -2.4155    1.0000 </r>
       <r>   -2.4155    1.0000 </r>
       <r>   -2.3268    1.0000 </r>
       <r>   -2.3268    1.0000 </r>
       <r>   -2.0712    1.0000 </r>
       <r>   -2.0712    1.0000 </r>
       <r>   -1.8850    1.0000 </r>
       <r>   -1.8850    1.0000 </r>
       <r>   -1.6970    1.0000 </r>
       <r>   -1.6970    1.0000 </r>
       <r>   -1.5545    1.0000 </r>
       <r>   -1.5545    1.0000 </r>
       <r>   -1.4647    1.0000 </r>
       <r>   -1.4647    1.0000 </r>
       <r>   -1.3756    1.0000 </r>
       <r>   -1.3756    1.0000 </r>
       <r>   -1.3517    1.0000 </r>
       <r>   -1.3517    1.0000 </r>
       <r>   -1.3091    1.0000 </r>
       <r>   -1.3091    1.0000 </r>
       <r>   -1.2218    1.0000 </r>
       <r>   -1.2218    1.0000 </r>
       <r>   -1.2001    1.0000 </r>
       <r>   -1.2001    1.0000 </r>
       <r>   -1.1368    1.0000 </r>
       <r>   -1.1368    1.0000 </r>
       <r>   -0.9886    1.0000 </r>
       <r>   -0.9886    1.0000 </r>
       <r>   -0.8882    1.0000 </r>
       <r>   -0.8882    1.0000 </r>
       <r>   -0.7893    1.0000 </r>
       <r>   -0.7893    1.0000 </r>
       <r>   -0.7550    1.0000 </r>
       <r>   -0.7550    1.0000 </r>
       <r>   -0.7168    1.0000 </r>
       <r>   -0.7168    1.0000 </r>
       <r>   -0.5287    1.0000 </r>
       <r>   -0.5287    1.0000 </r>
       <r>   -0.4730    1.0000 </r>
       <r>   -0.4730    1.0000 </r>
       <r>   -0.2236    1.0000 </r>
       <r>   -0.2236    1.0000 </r>
       <r>    0.2499    1.0000 </r>
       <r>    0.2499    1.0000 </r>
       <r>    0.4587    1.0000 </r>
       <r>    0.4587    1.0000 </r>
       <r>    0.6582    1.0000 </r>
       <r>    0.6582    1.0000 </r>
       <r>    0.6756    1.0000 </r>
       <r>    0.6756    1.0000 </r>
       <r>    0.7552    1.0000 </r>
       <r>    0.7552    1.0000 </r>
       <r>    0.8539    1.0000 </r>
       <r>    0.8539    1.0000 </r>
       <r>    0.9934    1.0000 </r>
       <r>    0.9934    1.0000 </r>
       <r>    1.1654    1.0000 </r>
       <r>    1.1654    1.0000 </r>
       <r>    1.2010    1.0000 </r>
       <r>    1.2010    1.0000 </r>
       <r>    1.3138    1.0000 </r>
       <r>    1.3138    1.0000 </r>
       <r>    1.3524    1.0000 </r>
       <r>    1.3524    1.0000 </r>
       <r>    1.4125    1.0000 </r>
       <r>    1.4125    1.0000 </r>
       <r>    1.4266    1.0000 </r>
       <r>    1.4266    1.0000 </r>
       <r>    1.4847    1.0000 </r>
       <r>    1.4847    1.0000 </r>
       <r>    1.5257    1.0000 </r>
       <r>    1.5257    1.0000 </r>
       <r>    1.6922    1.0000 </r>
       <r>    1.6922    1.0000 </r>
       <r>    1.7288    1.0000 </r>
       <r>    1.7288    1.0000 </r>
       <r>    1.9463    1.0000 </r>
       <r>    1.9463    1.0000 </r>
       <r>    2.1715    1.0000 </r>
       <r>    2.1715    1.0000 </r>
       <r>    2.3864    1.0000 </r>
       <r>    2.3864    1.0000 </r>
       <r>    2.6717    0.9322 </r>
       <r>    2.6717    0.9322 </r>
       <r>    3.3618    0.0000 </r>
       <r>    3.3618    0.0000 </r>
       <r>    4.2002    0.0000 </r>
       <r>    4.2002    0.0000 </r>
       <r>    4.9138    0.0000 </r>
       <r>    4.9138    0.0000 </r>
       <r>    5.4321    0.0000 </r>
       <r>    5.4321    0.0000 </r>
       <r>    5.9541    0.0000 </r>
       <r>    5.9541    0.0000 </r>
       <r>    7.4343    0.0000 </r>
       <r>    7.4343    0.0000 </r>
       <r>    7.6301    0.0000 </r>
       <r>    7.6301    0.0000 </r>
       <r>    7.7460    0.0000 </r>
       <r>    7.7460    0.0000 </r>
       <r>    7.8907    0.0000 </r>
       <r>    7.8907    0.0000 </r>
       <r>    8.2295    0.0000 </r>
       <r>    8.2295    0.0000 </r>
       <r>    8.4943    0.0000 </r>
       <r>    8.4943    0.0000 </r>
       <r>    8.5702    0.0000 </r>
       <r>    8.5702    0.0000 </r>
       <r>    8.8741    0.0000 </r>
       <r>    8.8741    0.0000 </r>
       <r>    9.0443    0.0000 </r>
       <r>    9.0443    0.0000 </r>
       <r>    9.3258    0.0000 </r>
       <r>    9.3258    0.0000 </r>
       <r>    9.4559    0.0000 </r>
       <r>    9.4559    0.0000 </r>
       <r>    9.7542    0.0000 </r>
       <r>    9.7542    0.0000 </r>
       <r>    9.8625    0.0000 </r>
       <r>    9.8625    0.0000 </r>
       <r>    9.9471    0.0000 </r>
       <r>    9.9471    0.0000 </r>
       <r>    9.9812    0.0000 </r>
       <r>    9.9812    0.0000 </r>
       <r>   10.0944    0.0000 </r>
       <r>   10.0944    0.0000 </r>
      </set>
      <set comment="kpoint 5">
       <r>  -31.3943    1.0000 </r>
       <r>  -31.3847    1.0000 </r>
       <r>  -31.3846    1.0000 </r>
       <r>  -31.3810    1.0000 </r>
       <r>  -31.3758    1.0000 </r>
       <r>  -31.3721    1.0000 </r>
       <r>  -31.3719    1.0000 </r>
       <r>  -31.3636    1.0000 </r>
       <r>  -14.9318    1.0000 </r>
       <r>  -14.7980    1.0000 </r>
       <r>  -14.7430    1.0000 </r>
       <r>  -14.5686    1.0000 </r>
       <r>  -14.5451    1.0000 </r>
       <r>  -14.4238    1.0000 </r>
       <r>  -14.3836    1.0000 </r>
       <r>  -14.3274    1.0000 </r>
       <r>  -14.2254    1.0000 </r>
       <r>  -14.1587    1.0000 </r>
       <r>  -14.1508    1.0000 </r>
       <r>  -14.0794    1.0000 </r>
       <r>  -14.0366    1.0000 </r>
       <r>  -13.7579    1.0000 </r>
       <r>  -13.7524    1.0000 </r>
       <r>  -13.7181    1.0000 </r>
       <r>  -13.4763    1.0000 </r>
       <r>  -13.4552    1.0000 </r>
       <r>  -13.4451    1.0000 </r>
       <r>  -13.4398    1.0000 </r>
       <r>  -13.4038    1.0000 </r>
       <r>  -13.4011    1.0000 </r>
       <r>  -13.3904    1.0000 </r>
       <r>  -13.3084    1.0000 </r>
       <r>  -13.2997    1.0000 </r>
       <r>  -13.2943    1.0000 </r>
       <r>  -13.2811    1.0000 </r>
       <r>  -13.1851    1.0000 </r>
       <r>  -13.1811    1.0000 </r>
       <r>  -13.1568    1.0000 </r>
       <r>  -13.1470    1.0000 </r>
       <r>  -13.0526    1.0000 </r>
       <r>  -13.0370    1.0000 </r>
       <r>  -13.0083    1.0000 </r>
       <r>  -12.9808    1.0000 </r>
       <r>  -12.9118    1.0000 </r>
       <r>  -12.8633    1.0000 </r>
[...]
       <r>     4.9982     3.0194   138.3725 </r>
       <r>     5.1515     2.4883   138.7541 </r>
       <r>     5.3049     3.3148   139.2624 </r>
       <r>     5.4582     3.7788   139.8418 </r>
       <r>     5.6116     3.8542   140.4328 </r>
       <r>     5.7649     5.9781   141.3495 </r>
       <r>     5.9182     2.9475   141.8015 </r>
       <r>     6.0716     3.7160   142.3713 </r>
       <r>     6.2249     1.9586   142.6717 </r>
       <r>     6.3783     2.6056   143.0712 </r>
       <r>     6.5316     3.3353   143.5827 </r>
       <r>     6.6849     0.5592   143.6684 </r>
       <r>     6.8383     1.8729   143.9556 </r>
       <r>     6.9916     1.0910   144.1229 </r>
       <r>     7.1450     1.4207   144.3407 </r>
       <r>     7.2983     4.2167   144.9873 </r>
       <r>     7.4517     4.9933   145.7530 </r>
       <r>     7.6050     4.4096   146.4292 </r>
       <r>     7.7583     5.3810   147.2544 </r>
       <r>     7.9117     8.4659   148.5525 </r>
       <r>     8.0650    10.1013   150.1015 </r>
       <r>     8.2184    10.0134   151.6370 </r>
       <r>     8.3717    12.3753   153.5346 </r>
       <r>     8.5251    11.2377   155.2578 </r>
       <r>     8.6784    11.3005   156.9907 </r>
       <r>     8.8317    12.9411   158.9751 </r>
       <r>     8.9851     7.3019   160.0948 </r>
       <r>     9.1384     9.6580   161.5758 </r>
       <r>     9.2918    10.0883   163.1227 </r>
       <r>     9.4451     7.4742   164.2689 </r>
       <r>     9.5985    11.5089   166.0337 </r>
       <r>     9.7518    12.9502   168.0195 </r>
       <r>     9.9051    11.7501   169.8213 </r>
       <r>    10.0585    14.7695   172.0861 </r>
       <r>    10.2118    12.7119   174.0353 </r>
       <r>    10.3652    10.7776   175.6880 </r>
       <r>    10.5185     2.0337   175.9998 </r>
       <r>    10.6719     0.0010   176.0000 </r>
       <r>    10.8252     0.0000   176.0000 </r>
       <r>    10.9785     0.0000   176.0000 </r>
       <r>    11.1319     0.0000   176.0000 </r>
       <r>    11.2852     0.0000   176.0000 </r>
       <r>    11.4386     0.0000   176.0000 </r>
       <r>    11.5919     0.0000   176.0000 </r>
       <r>    11.7452     0.0000   176.0000 </r>
       <r>    11.8986     0.0000   176.0000 </r>
       <r>    12.0519     0.0000   176.0000 </r>
       <r>    12.2053     0.0000   176.0000 </r>
       <r>    12.3586     0.0000   176.0000 </r>
       <r>    12.5120     0.0000   176.0000 </r>
      </set>
      <set comment="spin 2">
       <r>   -33.4908     0.0000     0.0000 </r>
       <r>   -33.3374     0.0000     0.0000 </r>
       <r>   -33.1841     0.0000     0.0000 </r>
       <r>   -33.0307     0.0000     0.0000 </r>
       <r>   -32.8774     0.0000     0.0000 </r>
       <r>   -32.7240     0.0000     0.0000 </r>
       <r>   -32.5707     0.0000     0.0000 </r>
       <r>   -32.4174     0.0000     0.0000 </r>
       <r>   -32.2640     0.0000     0.0000 </r>
       <r>   -32.1107     0.0000     0.0000 </r>
       <r>   -31.9573     0.0000     0.0000 </r>
       <r>   -31.8040     0.0000     0.0000 </r>
       <r>   -31.6506     0.0000     0.0000 </r>
       <r>   -31.4973     0.0312     0.0048 </r>
       <r>   -31.3440    43.8086     6.7225 </r>
       <r>   -31.1906     8.3311     8.0000 </r>
       <r>   -31.0373     0.0000     8.0000 </r>
       <r>   -30.8839     0.0000     8.0000 </r>
       <r>   -30.7306     0.0000     8.0000 </r>
       <r>   -30.5773     0.0000     8.0000 </r>
       <r>   -30.4239     0.0000     8.0000 </r>
       <r>   -30.2706     0.0000     8.0000 </r>
       <r>   -30.1172     0.0000     8.0000 </r>
       <r>   -29.9639     0.0000     8.0000 </r>
       <r>   -29.8105     0.0000     8.0000 </r>
       <r>   -29.6572     0.0000     8.0000 </r>
       <r>   -29.5039     0.0000     8.0000 </r>
       <r>   -29.3505     0.0000     8.0000 </r>
       <r>   -29.1972     0.0000     8.0000 </r>
       <r>   -29.0438     0.0000     8.0000 </r>
       <r>   -28.8905     0.0000     8.0000 </r>
       <r>   -28.7371     0.0000     8.0000 </r>
       <r>   -28.5838     0.0000     8.0000 </r>
       <r>   -28.4305     0.0000     8.0000 </r>
       <r>   -28.2771     0.0000     8.0000 </r>
       <r>   -28.1238     0.0000     8.0000 </r>
       <r>   -27.9704     0.0000     8.0000 </r>
       <r>   -27.8171     0.0000     8.0000 </r>
       <r>   -27.6637     0.0000     8.0000 </r>
       <r>   -27.5104     0.0000     8.0000 </r>
       <r>   -27.3571     0.0000     8.0000 </r>
       <r>   -27.2037     0.0000     8.0000 </r>
       <r>   -27.0504     0.0000     8.0000 </r>
       <r>   -26.8970     0.0000     8.0000 </r>
       <r>   -26.7437     0.0000     8.0000 </r>
       <r>   -26.5903     0.0000     8.0000 </r>
       <r>   -26.4370     0.0000     8.0000 </r>
       <r>   -26.2837     0.0000     8.0000 </r>
       <r>   -26.1303     0.0000     8.0000 </r>
       <r>   -25.9770     0.0000     8.0000 </r>
       <r>   -25.8236     0.0000     8.0000 </r>
       <r>   -25.6703     0.0000     8.0000 </r>
       <r>   -25.5170     0.0000     8.0000 </r>
       <r>   -25.3636     0.0000     8.0000 </r>
       <r>   -25.2103     0.0000     8.0000 </r>
       <r>   -25.0569     0.0000     8.0000 </r>
       <r>   -24.9036     0.0000     8.0000 </r>
       <r>   -24.7502     0.0000     8.0000 </r>
       <r>   -24.5969     0.0000     8.0000 </r>
       <r>   -24.4436     0.0000     8.0000 </r>
       <r>   -24.2902     0.0000     8.0000 </r>
       <r>   -24.1369     0.0000     8.0000 </r>
       <r>   -23.9835     0.0000     8.0000 </r>
       <r>   -23.8302     0.0000     8.0000 </r>
       <r>   -23.6768     0.0000     8.0000 </r>
       <r>   -23.5235     0.0000     8.0000 </r>
       <r>   -23.3702     0.0000     8.0000 </r>
       <r>   -23.2168     0.0000     8.0000 </r>
       <r>   -23.0635     0.0000     8.0000 </r>
       <r>   -22.9101     0.0000     8.0000 </r>
       <r>   -22.7568     0.0000     8.0000 </r>
       <r>   -22.6034     0.0000     8.0000 </r>
       <r>   -22.4501     0.0000     8.0000 </r>
       <r>   -22.2968     0.0000     8.0000 </r>
       <r>   -22.1434     0.0000     8.0000 </r>
       <r>   -21.9901     0.0000     8.0000 </r>
       <r>   -21.8367     0.0000     8.0000 </r>
       <r>   -21.6834     0.0000     8.0000 </r>
       <r>   -21.5301     0.0000     8.0000 </r>
       <r>   -21.3767     0.0000     8.0000 </r>
       <r>   -21.2234     0.0000     8.0000 </r>
       <r>   -21.0700     0.0000     8.0000 </r>
       <r>   -20.9167     0.0000     8.0000 </r>
       <r>   -20.7633     0.0000     8.0000 </r>
       <r>   -20.6100     0.0000     8.0000 </r>
       <r>   -20.4567     0.0000     8.0000 </r>
       <r>   -20.3033     0.0000     8.0000 </r>
       <r>   -20.1500     0.0000     8.0000 </r>
       <r>   -19.9966     0.0000     8.0000 </r>
       <r>   -19.8433     0.0000     8.0000 </r>
       <r>   -19.6899     0.0000     8.0000 </r>
       <r>   -19.5366     0.0000     8.0000 </r>
       <r>   -19.3833     0.0000     8.0000 </r>
       <r>   -19.2299     0.0000     8.0000 </r>
       <r>   -19.0766     0.0000     8.0000 </r>
       <r>   -18.9232     0.0000     8.0000 </r>
       <r>   -18.7699     0.0000     8.0000 </r>
       <r>   -18.6165     0.0000     8.0000 </r>
       <r>   -18.4632     0.0000     8.0000 </r>
       <r>   -18.3099     0.0000     8.0000 </r>
       <r>   -18.1565     0.0000     8.0000 </r>
       <r>   -18.0032     0.0000     8.0000 </r>
       <r>   -17.8498     0.0000     8.0000 </r>
       <r>   -17.6965     0.0000     8.0000 </r>
       <r>   -17.5431     0.0000     8.0000 </r>
       <r>   -17.3898     0.0000     8.0000 </r>
       <r>   -17.2365     0.0000     8.0000 </r>
       <r>   -17.0831     0.0000     8.0000 </r>
       <r>   -16.9298     0.0000     8.0000 </r>
       <r>   -16.7764     0.0000     8.0000 </r>
       <r>   -16.6231     0.0000     8.0000 </r>
       <r>   -16.4698     0.0000     8.0000 </r>
       <r>   -16.3164     0.0000     8.0000 </r>
       <r>   -16.1631     0.0000     8.0000 </r>
       <r>   -16.0097     0.0000     8.0000 </r>
       <r>   -15.8564     0.0000     8.0000 </r>
       <r>   -15.7030     0.0000     8.0000 </r>
       <r>   -15.5497     0.0000     8.0000 </r>
       <r>   -15.3964     0.0000     8.0000 </r>
       <r>   -15.2430     0.0000     8.0000 </r>
       <r>   -15.0897     0.0009     8.0001 </r>
       <r>   -14.9363     0.4529     8.0696 </r>
       <r>   -14.7830     4.0658     8.6931 </r>
       <r>   -14.6296    10.1478    10.2492 </r>
       <r>   -14.4763    17.1169    12.8739 </r>
       <r>   -14.3230    13.3153    14.9157 </r>
       <r>   -14.1696    10.7550    16.5649 </r>
       <r>   -14.0163    14.5650    18.7983 </r>
       <r>   -13.8629    13.0564    20.8004 </r>
       <r>   -13.7096    11.8794    22.6220 </r>
       <r>   -13.5562    10.3534    24.2097 </r>
       <r>   -13.4029    25.8134    28.1680 </r>
       <r>   -13.2496    35.4451    33.6032 </r>
       <r>   -13.0962    28.6354    37.9942 </r>
       <r>   -12.9429    24.0459    41.6815 </r>
       <r>   -12.7895    28.0612    45.9844 </r>
       <r>   -12.6362    12.5764    47.9129 </r>
       <r>   -12.4828     0.5678    48.0000 </r>
       <r>   -12.3295     0.0000    48.0000 </r>
       <r>   -12.1762     0.0000    48.0000 </r>
       <r>   -12.0228     0.0000    48.0000 </r>
       <r>   -11.8695     0.0000    48.0000 </r>
       <r>   -11.7161     0.0000    48.0000 </r>
       <r>   -11.5628     0.0000    48.0000 </r>
       <r>   -11.4095     0.0000    48.0000 </r>
       <r>   -11.2561     0.0000    48.0000 </r>
       <r>   -11.1028     0.0000    48.0000 </r>
       <r>   -10.9494     0.0000    48.0000 </r>
       <r>   -10.7961     0.0000    48.0000 </r>
       <r>   -10.6427     0.0000    48.0000 </r>
       <r>   -10.4894     0.0000    48.0000 </r>
       <r>   -10.3361     0.0000    48.0000 </r>
       <r>   -10.1827     0.0000    48.0000 </r>
       <r>   -10.0294     0.0000    48.0000 </r>
       <r>    -9.8760     0.0000    48.0000 </r>
       <r>    -9.7227     0.0000    48.0000 </r>
       <r>    -9.5693     0.0000    48.0000 </r>
       <r>    -9.4160     0.0000    48.0000 </r>
       <r>    -9.2627     0.0000    48.0000 </r>
       <r>    -9.1093     0.0000    48.0000 </r>
       <r>    -8.9560     0.0000    48.0000 </r>
       <r>    -8.8026     0.0000    48.0000 </r>
       <r>    -8.6493     0.0000    48.0000 </r>
       <r>    -8.4959     0.0000    48.0000 </r>
       <r>    -8.3426     0.0000    48.0000 </r>
       <r>    -8.1893     0.0000    48.0000 </r>
       <r>    -8.0359     0.0000    48.0000 </r>
       <r>    -7.8826     0.0000    48.0000 </r>
       <r>    -7.7292     0.0000    48.0000 </r>
       <r>    -7.5759     0.0000    48.0000 </r>
       <r>    -7.4226     0.0000    48.0000 </r>
       <r>    -7.2692     0.0000    48.0000 </r>
       <r>    -7.1159     0.0000    48.0000 </r>
       <r>    -6.9625     0.0000    48.0000 </r>
       <r>    -6.8092     0.0000    48.0000 </r>
       <r>    -6.6558     0.0000    48.0000 </r>
       <r>    -6.5025     0.0000    48.0000 </r>
       <r>    -6.3492     0.0000    48.0000 </r>
       <r>    -6.1958     0.0000    48.0000 </r>
       <r>    -6.0425     0.0000    48.0000 </r>
       <r>    -5.8891     0.0000    48.0000 </r>
       <r>    -5.7358     0.0000    48.0000 </r>
       <r>    -5.5824     0.0000    48.0000 </r>
       <r>    -5.4291     0.0000    48.0000 </r>
       <r>    -5.2758     0.0000    48.0000 </r>
       <r>    -5.1224     0.0000    48.0000 </r>
       <r>    -4.9691     0.0000    48.0000 </r>
       <r>    -4.8157     0.0000    48.0000 </r>
       <r>    -4.6624     0.0000    48.0000 </r>
       <r>    -4.5090     0.0000    48.0000 </r>
       <r>    -4.3557     0.0000    48.0000 </r>
       <r>    -4.2024     0.0000    48.0000 </r>
       <r>    -4.0490     0.0000    48.0000 </r>
       <r>    -3.8957     0.0000    48.0000 </r>
       <r>    -3.7423     0.0000    48.0000 </r>
       <r>    -3.5890     0.0000    48.0000 </r>
       <r>    -3.4356     0.0000    48.0000 </r>
       <r>    -3.2823     0.0000    48.0000 </r>
       <r>    -3.1290     0.0000    48.0000 </r>
       <r>    -2.9756     0.0882    48.0135 </r>
       <r>    -2.8223     2.4756    48.3931 </r>
       <r>    -2.6689     2.7605    48.8164 </r>
       <r>    -2.5156     8.5168    50.1224 </r>
       <r>    -2.3623     4.5002    50.8125 </r>
       <r>    -2.2089     6.2018    51.7635 </r>
       <r>    -2.0556     9.7378    53.2567 </r>
       <r>    -1.9022     6.1786    54.2042 </r>
       <r>    -1.7489     6.8718    55.2579 </r>
       <r>    -1.5955    19.9015    58.3096 </r>
       <r>    -1.4422    21.2288    61.5649 </r>
       <r>    -1.2889    24.5840    65.3347 </r>
       <r>    -1.1355    28.2540    69.6672 </r>
       <r>    -0.9822    31.2211    74.4547 </r>
       <r>    -0.8288    21.0497    77.6825 </r>
       <r>    -0.6755    24.4665    81.4343 </r>
       <r>    -0.5221    18.2964    84.2399 </r>
       <r>    -0.3688    26.6747    88.3303 </r>
       <r>    -0.2155    16.3089    90.8311 </r>
       <r>    -0.0621     9.2973    92.2568 </r>
       <r>     0.0912     2.5738    92.6515 </r>
       <r>     0.2446     5.6062    93.5111 </r>
       <r>     0.3979     7.8038    94.7078 </r>
       <r>     0.5513    14.3004    96.9006 </r>
       <r>     0.7046    10.5709    98.5216 </r>
       <r>     0.8579    15.0696   100.8324 </r>
       <r>     1.0113    16.0475   103.2932 </r>
       <r>     1.1646    21.0020   106.5137 </r>
       <r>     1.3180    24.4514   110.2631 </r>
       <r>     1.4713    29.9918   114.8621 </r>
       <r>     1.6246    26.3416   118.9014 </r>
       <r>     1.7780    20.5501   122.0526 </r>
       <r>     1.9313    18.5149   124.8917 </r>
       <r>     2.0847    15.9228   127.3333 </r>
       <r>     2.2380     9.1535   128.7370 </r>
       <r>     2.3914     8.7169   130.0736 </r>
       <r>     2.5447     3.6210   130.6289 </r>
       <r>     2.6980     1.8203   130.9080 </r>
       <r>     2.8514     7.7272   132.0929 </r>
       <r>     3.0047     4.8423   132.8355 </r>
       <r>     3.1581     3.0830   133.3082 </r>
       <r>     3.3114     4.4706   133.9938 </r>
       <r>     3.4648     2.8655   134.4332 </r>
       <r>     3.6181     2.8527   134.8706 </r>
       <r>     3.7714     4.3712   135.5409 </r>
       <r>     3.9248     3.0522   136.0089 </r>
       <r>     4.0781     0.2751   136.0511 </r>
       <r>     4.2315     1.6858   136.3096 </r>
       <r>     4.3848     2.8140   136.7411 </r>
       <r>     4.5382     2.1122   137.0650 </r>
       <r>     4.6915     2.9959   137.5244 </r>
       <r>     4.8448     0.9727   137.6736 </r>
       <r>     4.9982     2.4839   138.0545 </r>
       <r>     5.1515     2.3633   138.4168 </r>
       <r>     5.3049     4.4082   139.0928 </r>
       <r>     5.4582     2.6959   139.5062 </r>
       <r>     5.6116     4.0689   140.1302 </r>
       <r>     5.7649     7.3688   141.2601 </r>
       <r>     5.9182     2.6592   141.6679 </r>
       <r>     6.0716     4.4980   142.3576 </r>
       <r>     6.2249     1.6239   142.6066 </r>
       <r>     6.3783     2.0971   142.9282 </r>
       <r>     6.5316     3.6483   143.4876 </r>
       <r>     6.6849     1.1614   143.6657 </r>
       <r>     6.8383     1.1503   143.8421 </r>
       <r>     6.9916     1.7106   144.1044 </r>
       <r>     7.1450     1.4094   144.3205 </r>
       <r>     7.2983     4.2809   144.9770 </r>
       <r>     7.4517     4.8355   145.7185 </r>
       <r>     7.6050     4.4844   146.4061 </r>
       <r>     7.7583     4.7888   147.1404 </r>
       <r>     7.9117     8.9117   148.5070 </r>
       <r>     8.0650    10.0280   150.0447 </r>
       <r>     8.2184     9.4798   151.4984 </r>
       <r>     8.3717    12.1180   153.3566 </r>
       <r>     8.5251    11.5681   155.1304 </r>
       <r>     8.6784    11.5073   156.8950 </r>
       <r>     8.8317    12.9895   158.8868 </r>
       <r>     8.9851     7.4593   160.0307 </r>
       <r>     9.1384     9.4258   161.4760 </r>
       <r>     9.2918     9.9814   163.0066 </r>
       <r>     9.4451     7.4825   164.1540 </r>
       <r>     9.5985    11.7197   165.9511 </r>
       <r>     9.7518    12.8164   167.9164 </r>
       <r>     9.9051    11.8448   169.7327 </r>
       <r>    10.0585    14.5004   171.9563 </r>
       <r>    10.2118    12.7395   173.9098 </r>
       <r>    10.3652    11.3112   175.6443 </r>
       <r>    10.5185     2.3181   175.9997 </r>
       <r>    10.6719     0.0019   176.0000 </r>
       <r>    10.8252     0.0000   176.0000 </r>
       <r>    10.9785     0.0000   176.0000 </r>
       <r>    11.1319     0.0000   176.0000 </r>
       <r>    11.2852     0.0000   176.0000 </r>
       <r>    11.4386     0.0000   176.0000 </r>
       <r>    11.5919     0.0000   176.0000 </r>
       <r>    11.7452     0.0000   176.0000 </r>
       <r>    11.8986     0.0000   176.0000 </r>
       <r>    12.0519     0.0000   176.0000 </r>
       <r>    12.2053     0.0000   176.0000 </r>
       <r>    12.3586     0.0000   176.0000 </r>
       <r>    12.5120     0.0000   176.0000 </r>
      </set>
     </set>
    </array>
   </total>
  </dos>
 </calculation>
 <structure name="finalpos" >
  <crystal>
   <varray name="basis" >
    <v>      11.31370850       0.00000000       0.00000000 </v>
    <v>       0.00000000       8.00000000       0.00000000 </v>
    <v>       0.00000000       0.00000000       5.65685425 </v>
   </varray>
   <i name="volume">    512.00000000 </i>
   <varray name="rec_basis" >
    <v>       0.08838835       0.00000000       0.00000000 </v>
    <v>       0.00000000       0.12500000       0.00000000 </v>
    <v>       0.00000000       0.00000000       0.17677670 </v>
   </varray>
  </crystal>
  <varray name="positions" >
   <v>       0.62500000       0.75000000       0.75000000 </v>
   <v>       0.87500000       0.25000000       0.25000000 </v>
   <v>       0.62500000       0.25000000       0.75000000 </v>
   <v>       0.37500000       0.25000000       0.25000000 </v>
   <v>       0.12500000       0.25000000       0.75000000 </v>
   <v>       0.37500000       0.75000000       0.25000000 </v>
   <v>       0.12500000       0.75000000       0.75000000 </v>
   <v>       0.87500000       0.75000000       0.25000000 </v>
   <v>       0.62500000       0.50000000       0.25000000 </v>
   <v>       0.87500000       0.00000000       0.75000000 </v>
   <v>       0.62500000       0.00000000       0.25000000 </v>
   <v>       0.37500000       0.00000000       0.75000000 </v>
   <v>       0.12500000       0.00000000       0.25000000 </v>
   <v>       0.37500000       0.50000000       0.75000000 </v>
   <v>       0.12500000       0.50000000       0.25000000 </v>
   <v>       0.87500000       0.50000000       0.75000000 </v>
   <v>       0.50000000       0.00000000       0.00000000 </v>
   <v>       0.50000000       0.50000000       0.50000000 </v>
   <v>       0.75000000       0.00000000       0.00000000 </v>
   <v>       0.75000000       0.50000000       0.00000000 </v>
   <v>       0.62500000       0.75000000       0.25000000 </v>
   <v>       0.87500000       0.25000000       0.75000000 </v>
   <v>       0.62500000       0.25000000       0.25000000 </v>
   <v>       0.37500000       0.25000000       0.75000000 </v>
   <v>       0.00000000       0.50000000       0.00000000 </v>
   <v>       0.00000000       0.00000000       0.50000000 </v>
   <v>       0.25000000       0.50000000       0.00000000 </v>
   <v>       0.25000000       0.00000000       0.00000000 </v>
   <v>       0.12500000       0.25000000       0.25000000 </v>
   <v>       0.37500000       0.75000000       0.75000000 </v>
   <v>       0.12500000       0.75000000       0.25000000 </v>
   <v>       0.87500000       0.75000000       0.75000000 </v>
  </varray>
 </structure>
</modeling>
