<?xml version="1.0" encoding="ISO-8859-1"?>
<modeling>
 <generator>
  <i name="program" type="string">vasp </i>
  <i name="version" type="string">5.3.5  </i>
  <i name="subversion" type="string">31Mar14 (build Jun 20 2014 13:15:13) complex                          parallel </i>
  <i name="platform" type="string">LinuxIFC </i>
  <i name="date" type="string">2025 12 16 </i>
  <i name="time" type="string">16:09:04 </i>
 </generator>
 <incar>
  <i type="string" name="PREC">accurate</i>
  <i type="int" name="IALGO">    68</i>
  <i type="logical" name="ADDGRID"> T  </i>
  <i type="int" name="NELM">   100</i>
  <i type="int" name="NELMIN">     4</i>
  <i type="int" name="IBRION">     2</i>
  <i name="EDIFF">      0.00000100</i>
  <i name="EDIFFG">     -0.02000000</i>
  <i type="int" name="NSW">    30</i>
  <i type="int" name="ISIF">     3</i>
  <i name="ENCUT">    600.00000000</i>
  <i type="logical" name="LREAL"> F  </i>
  <i type="int" name="ISMEAR">     0</i>
  <i name="SIGMA">      0.10000000</i>
  <i type="logical" name="LWAVE"> F  </i>
  <i type="logical" name="LCHARG"> F  </i>
  <i type="int" name="NELM">   100</i>
 </incar>
 <kpoints>
  <generation param="Auto">
   <i name="subdivisionlength">     20.00000000 </i>
   <v type="int" name="divisions">       2        6        3 </v>
   <v name="usershift">      0.00000000       0.00000000       0.00000000 </v>
   <v name="genvec1">      0.50000000       0.00000000       0.00000000 </v>
   <v name="genvec2">      0.00000000       0.16666667       0.00000000 </v>
   <v name="genvec3">      0.00000000       0.00000000       0.33333333 </v>
   <v name="shift">      0.00000000       0.00000000       0.00000000 </v>
  </generation>
  <varray name="kpointlist" >
   <v>       0.00000000       0.00000000       0.00000000 </v>
   <v>       0.50000000       0.00000000       0.00000000 </v>
   <v>       0.00000000       0.16666667       0.00000000 </v>
   <v>       0.50000000       0.16666667       0.00000000 </v>
   <v>       0.00000000       0.33333333       0.00000000 </v>
   <v>       0.50000000       0.33333333       0.00000000 </v>
   <v>       0.00000000       0.50000000       0.00000000 </v>
   <v>       0.50000000       0.50000000       0.00000000 </v>
   <v>       0.00000000       0.00000000       0.33333333 </v>
   <v>       0.50000000       0.00000000       0.33333333 </v>
   <v>       0.00000000       0.16666667       0.33333333 </v>
   <v>       0.50000000       0.16666667       0.33333333 </v>
   <v>       0.00000000       0.33333333       0.33333333 </v>
   <v>       0.50000000       0.33333333       0.33333333 </v>
   <v>       0.00000000       0.50000000       0.33333333 </v>
   <v>       0.50000000       0.50000000       0.33333333 </v>
  </varray>
  <varray name="weights" >
   <v>       0.02777778 </v>
   <v>       0.02777778 </v>
   <v>       0.05555556 </v>
   <v>       0.05555556 </v>
   <v>       0.05555556 </v>
   <v>       0.05555556 </v>
   <v>       0.02777778 </v>
   <v>       0.02777778 </v>
   <v>       0.05555556 </v>
   <v>       0.05555556 </v>
   <v>       0.11111111 </v>
   <v>       0.11111111 </v>
   <v>       0.11111111 </v>
   <v>       0.11111111 </v>
   <v>       0.05555556 </v>
   <v>       0.05555556 </v>
  </varray>
 </kpoints>
 <parameters>
  <separator name="general" >
   <i type="string" name="SYSTEM">unknown system</i>
   <i type="logical" name="LCOMPAT"> F  </i>
  </separator>
  <separator name="electronic" >
   <i type="string" name="PREC">accura</i>
   <i name="ENMAX">    600.00000000</i>
   <i name="ENAUG">    644.87300000</i>
   <i name="EDIFF">      0.00000100</i>
   <i type="int" name="IALGO">    68</i>
   <i type="int" name="IWAVPR">    11</i>
   <i type="int" name="NBANDS">    64</i>
   <i name="NELECT">     96.00000000</i>
   <i type="int" name="TURBO">     0</i>
   <i type="int" name="IRESTART">     0</i>
   <i type="int" name="NREBOOT">     0</i>
   <i type="int" name="NMIN">     0</i>
   <i name="EREF">      0.00000000</i>
   <separator name="electronic smearing" >
    <i type="int" name="ISMEAR">     0</i>
    <i name="SIGMA">      0.10000000</i>
    <i name="KSPACING">      0.50000000</i>
    <i type="logical" name="KGAMMA"> T  </i>
   </separator>
   <separator name="electronic projectors" >
    <i type="logical" name="LREAL"> F  </i>
    <v name="ROPT">      0.00000000      0.00000000      0.00000000      0.00000000</v>
    <i type="int" name="LMAXPAW">  -100</i>
    <i type="int" name="LMAXMIX">     2</i>
    <i type="logical" name="NLSPLINE"> F  </i>
   </separator>
   <separator name="electronic startup" >
    <i type="int" name="ISTART">     0</i>
    <i type="int" name="ICHARG">     2</i>
    <i type="int" name="INIWAV">     1</i>
   </separator>
   <separator name="electronic spin" >
    <i type="int" name="ISPIN">     1</i>
    <i type="logical" name="LNONCOLLINEAR"> F  </i>
    <v name="MAGMOM">      1.00000000      1.00000000      1.00000000      1.00000000      1.00000000      1.00000000      1.00000000      1.00000000      1.00000000      1.00000000      1.00000000      1.00000000      1.00000000      1.00000000      1.00000000      1.00000000      1.00000000      1.00000000      1.00000000      1.00000000
      1.00000000      1.00000000      1.00000000      1.00000000</v>
    <i name="NUPDOWN">     -1.00000000</i>
    <i type="logical" name="LSORBIT"> F  </i>
    <v name="SAXIS">      0.00000000      0.00000000      1.00000000</v>
    <i type="logical" name="LSPIRAL"> F  </i>
    <v name="QSPIRAL">      0.00000000      0.00000000      0.00000000</v>
    <i type="logical" name="LZEROZ"> F  </i>
   </separator>
   <separator name="electronic exchange-correlation" >
    <i type="logical" name="LASPH"> F  </i>
    <i type="logical" name="LMETAGGA"> F  </i>
   </separator>
   <separator name="electronic convergence" >
    <i type="int" name="NELM">   100</i>
    <i type="int" name="NELMDL">     0</i>
    <i type="int" name="NELMIN">     4</i>
    <i name="ENINI">    600.00000000</i>
    <separator name="electronic convergence detail" >
     <i type="logical" name="LDIAG"> T  </i>
     <i type="logical" name="LSUBROT"> F  </i>
     <i name="WEIMIN">      0.00100000</i>
     <i name="EBREAK">      0.00000000</i>
     <i name="DEPER">      0.30000000</i>
     <i type="int" name="NRMM">     4</i>
     <i name="TIME">      0.40000000</i>
    </separator>
   </separator>
   <separator name="electronic mixer" >
    <i name="AMIX">      0.40000000</i>
    <i name="BMIX">      1.00000000</i>
    <i name="AMIN">      0.10000000</i>
    <i name="AMIX_MAG">      1.60000000</i>
    <i name="BMIX_MAG">      1.00000000</i>
    <separator name="electronic mixer details" >
     <i type="int" name="IMIX">     4</i>
     <i type="int" name="MAXMIX">   -45</i>
     <i name="WC">    100.00000000</i>
     <i type="int" name="INIMIX">     1</i>
     <i type="int" name="MIXPRE">     1</i>
     <i type="int" name="MREMOVE">     5</i>
    </separator>
   </separator>
   <separator name="electronic dipolcorrection" >
    <i type="logical" name="LDIPOL"> F  </i>
    <i type="logical" name="LMONO"> F  </i>
    <i type="int" name="IDIPOL">     0</i>
    <i name="EPSILON">      1.00000000</i>
    <v name="DIPOL">   -100.00000000   -100.00000000   -100.00000000</v>
    <i name="EFIELD">      0.00000000</i>
   </separator>
  </separator>
  <separator name="grids" >
   <i type="int" name="NGX">    96</i>
   <i type="int" name="NGY">    28</i>
   <i type="int" name="NGZ">    60</i>
   <i type="int" name="NGXF">   192</i>
   <i type="int" name="NGYF">    56</i>
   <i type="int" name="NGZF">   120</i>
   <i type="logical" name="ADDGRID"> T  </i>
  </separator>
  <separator name="ionic" >
   <i type="int" name="NSW">    30</i>
   <i type="int" name="IBRION">     2</i>
   <i type="int" name="ISIF">     3</i>
   <i name="PSTRESS">      0.00000000</i>
   <i name="EDIFFG">     -0.02000000</i>
   <i type="int" name="NFREE">     1</i>
   <i name="POTIM">      0.50000000</i>
   <i name="SMASS">     -3.00000000</i>
   <i name="SCALEE">      1.00000000</i>
  </separator>
  <separator name="ionic md" >
   <i name="TEBEG">      0.00010000</i>
   <i name="TEEND">      0.00010000</i>
   <i type="int" name="NBLOCK">     1</i>
   <i type="int" name="KBLOCK">    30</i>
   <i type="int" name="NPACO">   256</i>
   <i name="APACO">     16.00000000</i>
  </separator>
  <separator name="symmetry" >
   <i type="int" name="ISYM">     2</i>
   <i name="SYMPREC">      0.00001000</i>
  </separator>
  <separator name="dos" >
   <i type="logical" name="LORBIT"> F  </i>
   <v name="RWIGS">     -1.00000000     -1.00000000     -1.00000000     -1.00000000</v>
   <i type="int" name="NEDOS">   301</i>
   <i name="EMIN">     10.00000000</i>
   <i name="EMAX">    -10.00000000</i>
   <i name="EFERMI">      0.00000000</i>
  </separator>
  <separator name="writing" >
   <i type="int" name="NWRITE">     2</i>
   <i type="logical" name="LWAVE"> F  </i>
   <i type="logical" name="LCHARG"> F  </i>
   <i type="logical" name="LPARD"> F  </i>
   <i type="logical" name="LVTOT"> F  </i>
   <i type="logical" name="LVHAR"> F  </i>
   <i type="logical" name="LELF"> F  </i>
   <i type="logical" name="LOPTICS"> F  </i>
   <v name="STM">      0.00000000      0.00000000      0.00000000      0.00000000      0.00000000      0.00000000      0.00000000</v>
  </separator>
  <separator name="performance" >
   <i type="int" name="NPAR">     4</i>
   <i type="int" name="NSIM">     4</i>
   <i type="int" name="NBLK">    -1</i>
   <i type="logical" name="LPLANE"> T  </i>
   <i type="logical" name="LSCALAPACK"> T  </i>
   <i type="logical" name="LSCAAWARE"> F  </i>
   <i type="logical" name="LSCALU"> F  </i>
   <i type="logical" name="LASYNC"> F  </i>
   <i type="logical" name="LORBITALREAL"> F  </i>
  </separator>
  <separator name="miscellaneous" >
   <i type="int" name="IDIOT">     3</i>
   <i type="logical" name="LMUSIC"> F  </i>
   <v name="POMASS">     28.08500000     26.98100000     12.01100000     14.00100000</v>
   <v name="DARWINR">      0.00000000      0.00000000      0.00000000      0.00000000</v>
   <v name="DARWINV">      1.00000000      1.00000000      1.00000000      1.00000000</v>
   <i type="logical" name="LCORR"> T  </i>
  </separator>
  <i type="logical" name="GGA_COMPAT"> T  </i>
  <i type="logical" name="LBERRY"> F  </i>
  <i type="int" name="ICORELEVEL">     0</i>
  <i type="logical" name="LDAU"> F  </i>
  <i type="int" name="I_CONSTRAINED_M">     0</i>
  <separator name="electronic exchange-correlation" >
   <i type="string" name="GGA">--</i>
   <i type="int" name="VOSKOWN">     0</i>
   <i type="logical" name="LHFCALC"> F  </i>
   <i type="string" name="PRECFOCK"></i>
   <i type="logical" name="LSYMGRAD"> F  </i>
   <i type="logical" name="LHFONE"> F  </i>
   <i type="logical" name="LRHFCALC"> F  </i>
   <i type="logical" name="LTHOMAS"> F  </i>
   <i type="logical" name="LMODELHF"> F  </i>
   <i name="ENCUT4O">     -1.00000000</i>
   <i type="int" name="EXXOEP">     0</i>
   <i type="int" name="FOURORBIT">     0</i>
   <i name="AEXX">      0.00000000</i>
   <i name="HFALPHA">      0.00000000</i>
   <i name="MCALPHA">      0.00000000</i>
   <i name="ALDAX">      1.00000000</i>
   <i name="AGGAX">      1.00000000</i>
   <i name="ALDAC">      1.00000000</i>
   <i name="AGGAC">      1.00000000</i>
   <i type="int" name="NKREDX">     1</i>
   <i type="int" name="NKREDY">     1</i>
   <i type="int" name="NKREDZ">     1</i>
   <i type="logical" name="SHIFTRED"> F  </i>
   <i type="logical" name="ODDONLY"> F  </i>
   <i type="logical" name="EVENONLY"> F  </i>
   <i type="int" name="LMAXFOCK">     0</i>
   <i type="int" name="NMAXFOCKAE">     0</i>
   <i type="logical" name="LFOCKAEDFT"> F  </i>
   <i name="HFSCREEN">      0.00000000</i>
   <i name="HFSCREENC">      0.00000000</i>
   <i type="int" name="NBANDSGWLOW">     0</i>
  </separator>
  <separator name="vdW DFT" >
   <i type="logical" name="LUSE_VDW"> F  </i>
   <i name="Zab_VDW">     -0.84910000</i>
   <i name="PARAM1">      0.12340000</i>
   <i name="PARAM2">      1.00000000</i>
   <i name="PARAM3">      0.00000000</i>
  </separator>
  <separator name="model GW" >
   <i type="int" name="MODEL_GW">     0</i>
   <i name="MODEL_EPS0">      6.36293991</i>
   <i name="MODEL_ALPHA">      1.00000000</i>
  </separator>
  <separator name="linear response parameters" >
   <i type="logical" name="LEPSILON"> F  </i>
   <i type="logical" name="LRPA"> F  </i>
   <i type="logical" name="LNABLA"> F  </i>
   <i type="logical" name="LVEL"> F  </i>
   <i type="int" name="KINTER">     0</i>
   <i name="CSHIFT">      0.10000000</i>
   <i name="OMEGAMAX">     -1.00000000</i>
   <i name="DEG_THRESHOLD">      0.00200000</i>
  </separator>
  <separator name="orbital magnetization" >
   <i type="logical" name="NUCIND"> F  </i>
   <v name="MAGPOS">      0.00000000      0.00000000      0.00000000</v>
   <i type="logical" name="LNICSALL"> T  </i>
   <i type="logical" name="ORBITALMAG"> F  </i>
   <i type="logical" name="LMAGBLOCH"> F  </i>
   <i type="logical" name="LCHIMAG"> F  </i>
   <i type="logical" name="LGAUGE"> T  </i>
   <i type="int" name="MAGATOM">     0</i>
   <v name="MAGDIPOL">      0.00000000      0.00000000      0.00000000</v>
   <v name="AVECCONST">      0.00000000      0.00000000      0.00000000</v>
  </separator>
  <separator name="response functions" >
   <i type="logical" name="LADDER"> F  </i>
   <i type="logical" name="LFXC"> F  </i>
   <i type="logical" name="LHARTREE"> T  </i>
   <i type="int" name="IBSE">     0</i>
   <i type="logical" name="LTCTE"> F  </i>
   <i type="logical" name="LTETE"> F  </i>
   <i type="logical" name="LTRIPLET"> F  </i>
   <i type="logical" name="LFXCEPS"> F  </i>
   <i type="logical" name="LFXHEG"> F  </i>
   <i type="logical" name="L2ORDER"> F  </i>
   <i type="logical" name="LUSEW"> F  </i>
   <i name="ENCUTGW">     -2.00000000</i>
   <i name="ENCUTGWSOFT">     -2.00000000</i>
   <i name="ENCUTLF">     -1.00000000</i>
   <i type="int" name="LMAXMP2">    -1</i>
   <i name="SCISSOR">      0.00000000</i>
   <i type="int" name="NOMEGA">     0</i>
   <i type="int" name="NOMEGAR">     0</i>
   <i type="int" name="NBANDSGW">    -1</i>
   <i type="int" name="NBANDSO">    -1</i>
   <i type="int" name="NBANDSV">    -1</i>
   <i type="int" name="NELM">   100</i>
   <i type="int" name="DIM">     3</i>
   <i type="int" name="ANTIRES">     0</i>
   <i name="OMEGAMAX">    -30.00000000</i>
   <i name="OMEGAMIN">    -30.00000000</i>
   <i name="OMEGATL">   -200.00000000</i>
   <i type="int" name="OMEGAGRID">     0</i>
   <i name="CSHIFT">     -0.10000000</i>
   <i type="logical" name="SELFENERGY"> F  </i>
   <i type="logical" name="LSPECTRAL"> F  </i>
   <i type="logical" name="ODDONLYGW"> F  </i>
   <i type="logical" name="EVENONLYGW"> F  </i>
   <i type="int" name="NKREDLFX">     1</i>
   <i type="int" name="NKREDLFY">     1</i>
   <i type="int" name="NKREDLFZ">     1</i>
   <i type="int" name="MAXMEM">  1800</i>
   <i type="int" name="TELESCOPE">     0</i>
   <i type="int" name="TAUPAR">     1</i>
  </separator>
  <separator name="External order field" >
   <i name="OFIELD_KAPPA">      0.00000000</i>
   <v name="OFIELD_K">      0.00000000      0.00000000      0.00000000</v>
   <i name="OFIELD_Q6_NEAR">      0.00000000</i>
   <i name="OFIELD_Q6_FAR">      0.00000000</i>
   <i name="OFIELD_A">      0.00000000</i>
  </separator>
 </parameters>
 <atominfo>
  <atoms>      24 </atoms>
  <types>       4 </types>
  <array name="atoms" >
   <dimension dim="1">ion</dimension>
   <field type="string">element</field>
   <field type="int">atomtype</field>
   <set>
    <rc><c>Si</c><c>   1</c></rc>
    <rc><c>Si</c><c>   1</c></rc>
    <rc><c>Si</c><c>   1</c></rc>
    <rc><c>Si</c><c>   1</c></rc>
    <rc><c>Si</c><c>   1</c></rc>
    <rc><c>Si</c><c>   1</c></rc>
    <rc><c>Si</c><c>   1</c></rc>
    <rc><c>Si</c><c>   1</c></rc>
    <rc><c>Al</c><c>   2</c></rc>
    <rc><c>Al</c><c>   2</c></rc>
    <rc><c>Al</c><c>   2</c></rc>
    <rc><c>Al</c><c>   2</c></rc>
    <rc><c>C </c><c>   3</c></rc>
    <rc><c>C </c><c>   3</c></rc>
    <rc><c>C </c><c>   3</c></rc>
    <rc><c>C </c><c>   3</c></rc>
    <rc><c>C </c><c>   3</c></rc>
    <rc><c>C </c><c>   3</c></rc>
    <rc><c>C </c><c>   3</c></rc>
    <rc><c>C </c><c>   3</c></rc>
    <rc><c>N </c><c>   4</c></rc>
    <rc><c>N </c><c>   4</c></rc>
    <rc><c>N </c><c>   4</c></rc>
    <rc><c>N </c><c>   4</c></rc>
   </set>
  </array>
  <array name="atomtypes" >
   <dimension dim="1">type</dimension>
   <field type="int">atomspertype</field>
   <field type="string">element</field>
   <field>mass</field>
   <field>valence</field>
   <field type="string">pseudopotential</field>
   <set>
    <rc><c>   8</c><c>Si</c><c>     28.08500000</c><c>      4.00000000</c><c>  PAW_PBE Si 05Jan2001                  </c></rc>
    <rc><c>   4</c><c>Al</c><c>     26.98100000</c><c>      3.00000000</c><c>  PAW_PBE Al 04Jan2001                  </c></rc>
    <rc><c>   8</c><c>C </c><c>     12.01100000</c><c>      4.00000000</c><c>  PAW_PBE C 08Apr2002                   </c></rc>
    <rc><c>   4</c><c>N </c><c>     14.00100000</c><c>      5.00000000</c><c>  PAW_PBE N_s 07Sep2000                 </c></rc>
   </set>
  </array>
 </atominfo>
 <structure name="initialpos" >
  <crystal>
   <varray name="basis" >
    <v>      11.50119742       0.00000000      -0.03808313 </v>
    <v>       0.00000000       3.11189556       0.00000000 </v>
    <v>      -1.86674869       0.00000000       7.11749338 </v>
   </varray>
   <i name="volume">    254.51759627 </i>
   <varray name="rec_basis" >
    <v>       0.08702304       0.00000000       0.02282407 </v>
    <v>       0.00000000       0.32134755       0.00000000 </v>
    <v>       0.00046563       0.00000000       0.14062102 </v>
   </varray>
  </crystal>
  <varray name="positions" >
   <v>       0.05593723       0.50000000       0.11142396 </v>
   <v>       0.21881700       0.00000000       0.44626490 </v>
   <v>       0.44490373       0.50000000       0.38445523 </v>
   <v>       0.11633218       0.50000000       0.72677454 </v>
   <v>       0.55593723       0.00000000       0.11142396 </v>
   <v>       0.71881700       0.50000000       0.44626490 </v>
   <v>       0.94490373       0.00000000       0.38445523 </v>
   <v>       0.61633218       0.00000000       0.72677454 </v>
   <v>       0.38817504       0.50000000       0.77788209 </v>
   <v>       0.28009135       0.00000000       0.05259338 </v>
   <v>       0.88817504       0.00000000       0.77788209 </v>
   <v>       0.78009135       0.50000000       0.05259338 </v>
   <v>       0.25790185       0.50000000       0.89924547 </v>
   <v>       0.43953373       0.00000000       0.24074796 </v>
   <v>       0.09219095       0.00000000       0.57262741 </v>
   <v>       0.31288945       0.50000000       0.49508414 </v>
   <v>       0.75790185       0.00000000       0.89924547 </v>
   <v>       0.93953373       0.50000000       0.24074796 </v>
   <v>       0.59219095       0.50000000       0.57262741 </v>
   <v>       0.81288945       0.00000000       0.49508414 </v>
   <v>       0.14558210       0.00000000       0.18391375 </v>
   <v>       0.49764539       0.00000000       0.85898716 </v>
   <v>       0.64558210       0.50000000       0.18391375 </v>
   <v>       0.99764539       0.50000000       0.85898716 </v>
  </varray>
 </structure>
 <calculation>
  <scstep>
   <time name="dav">    1.30    1.30</time>
   <time name="total">    1.40    1.41</time>
   <energy>
    <i name="alphaZ">    107.78287795 </i>
    <i name="ewald">  -3389.22167532 </i>
    <i name="hartreedc">   -458.16738085 </i>
    <i name="XCdc">     12.63326120 </i>
    <i name="pawpsdc">   2657.72099209 </i>
    <i name="pawaedc">  -2398.45310567 </i>
    <i name="eentropy">     -0.02279278 </i>
    <i name="bandstr">    645.70892741 </i>
    <i name="atom">   3274.07717415 </i>
    <i name="e_fr_energy">    452.05827817 </i>
    <i name="e_wo_entrp">    452.08107096 </i>
    <i name="e_0_energy">    452.06967456 </i>
   </energy>
  </scstep>
  <scstep>
   <time name="dav">    1.48    1.48</time>
   <time name="total">    1.48    1.49</time>
   <energy>
    <i name="e_fr_energy">   -150.72210250 </i>
    <i name="e_wo_entrp">   -150.72210250 </i>
    <i name="e_0_energy">   -150.72210250 </i>
   </energy>
  </scstep>
  <scstep>
   <time name="dav">    1.52    1.52</time>
   <time name="total">    1.52    1.54</time>
   <energy>
    <i name="e_fr_energy">   -200.44572766 </i>
    <i name="e_wo_entrp">   -200.44572766 </i>
    <i name="e_0_energy">   -200.44572766 </i>
   </energy>
  </scstep>
  <scstep>
   <time name="dav">    1.48    1.48</time>
   <time name="total">    1.49    1.50</time>
   <energy>
    <i name="e_fr_energy">   -201.94601829 </i>
    <i name="e_wo_entrp">   -201.94601829 </i>
    <i name="e_0_energy">   -201.94601829 </i>
   </energy>
  </scstep>
  <scstep>
   <time name="dav">    1.52    1.52</time>
   <time name="total">    1.68    1.70</time>
   <energy>
    <i name="e_fr_energy">   -202.00529894 </i>
    <i name="e_wo_entrp">   -202.00529894 </i>
    <i name="e_0_energy">   -202.00529894 </i>
   </energy>
  </scstep>
  <scstep>
   <time name="diag">    0.22    0.22</time>
   <time name="diis">    0.90    0.90</time>
   <time name="orth">    0.04    0.04</time>
   <time name="total">    1.41    1.43</time>
   <energy>
    <i name="e_fr_energy">   -176.50429064 </i>
    <i name="e_wo_entrp">   -176.50429064 </i>
    <i name="e_0_energy">   -176.50429064 </i>
   </energy>
  </scstep>
  <scstep>
   <time name="diag">    0.22    0.22</time>
   <time name="diis">    0.92    0.92</time>
   <time name="orth">    0.04    0.04</time>
   <time name="total">    1.44    1.45</time>
   <energy>
    <i name="e_fr_energy">   -176.25391824 </i>
    <i name="e_wo_entrp">   -176.25391824 </i>
    <i name="e_0_energy">   -176.25391824 </i>
   </energy>
  </scstep>
  <scstep>
   <time name="diag">    0.22    0.22</time>
   <time name="diis">    0.84    0.84</time>
   <time name="orth">    0.04    0.04</time>
   <time name="total">    1.36    1.38</time>
   <energy>
    <i name="e_fr_energy">   -176.29398827 </i>
    <i name="e_wo_entrp">   -176.29398827 </i>
    <i name="e_0_energy">   -176.29398827 </i>
   </energy>
  </scstep>
  <scstep>
   <time name="diag">    0.22    0.22</time>
   <time name="diis">    0.84    0.84</time>
   <time name="orth">    0.04    0.04</time>
   <time name="total">    1.36    1.37</time>
   <energy>
    <i name="e_fr_energy">   -176.08399688 </i>
    <i name="e_wo_entrp">   -176.08399688 </i>
    <i name="e_0_energy">   -176.08399688 </i>
   </energy>
  </scstep>
  <scstep>
   <time name="diag">    0.22    0.22</time>
   <time name="diis">    0.88    0.88</time>
   <time name="orth">    0.04    0.04</time>
   <time name="total">    1.39    1.41</time>
   <energy>
    <i name="e_fr_energy">   -176.09085690 </i>
    <i name="e_wo_entrp">   -176.09085690 </i>
    <i name="e_0_energy">   -176.09085690 </i>
   </energy>
  </scstep>
  <scstep>
   <time name="diag">    0.22    0.22</time>
   <time name="diis">    0.85    0.86</time>
   <time name="orth">    0.04    0.04</time>
   <time name="total">    1.37    1.38</time>
   <energy>
    <i name="e_fr_energy">   -176.08814156 </i>
    <i name="e_wo_entrp">   -176.08814156 </i>
    <i name="e_0_energy">   -176.08814156 </i>
   </energy>
  </scstep>
  <scstep>
   <time name="diag">    0.22    0.22</time>
   <time name="diis">    0.85    0.85</time>
   <time name="orth">    0.04    0.04</time>
   <time name="total">    1.37    1.38</time>
   <energy>
    <i name="e_fr_energy">   -176.08830850 </i>
    <i name="e_wo_entrp">   -176.08830850 </i>
    <i name="e_0_energy">   -176.08830850 </i>
   </energy>
  </scstep>
  <scstep>
   <time name="diag">    0.22    0.22</time>
   <time name="diis">    0.87    0.87</time>
   <time name="orth">    0.04    0.04</time>
   <time name="total">    1.39    1.40</time>
   <energy>
    <i name="e_fr_energy">   -176.08831621 </i>
    <i name="e_wo_entrp">   -176.08831621 </i>
    <i name="e_0_energy">   -176.08831621 </i>
   </energy>
  </scstep>
  <scstep>
   <time name="diag">    0.22    0.22</time>
   <time name="diis">    0.89    0.89</time>
   <time name="orth">    0.04    0.04</time>
   <time name="total">    1.40    1.42</time>
   <energy>
    <i name="e_fr_energy">   -176.08830993 </i>
    <i name="e_wo_entrp">   -176.08830993 </i>
    <i name="e_0_energy">   -176.08830993 </i>
   </energy>
  </scstep>
  <scstep>
   <time name="diag">    0.22    0.22</time>
   <time name="diis">    0.59    0.59</time>
   <time name="orth">    0.04    0.04</time>
   <time name="total">    0.94    0.96</time>
   <energy>
    <i name="alphaZ">    107.78287795 </i>
    <i name="ewald">  -3389.22167532 </i>
    <i name="hartreedc">   -607.17536713 </i>
    <i name="XCdc">     26.30653188 </i>
    <i name="pawpsdc">  14241.68926860 </i>
    <i name="pawaedc"> -13987.27890921 </i>
    <i name="eentropy">      0.00000000 </i>
    <i name="bandstr">    157.73178984 </i>
    <i name="atom">   3274.07717415 </i>
    <i name="e_fr_energy">   -176.08830924 </i>
    <i name="e_wo_entrp">   -176.08830924 </i>
    <i name="e_0_energy">   -176.08830924 </i>
   </energy>
  </scstep>
  <structure>
   <crystal>
    <varray name="basis" >
     <v>      11.50119742       0.00000000      -0.03808313 </v>
     <v>       0.00000000       3.11189556       0.00000000 </v>
     <v>      -1.86674869       0.00000000       7.11749338 </v>
    </varray>
    <i name="volume">    254.51759627 </i>
    <varray name="rec_basis" >
     <v>       0.08702304       0.00000000       0.02282407 </v>
     <v>       0.00000000       0.32134755       0.00000000 </v>
     <v>       0.00046563       0.00000000       0.14062102 </v>
    </varray>
   </crystal>
   <varray name="positions" >
    <v>       0.05593723       0.50000000       0.11142396 </v>
    <v>       0.21881700       0.00000000       0.44626490 </v>
    <v>       0.44490373       0.50000000       0.38445523 </v>
    <v>       0.11633218       0.50000000       0.72677454 </v>
    <v>       0.55593723       0.00000000       0.11142396 </v>
    <v>       0.71881700       0.50000000       0.44626490 </v>
    <v>       0.94490373       0.00000000       0.38445523 </v>
    <v>       0.61633218       0.00000000       0.72677454 </v>
    <v>       0.38817504       0.50000000       0.77788209 </v>
    <v>       0.28009135       0.00000000       0.05259338 </v>
    <v>       0.88817504       0.00000000       0.77788209 </v>
    <v>       0.78009135       0.50000000       0.05259338 </v>
    <v>       0.25790185       0.50000000       0.89924547 </v>
    <v>       0.43953373       0.00000000       0.24074796 </v>
    <v>       0.09219095       0.00000000       0.57262741 </v>
    <v>       0.31288945       0.50000000       0.49508414 </v>
    <v>       0.75790185       0.00000000       0.89924547 </v>
    <v>       0.93953373       0.50000000       0.24074796 </v>
    <v>       0.59219095       0.50000000       0.57262741 </v>
    <v>       0.81288945       0.00000000       0.49508414 </v>
    <v>       0.14558210       0.00000000       0.18391375 </v>
    <v>       0.49764539       0.00000000       0.85898716 </v>
    <v>       0.64558210       0.50000000       0.18391375 </v>
    <v>       0.99764539       0.50000000       0.85898716 </v>
   </varray>
  </structure>
  <varray name="forces" >
   <v>      -0.00392642       0.00000000       0.00227750 </v>
   <v>      -0.00240863       0.00000000      -0.01302084 </v>
   <v>      -0.00373635       0.00000000       0.00345989 </v>
   <v>       0.01444491       0.00000000       0.01060310 </v>
   <v>      -0.00392642       0.00000000       0.00227750 </v>
   <v>      -0.00240863       0.00000000      -0.01302084 </v>
   <v>      -0.00373635       0.00000000       0.00345989 </v>
   <v>       0.01444491       0.00000000       0.01060310 </v>
   <v>      -0.00051132       0.00000000       0.00527632 </v>
   <v>       0.00348123       0.00000000       0.00059878 </v>
   <v>      -0.00051132       0.00000000       0.00527632 </v>
   <v>       0.00348123       0.00000000       0.00059878 </v>
   <v>      -0.00213438       0.00000000      -0.00718381 </v>
   <v>      -0.01076836       0.00000000       0.00807172 </v>
   <v>       0.00027392       0.00000000      -0.00824429 </v>
   <v>       0.00487684       0.00000000      -0.00830936 </v>
   <v>      -0.00213438       0.00000000      -0.00718381 </v>
   <v>      -0.01076836       0.00000000       0.00807172 </v>
   <v>       0.00027392       0.00000000      -0.00824429 </v>
   <v>       0.00487684       0.00000000      -0.00830936 </v>
   <v>       0.00244836       0.00000000      -0.00285793 </v>
   <v>      -0.00203980       0.00000000       0.00932892 </v>
   <v>       0.00244836       0.00000000      -0.00285793 </v>
   <v>      -0.00203980       0.00000000       0.00932892 </v>
  </varray>
  <varray name="stress" >
   <v>       0.16583000       0.00000000      -0.06270024 </v>
   <v>       0.00000000       0.13186242       0.00000000 </v>
   <v>      -0.06270029       0.00000000      -0.24717847 </v>
  </varray>
  <energy>
   <i name="e_fr_energy">   -176.08830924 </i>
   <i name="e_wo_entrp">   -176.08830924 </i>
   <i name="e_0_energy">      0.00000000 </i>
  </energy>
  <time name="totalsc">   24.01   24.26</time>
  <eigenvalues>
   <array>
    <dimension dim="1">band</dimension>
    <dimension dim="2">kpoint</dimension>
    <dimension dim="3">spin</dimension>
    <field>eigene</field>
    <field>occ</field>
    <set>
     <set comment="spin 1">
      <set comment="kpoint 1">
       <r>   -9.3585    1.0000 </r>
       <r>   -9.2505    1.0000 </r>
       <r>   -7.9193    1.0000 </r>
       <r>   -7.8802    1.0000 </r>
       <r>   -5.9694    1.0000 </r>
       <r>   -5.5579    1.0000 </r>
       <r>   -5.4489    1.0000 </r>
       <r>   -4.3178    1.0000 </r>
       <r>   -3.9671    1.0000 </r>
       <r>   -3.7938    1.0000 </r>
       <r>   -2.9325    1.0000 </r>
       <r>   -2.6646    1.0000 </r>
       <r>   -0.5750    1.0000 </r>
       <r>    0.0755    1.0000 </r>
       <r>    0.6018    1.0000 </r>
       <r>    1.0956    1.0000 </r>
       <r>    1.2742    1.0000 </r>
       <r>    1.6893    1.0000 </r>
       <r>    1.8504    1.0000 </r>
       <r>    2.0457    1.0000 </r>
       <r>    2.5076    1.0000 </r>
       <r>    2.6466    1.0000 </r>
       <r>    3.1565    1.0000 </r>
       <r>    3.2206    1.0000 </r>
       <r>    3.5245    1.0000 </r>
       <r>    3.8033    1.0000 </r>
       <r>    4.1401    1.0000 </r>
       <r>    4.3240    1.0000 </r>
       <r>    4.6177    1.0000 </r>
       <r>    5.0238    1.0000 </r>
       <r>    5.0455    1.0000 </r>
       <r>    5.1155    1.0000 </r>
       <r>    5.3432    1.0000 </r>
       <r>    5.6328    1.0000 </r>
       <r>    5.7988    1.0000 </r>
       <r>    6.0091    1.0000 </r>
       <r>    6.0612    1.0000 </r>
       <r>    6.0789    1.0000 </r>
       <r>    6.4230    1.0000 </r>
       <r>    6.5285    1.0000 </r>
       <r>    6.6600    1.0000 </r>
       <r>    6.8686    1.0000 </r>
       <r>    6.8928    1.0000 </r>
       <r>    7.0533    1.0000 </r>
       <r>    7.4064    1.0000 </r>
       <r>    7.8953    1.0000 </r>
       <r>    8.4136    1.0000 </r>
       <r>    8.4866    1.0000 </r>
       <r>   10.4268    0.0000 </r>
       <r>   10.4277    0.0000 </r>
       <r>   11.3158    0.0000 </r>
       <r>   11.6860    0.0000 </r>
       <r>   11.8436    0.0000 </r>
       <r>   12.1915    0.0000 </r>
       <r>   12.3360    0.0000 </r>
       <r>   12.7687    0.0000 </r>
       <r>   12.8287    0.0000 </r>
       <r>   13.4174    0.0000 </r>
       <r>   13.7504    0.0000 </r>
       <r>   13.8627    0.0000 </r>
       <r>   13.9453    0.0000 </r>
       <r>   14.3606    0.0000 </r>
       <r>   14.4807    0.0000 </r>
       <r>   15.3102    0.0000 </r>
      </set>
      <set comment="kpoint 2">
       <r>   -9.3066    1.0000 </r>
       <r>   -9.3066    1.0000 </r>
       <r>   -7.8983    1.0000 </r>
       <r>   -7.8983    1.0000 </r>
       <r>   -5.8452    1.0000 </r>
       <r>   -5.8452    1.0000 </r>
       <r>   -4.8960    1.0000 </r>
       <r>   -4.8960    1.0000 </r>
       <r>   -3.8607    1.0000 </r>
       <r>   -3.8607    1.0000 </r>
       <r>   -2.6870    1.0000 </r>
       <r>   -2.6870    1.0000 </r>
       <r>   -0.2269    1.0000 </r>
       <r>   -0.2269    1.0000 </r>
       <r>    0.5928    1.0000 </r>
       <r>    0.5928    1.0000 </r>
       <r>    1.4973    1.0000 </r>
       <r>    1.4973    1.0000 </r>
       <r>    2.0652    1.0000 </r>
       <r>    2.0652    1.0000 </r>
       <r>    2.7667    1.0000 </r>
       <r>    2.7667    1.0000 </r>
       <r>    3.1879    1.0000 </r>
       <r>    3.1879    1.0000 </r>
       <r>    3.2862    1.0000 </r>
       <r>    3.2862    1.0000 </r>
       <r>    4.4207    1.0000 </r>
       <r>    4.4207    1.0000 </r>
       <r>    5.0329    1.0000 </r>
       <r>    5.0329    1.0000 </r>
       <r>    5.2059    1.0000 </r>
       <r>    5.2059    1.0000 </r>
       <r>    5.6939    1.0000 </r>
       <r>    5.6939    1.0000 </r>
       <r>    5.7135    1.0000 </r>
       <r>    5.7135    1.0000 </r>
       <r>    5.8877    1.0000 </r>
       <r>    5.8877    1.0000 </r>
       <r>    6.3353    1.0000 </r>
       <r>    6.3353    1.0000 </r>
       <r>    6.8056    1.0000 </r>
       <r>    6.8056    1.0000 </r>
       <r>    7.0191    1.0000 </r>
       <r>    7.0191    1.0000 </r>
       <r>    7.4985    1.0000 </r>
       <r>    7.4985    1.0000 </r>
       <r>    8.4544    1.0000 </r>
       <r>    8.4544    1.0000 </r>
       <r>   10.4647    0.0000 </r>
       <r>   10.4647    0.0000 </r>
       <r>   11.5420    0.0000 </r>
       <r>   11.5420    0.0000 </r>
       <r>   11.9775    0.0000 </r>
       <r>   11.9775    0.0000 </r>
       <r>   12.4452    0.0000 </r>
       <r>   12.4453    0.0000 </r>
       <r>   12.8502    0.0000 </r>
       <r>   12.8504    0.0000 </r>
       <r>   14.2237    0.0000 </r>
       <r>   14.2286    0.0000 </r>
       <r>   14.5237    0.0000 </r>
       <r>   14.6065    0.0000 </r>
       <r>   14.9178    0.0000 </r>
       <r>   15.0044    0.0000 </r>
      </set>
      <set comment="kpoint 3">
       <r>   -9.1036    1.0000 </r>
       <r>   -9.0052    1.0000 </r>
       <r>   -7.7771    1.0000 </r>
       <r>   -7.7452    1.0000 </r>
       <r>   -5.6605    1.0000 </r>
       <r>   -5.2382    1.0000 </r>
       <r>   -5.1314    1.0000 </r>
       <r>   -4.0478    1.0000 </r>
       <r>   -3.7064    1.0000 </r>
       <r>   -3.5111    1.0000 </r>
       <r>   -2.7006    1.0000 </r>
       <r>   -2.5293    1.0000 </r>
       <r>   -0.3322    1.0000 </r>
       <r>    0.2781    1.0000 </r>
       <r>    0.6008    1.0000 </r>
       <r>    1.0080    1.0000 </r>
       <r>    1.2398    1.0000 </r>
       <r>    1.6837    1.0000 </r>
       <r>    1.7376    1.0000 </r>
       <r>    2.0674    1.0000 </r>
       <r>    2.1820    1.0000 </r>
       <r>    2.5197    1.0000 </r>
       <r>    2.6044    1.0000 </r>
       <r>    2.7678    1.0000 </r>
       <r>    3.2872    1.0000 </r>
       <r>    3.6095    1.0000 </r>
       <r>    3.6905    1.0000 </r>
       <r>    4.1159    1.0000 </r>
       <r>    4.3344    1.0000 </r>
       <r>    4.3502    1.0000 </r>
       <r>    4.5337    1.0000 </r>
       <r>    4.6285    1.0000 </r>
       <r>    4.7317    1.0000 </r>
       <r>    4.7680    1.0000 </r>
       <r>    4.8655    1.0000 </r>
       <r>    5.3032    1.0000 </r>
       <r>    5.5016    1.0000 </r>
       <r>    5.7929    1.0000 </r>
       <r>    5.8831    1.0000 </r>
       <r>    6.1002    1.0000 </r>
       <r>    6.2402    1.0000 </r>
       <r>    6.5295    1.0000 </r>
       <r>    6.6764    1.0000 </r>
       <r>    6.9301    1.0000 </r>
       <r>    7.2233    1.0000 </r>
       <r>    7.3090    1.0000 </r>
       <r>    7.6053    1.0000 </r>
       <r>    7.6450    1.0000 </r>
       <r>   11.1532    0.0000 </r>
       <r>   11.6631    0.0000 </r>
       <r>   12.0987    0.0000 </r>
       <r>   12.3009    0.0000 </r>
       <r>   12.5274    0.0000 </r>
       <r>   12.7512    0.0000 </r>
       <r>   12.9974    0.0000 </r>
       <r>   13.0509    0.0000 </r>
       <r>   13.2572    0.0000 </r>
       <r>   13.5960    0.0000 </r>
       <r>   13.9038    0.0000 </r>
       <r>   14.0561    0.0000 </r>
       <r>   14.1043    0.0000 </r>
       <r>   14.1281    0.0000 </r>
       <r>   14.3822    0.0000 </r>
       <r>   14.4575    0.0000 </r>
      </set>
      <set comment="kpoint 4">
       <r>   -9.0561    1.0000 </r>
       <r>   -9.0561    1.0000 </r>
       <r>   -7.7599    1.0000 </r>
       <r>   -7.7599    1.0000 </r>
       <r>   -5.5358    1.0000 </r>
       <r>   -5.5358    1.0000 </r>
       <r>   -4.5815    1.0000 </r>
       <r>   -4.5815    1.0000 </r>
       <r>   -3.5970    1.0000 </r>
       <r>   -3.5970    1.0000 </r>
       <r>   -2.5291    1.0000 </r>
       <r>   -2.5291    1.0000 </r>
       <r>   -0.0065    1.0000 </r>
       <r>   -0.0065    1.0000 </r>
       <r>    0.7727    1.0000 </r>
       <r>    0.7727    1.0000 </r>
       <r>    1.5429    1.0000 </r>
       <r>    1.5429    1.0000 </r>
       <r>    1.6127    1.0000 </r>
       <r>    1.6127    1.0000 </r>
       <r>    2.3031    1.0000 </r>
       <r>    2.3031    1.0000 </r>
       <r>    2.7971    1.0000 </r>
       <r>    2.7971    1.0000 </r>
       <r>    3.4469    1.0000 </r>
       <r>    3.4469    1.0000 </r>
       <r>    3.9341    1.0000 </r>
       <r>    3.9341    1.0000 </r>
       <r>    4.3551    1.0000 </r>
       <r>    4.3551    1.0000 </r>
       <r>    4.5212    1.0000 </r>
       <r>    4.5212    1.0000 </r>
       <r>    5.0547    1.0000 </r>
       <r>    5.0547    1.0000 </r>
       <r>    5.3617    1.0000 </r>
       <r>    5.3617    1.0000 </r>
       <r>    5.6325    1.0000 </r>
       <r>    5.6325    1.0000 </r>
       <r>    5.9621    1.0000 </r>
       <r>    5.9621    1.0000 </r>
       <r>    6.0603    1.0000 </r>
       <r>    6.0603    1.0000 </r>
       <r>    6.6724    1.0000 </r>
       <r>    6.6724    1.0000 </r>
       <r>    7.1757    1.0000 </r>
       <r>    7.1757    1.0000 </r>
       <r>    7.7129    1.0000 </r>
       <r>    7.7129    1.0000 </r>
       <r>   11.4828    0.0000 </r>
       <r>   11.4828    0.0000 </r>
       <r>   12.0385    0.0000 </r>
       <r>   12.0388    0.0000 </r>
       <r>   12.5655    0.0000 </r>
       <r>   12.5657    0.0000 </r>
       <r>   13.1869    0.0000 </r>
       <r>   13.1894    0.0000 </r>
       <r>   13.4041    0.0000 </r>
       <r>   13.4052    0.0000 </r>
       <r>   14.0495    0.0000 </r>
       <r>   14.0668    0.0000 </r>
       <r>   14.3368    0.0000 </r>
       <r>   14.3871    0.0000 </r>
       <r>   14.8435    0.0000 </r>
       <r>   14.8949    0.0000 </r>
      </set>
      <set comment="kpoint 5">
       <r>   -8.4418    1.0000 </r>
       <r>   -8.3737    1.0000 </r>
       <r>   -7.5285    1.0000 </r>
       <r>   -7.5110    1.0000 </r>
       <r>   -4.8050    1.0000 </r>
       <r>   -4.3632    1.0000 </r>
       <r>   -4.2218    1.0000 </r>
       <r>   -3.4229    1.0000 </r>
       <r>   -3.2142    1.0000 </r>
       <r>   -2.7941    1.0000 </r>
       <r>   -2.3380    1.0000 </r>
       <r>   -2.2548    1.0000 </r>
       <r>   -0.4310    1.0000 </r>
       <r>   -0.0861    1.0000 </r>
       <r>    0.0114    1.0000 </r>
       <r>    0.5731    1.0000 </r>
       <r>    0.6230    1.0000 </r>
       <r>    0.8849    1.0000 </r>
       <r>    1.2134    1.0000 </r>
       <r>    1.5594    1.0000 </r>
       <r>    1.6761    1.0000 </r>
       <r>    2.2291    1.0000 </r>
       <r>    2.3119    1.0000 </r>
       <r>    2.4424    1.0000 </r>
       <r>    2.7258    1.0000 </r>
       <r>    2.7969    1.0000 </r>
       <r>    3.1646    1.0000 </r>
       <r>    3.3491    1.0000 </r>
       <r>    3.5235    1.0000 </r>
       <r>    3.7286    1.0000 </r>
       <r>    3.8124    1.0000 </r>
       <r>    3.8912    1.0000 </r>
       <r>    3.9793    1.0000 </r>
       <r>    4.4452    1.0000 </r>
       <r>    4.5233    1.0000 </r>
       <r>    4.6929    1.0000 </r>
       <r>    5.0672    1.0000 </r>
       <r>    5.4219    1.0000 </r>
       <r>    5.4250    1.0000 </r>
       <r>    5.6088    1.0000 </r>
       <r>    5.8102    1.0000 </r>
       <r>    6.0502    1.0000 </r>
       <r>    6.2397    1.0000 </r>
       <r>    6.4777    1.0000 </r>
       <r>    6.6166    1.0000 </r>
       <r>    6.8572    1.0000 </r>
       <r>    7.0966    1.0000 </r>
       <r>    7.1273    1.0000 </r>
       <r>   10.4684    0.0000 </r>
       <r>   11.1226    0.0000 </r>
       <r>   11.5307    0.0000 </r>
       <r>   11.7722    0.0000 </r>
       <r>   11.8549    0.0000 </r>
       <r>   12.3219    0.0000 </r>
       <r>   12.5656    0.0000 </r>
       <r>   12.9590    0.0000 </r>
       <r>   13.0670    0.0000 </r>
       <r>   13.4811    0.0000 </r>
       <r>   13.6609    0.0000 </r>
       <r>   13.7869    0.0000 </r>
       <r>   14.0217    0.0000 </r>
       <r>   14.0854    0.0000 </r>
       <r>   14.3889    0.0000 </r>
       <r>   14.6494    0.0000 </r>
      </set>
      <set comment="kpoint 6">
       <r>   -8.4086    1.0000 </r>
       <r>   -8.4086    1.0000 </r>
       <r>   -7.5191    1.0000 </r>
       <r>   -7.5191    1.0000 </r>
       <r>   -4.6768    1.0000 </r>
       <r>   -4.6768    1.0000 </r>
       <r>   -3.7321    1.0000 </r>
       <r>   -3.7321    1.0000 </r>
       <r>   -3.0483    1.0000 </r>
       <r>   -3.0483    1.0000 </r>
       <r>   -2.2928    1.0000 </r>
       <r>   -2.2928    1.0000 </r>
       <r>   -0.2232    1.0000 </r>
       <r>   -0.2232    1.0000 </r>
       <r>    0.4280    1.0000 </r>
       <r>    0.4280    1.0000 </r>
       <r>    0.7613    1.0000 </r>
       <r>    0.7613    1.0000 </r>
       <r>    1.3550    1.0000 </r>
       <r>    1.3550    1.0000 </r>
       <r>    1.8180    1.0000 </r>
       <r>    1.8180    1.0000 </r>
       <r>    2.1240    1.0000 </r>
       <r>    2.1240    1.0000 </r>
       <r>    2.6689    1.0000 </r>
       <r>    2.6689    1.0000 </r>
       <r>    3.3971    1.0000 </r>
       <r>    3.3971    1.0000 </r>
       <r>    3.7029    1.0000 </r>
       <r>    3.7029    1.0000 </r>
       <r>    3.9679    1.0000 </r>
       <r>    3.9679    1.0000 </r>
       <r>    4.3853    1.0000 </r>
       <r>    4.3853    1.0000 </r>
       <r>    4.7919    1.0000 </r>
       <r>    4.7919    1.0000 </r>
       <r>    5.1945    1.0000 </r>
       <r>    5.1945    1.0000 </r>
       <r>    5.4982    1.0000 </r>
       <r>    5.4982    1.0000 </r>
       <r>    5.7579    1.0000 </r>
       <r>    5.7579    1.0000 </r>
       <r>    6.1506    1.0000 </r>
       <r>    6.1506    1.0000 </r>
       <r>    6.8922    1.0000 </r>
       <r>    6.8922    1.0000 </r>
       <r>    7.0082    1.0000 </r>
       <r>    7.0082    1.0000 </r>
       <r>   11.1569    0.0000 </r>
       <r>   11.1569    0.0000 </r>
       <r>   11.4278    0.0000 </r>
       <r>   11.4278    0.0000 </r>
       <r>   12.0897    0.0000 </r>
       <r>   12.0900    0.0000 </r>
       <r>   12.6127    0.0000 </r>
       <r>   12.6130    0.0000 </r>
       <r>   13.1937    0.0000 </r>
       <r>   13.1944    0.0000 </r>
       <r>   13.9659    0.0000 </r>
       <r>   14.0139    0.0000 </r>
       <r>   14.2597    0.0000 </r>
       <r>   14.2879    0.0000 </r>
       <r>   14.5316    0.0000 </r>
       <r>   14.8007    0.0000 </r>
      </set>
      <set comment="kpoint 7">
       <r>   -7.8528    1.0000 </r>
       <r>   -7.8528    1.0000 </r>
       <r>   -7.5575    1.0000 </r>
       <r>   -7.5575    1.0000 </r>
       <r>   -3.7980    1.0000 </r>
       <r>   -3.7980    1.0000 </r>
       <r>   -3.3044    1.0000 </r>
       <r>   -3.3044    1.0000 </r>
       <r>   -2.9716    1.0000 </r>
       <r>   -2.9716    1.0000 </r>
       <r>   -2.0208    1.0000 </r>
       <r>   -2.0208    1.0000 </r>
       <r>   -0.8933    1.0000 </r>
       <r>   -0.8933    1.0000 </r>
       <r>   -0.2050    1.0000 </r>
       <r>   -0.2050    1.0000 </r>
       <r>    0.4230    1.0000 </r>
       <r>    0.4230    1.0000 </r>
       <r>    0.7251    1.0000 </r>
       <r>    0.7251    1.0000 </r>
       <r>    1.6320    1.0000 </r>
       <r>    1.6320    1.0000 </r>
       <r>    2.3584    1.0000 </r>
       <r>    2.3584    1.0000 </r>
       <r>    2.5690    1.0000 </r>
       <r>    2.5690    1.0000 </r>
       <r>    3.1792    1.0000 </r>
       <r>    3.1792    1.0000 </r>
       <r>    3.2852    1.0000 </r>
       <r>    3.2852    1.0000 </r>
       <r>    3.9641    1.0000 </r>
       <r>    3.9641    1.0000 </r>
       <r>    4.1827    1.0000 </r>
       <r>    4.1827    1.0000 </r>
       <r>    4.7119    1.0000 </r>
       <r>    4.7119    1.0000 </r>
       <r>    5.0023    1.0000 </r>
       <r>    5.0023    1.0000 </r>
       <r>    5.4977    1.0000 </r>
       <r>    5.4977    1.0000 </r>
       <r>    5.6380    1.0000 </r>
       <r>    5.6380    1.0000 </r>
       <r>    6.1164    1.0000 </r>
       <r>    6.1164    1.0000 </r>
       <r>    6.2800    1.0000 </r>
       <r>    6.2800    1.0000 </r>
       <r>    7.0177    1.0000 </r>
       <r>    7.0177    1.0000 </r>
       <r>   10.8277    0.0000 </r>
       <r>   10.8277    0.0000 </r>
       <r>   10.9947    0.0000 </r>
       <r>   10.9947    0.0000 </r>
       <r>   11.4649    0.0000 </r>
       <r>   11.4649    0.0000 </r>
       <r>   12.1720    0.0000 </r>
       <r>   12.1721    0.0000 </r>
       <r>   12.5737    0.0000 </r>
       <r>   12.5746    0.0000 </r>
       <r>   13.6616    0.0000 </r>
       <r>   13.6677    0.0000 </r>
       <r>   14.3981    0.0000 </r>
       <r>   14.4202    0.0000 </r>
       <r>   14.5572    0.0000 </r>
       <r>   14.8399    0.0000 </r>
      </set>
      <set comment="kpoint 8">
       <r>   -7.8526    1.0000 </r>
       <r>   -7.8526    1.0000 </r>
       <r>   -7.5578    1.0000 </r>
       <r>   -7.5578    1.0000 </r>
       <r>   -3.7989    1.0000 </r>
       <r>   -3.7989    1.0000 </r>
       <r>   -3.3405    1.0000 </r>
       <r>   -3.3405    1.0000 </r>
       <r>   -2.9097    1.0000 </r>
       <r>   -2.9097    1.0000 </r>
       <r>   -2.0269    1.0000 </r>
       <r>   -2.0269    1.0000 </r>
       <r>   -0.9473    1.0000 </r>
       <r>   -0.9473    1.0000 </r>
       <r>   -0.1936    1.0000 </r>
       <r>   -0.1936    1.0000 </r>
       <r>    0.3493    1.0000 </r>
       <r>    0.3493    1.0000 </r>
       <r>    0.7615    1.0000 </r>
       <r>    0.7615    1.0000 </r>
       <r>    1.8670    1.0000 </r>
       <r>    1.8670    1.0000 </r>
       <r>    2.3626    1.0000 </r>
       <r>    2.3626    1.0000 </r>
       <r>    2.6858    1.0000 </r>
       <r>    2.6858    1.0000 </r>
       <r>    2.8946    1.0000 </r>
       <r>    2.8946    1.0000 </r>
       <r>    3.1680    1.0000 </r>
       <r>    3.1680    1.0000 </r>
       <r>    3.7235    1.0000 </r>
       <r>    3.7235    1.0000 </r>
       <r>    4.6242    1.0000 </r>
       <r>    4.6242    1.0000 </r>
       <r>    4.6843    1.0000 </r>
       <r>    4.6843    1.0000 </r>
       <r>    4.9917    1.0000 </r>
       <r>    4.9917    1.0000 </r>
       <r>    5.4981    1.0000 </r>
       <r>    5.4981    1.0000 </r>
       <r>    5.7306    1.0000 </r>
       <r>    5.7306    1.0000 </r>
       <r>    5.8687    1.0000 </r>
       <r>    5.8687    1.0000 </r>
       <r>    6.3900    1.0000 </r>
       <r>    6.3900    1.0000 </r>
       <r>    6.9620    1.0000 </r>
       <r>    6.9620    1.0000 </r>
       <r>   10.6153    0.0000 </r>
       <r>   10.6153    0.0000 </r>
       <r>   11.5533    0.0000 </r>
       <r>   11.5533    0.0000 </r>
       <r>   11.6800    0.0000 </r>
       <r>   11.6801    0.0000 </r>
       <r>   11.9399    0.0000 </r>
       <r>   11.9399    0.0000 </r>
       <r>   13.0380    0.0000 </r>
       <r>   13.0393    0.0000 </r>
       <r>   13.4355    0.0000 </r>
       <r>   13.4655    0.0000 </r>
       <r>   13.5922    0.0000 </r>
       <r>   13.6129    0.0000 </r>
       <r>   14.1271    0.0000 </r>
       <r>   14.2371    0.0000 </r>
      </set>
      <set comment="kpoint 9">
       <r>   -9.3007    1.0000 </r>
       <r>   -9.2328    1.0000 </r>
       <r>   -8.0416    1.0000 </r>
       <r>   -7.9373    1.0000 </r>
       <r>   -5.8477    1.0000 </r>
       <r>   -5.7704    1.0000 </r>
       <r>   -5.3734    1.0000 </r>
       <r>   -4.3001    1.0000 </r>
       <r>   -3.8714    1.0000 </r>
       <r>   -3.5961    1.0000 </r>
       <r>   -2.7816    1.0000 </r>
       <r>   -2.6116    1.0000 </r>
       <r>   -0.4347    1.0000 </r>
       <r>   -0.2456    1.0000 </r>
       <r>    0.0407    1.0000 </r>
       <r>    0.5454    1.0000 </r>
       <r>    1.4093    1.0000 </r>
       <r>    1.5542    1.0000 </r>
       <r>    1.9498    1.0000 </r>
       <r>    2.4629    1.0000 </r>
       <r>    2.7828    1.0000 </r>
       <r>    2.8585    1.0000 </r>
       <r>    2.9544    1.0000 </r>
       <r>    3.1811    1.0000 </r>
       <r>    3.2284    1.0000 </r>
       <r>    3.9255    1.0000 </r>
       <r>    4.2713    1.0000 </r>
       <r>    4.4965    1.0000 </r>
       <r>    4.8829    1.0000 </r>
       <r>    4.9283    1.0000 </r>
       <r>    5.0490    1.0000 </r>
       <r>    5.0964    1.0000 </r>
       <r>    5.3496    1.0000 </r>
       <r>    5.6837    1.0000 </r>
       <r>    5.7370    1.0000 </r>
       <r>    5.7470    1.0000 </r>
       <r>    5.8907    1.0000 </r>
       <r>    6.0218    1.0000 </r>
       <r>    6.6320    1.0000 </r>
       <r>    6.6729    1.0000 </r>
       <r>    6.8811    1.0000 </r>
       <r>    6.9533    1.0000 </r>
       <r>    6.9978    1.0000 </r>
       <r>    7.1970    1.0000 </r>
       <r>    7.2238    1.0000 </r>
       <r>    7.6582    1.0000 </r>
       <r>    8.4154    1.0000 </r>
       <r>    8.4768    1.0000 </r>
       <r>   10.4260    0.0000 </r>
       <r>   10.5418    0.0000 </r>
       <r>   11.4429    0.0000 </r>
       <r>   11.6687    0.0000 </r>
       <r>   12.0431    0.0000 </r>
       <r>   12.0581    0.0000 </r>
       <r>   12.3915    0.0000 </r>
       <r>   12.4373    0.0000 </r>
       <r>   13.2976    0.0000 </r>
       <r>   13.3239    0.0000 </r>
       <r>   13.6269    0.0000 </r>
       <r>   14.0240    0.0000 </r>
       <r>   14.1685    0.0000 </r>
       <r>   14.3374    0.0000 </r>
       <r>   14.6563    0.0000 </r>
       <r>   15.0020    0.0000 </r>
      </set>
      <set comment="kpoint 10">
       <r>   -9.2797    1.0000 </r>
       <r>   -9.2550    1.0000 </r>
       <r>   -8.0285    1.0000 </r>
       <r>   -7.9521    1.0000 </r>
       <r>   -5.9171    1.0000 </r>
       <r>   -5.7339    1.0000 </r>
       <r>   -5.0633    1.0000 </r>
       <r>   -4.8442    1.0000 </r>
       <r>   -3.5787    1.0000 </r>
       <r>   -3.5030    1.0000 </r>
       <r>   -2.8991    1.0000 </r>
       <r>   -2.6270    1.0000 </r>
       <r>   -0.6256    1.0000 </r>
       <r>   -0.1019    1.0000 </r>
       <r>    0.5048    1.0000 </r>
       <r>    0.7029    1.0000 </r>
       <r>    0.9740    1.0000 </r>
       <r>    1.3526    1.0000 </r>
       <r>    1.9010    1.0000 </r>
       <r>    2.2107    1.0000 </r>
       <r>    2.3103    1.0000 </r>
       <r>    3.0709    1.0000 </r>
       <r>    3.1997    1.0000 </r>
       <r>    3.2091    1.0000 </r>
       <r>    3.7970    1.0000 </r>
       <r>    3.8492    1.0000 </r>
       <r>    4.2138    1.0000 </r>
       <r>    4.2541    1.0000 </r>
       <r>    4.9225    1.0000 </r>
       <r>    4.9972    1.0000 </r>
       <r>    5.2264    1.0000 </r>
       <r>    5.2853    1.0000 </r>
       <r>    5.6611    1.0000 </r>
       <r>    5.6682    1.0000 </r>
       <r>    5.7971    1.0000 </r>
       <r>    5.8139    1.0000 </r>
       <r>    6.0151    1.0000 </r>
       <r>    6.0843    1.0000 </r>
       <r>    6.2515    1.0000 </r>
       <r>    6.3346    1.0000 </r>
       <r>    6.6452    1.0000 </r>
       <r>    6.6922    1.0000 </r>
       <r>    7.1053    1.0000 </r>
       <r>    7.1167    1.0000 </r>
       <r>    7.2489    1.0000 </r>
       <r>    7.8088    1.0000 </r>
       <r>    8.4069    1.0000 </r>
       <r>    8.4813    1.0000 </r>
       <r>   10.3707    0.0000 </r>
       <r>   10.4595    0.0000 </r>
       <r>   11.4348    0.0000 </r>
       <r>   11.7220    0.0000 </r>
       <r>   11.9268    0.0000 </r>
       <r>   12.2228    0.0000 </r>
       <r>   12.2262    0.0000 </r>
       <r>   12.7960    0.0000 </r>
       <r>   13.1064    0.0000 </r>
       <r>   13.6537    0.0000 </r>
       <r>   13.8774    0.0000 </r>
       <r>   13.9804    0.0000 </r>
       <r>   14.4039    0.0000 </r>
       <r>   14.5725    0.0000 </r>
       <r>   14.6953    0.0000 </r>
       <r>   14.8937    0.0000 </r>
      </set>
      <set comment="kpoint 11">
       <r>   -9.0509    1.0000 </r>
       <r>   -8.9891    1.0000 </r>
       <r>   -7.8751    1.0000 </r>
       <r>   -7.7925    1.0000 </r>
       <r>   -5.5835    1.0000 </r>
       <r>   -5.4480    1.0000 </r>
       <r>   -5.0560    1.0000 </r>
       <r>   -4.0260    1.0000 </r>
       <r>   -3.5789    1.0000 </r>
       <r>   -3.3526    1.0000 </r>
       <r>   -2.6185    1.0000 </r>
       <r>   -2.4055    1.0000 </r>
       <r>   -0.2586    1.0000 </r>
       <r>   -0.1442    1.0000 </r>
       <r>    0.2374    1.0000 </r>
       <r>    0.7077    1.0000 </r>
       <r>    1.3970    1.0000 </r>
       <r>    1.5553    1.0000 </r>
       <r>    1.9642    1.0000 </r>
       <r>    2.0942    1.0000 </r>
       <r>    2.1427    1.0000 </r>
       <r>    2.5887    1.0000 </r>
       <r>    2.8604    1.0000 </r>
       <r>    2.9498    1.0000 </r>
       <r>    3.1198    1.0000 </r>
       <r>    3.5954    1.0000 </r>
       <r>    3.6514    1.0000 </r>
       <r>    3.7946    1.0000 </r>
       <r>    4.0334    1.0000 </r>
       <r>    4.2592    1.0000 </r>
       <r>    4.4336    1.0000 </r>
       <r>    4.6571    1.0000 </r>
       <r>    5.0293    1.0000 </r>
       <r>    5.0658    1.0000 </r>
       <r>    5.2942    1.0000 </r>
       <r>    5.4247    1.0000 </r>
       <r>    5.5583    1.0000 </r>
       <r>    5.6215    1.0000 </r>
       <r>    5.8194    1.0000 </r>
       <r>    6.0643    1.0000 </r>
       <r>    6.2082    1.0000 </r>
       <r>    6.5805    1.0000 </r>
       <r>    6.7715    1.0000 </r>
       <r>    7.0315    1.0000 </r>
       <r>    7.1627    1.0000 </r>
       <r>    7.1876    1.0000 </r>
       <r>    7.6277    1.0000 </r>
       <r>    7.7078    1.0000 </r>
       <r>   11.4304    0.0000 </r>
       <r>   11.5389    0.0000 </r>
       <r>   12.2748    0.0000 </r>
       <r>   12.3046    0.0000 </r>
       <r>   12.7148    0.0000 </r>
       <r>   12.8747    0.0000 </r>
       <r>   12.9026    0.0000 </r>
       <r>   13.2187    0.0000 </r>
       <r>   13.2528    0.0000 </r>
       <r>   13.5215    0.0000 </r>
       <r>   13.7807    0.0000 </r>
       <r>   13.8403    0.0000 </r>
       <r>   14.2568    0.0000 </r>
       <r>   14.3161    0.0000 </r>
       <r>   14.6087    0.0000 </r>
       <r>   14.6924    0.0000 </r>
      </set>
      <set comment="kpoint 12">
       <r>   -9.0316    1.0000 </r>
       <r>   -9.0094    1.0000 </r>
       <r>   -7.8651    1.0000 </r>
       <r>   -7.8034    1.0000 </r>
       <r>   -5.6170    1.0000 </r>
       <r>   -5.4626    1.0000 </r>
       <r>   -4.7409    1.0000 </r>
       <r>   -4.5283    1.0000 </r>
       <r>   -3.3359    1.0000 </r>
       <r>   -3.2608    1.0000 </r>
       <r>   -2.6921    1.0000 </r>
       <r>   -2.4530    1.0000 </r>
       <r>   -0.4203    1.0000 </r>
       <r>   -0.0458    1.0000 </r>
       <r>    0.7491    1.0000 </r>
       <r>    0.8423    1.0000 </r>
       <r>    1.1551    1.0000 </r>
       <r>    1.3990    1.0000 </r>
       <r>    1.7919    1.0000 </r>
       <r>    1.8344    1.0000 </r>
       <r>    2.1885    1.0000 </r>
       <r>    2.4693    1.0000 </r>
       <r>    2.5625    1.0000 </r>
       <r>    2.8962    1.0000 </r>
       <r>    3.3589    1.0000 </r>
       <r>    3.3760    1.0000 </r>
       <r>    3.9616    1.0000 </r>
       <r>    4.0604    1.0000 </r>
       <r>    4.3191    1.0000 </r>
       <r>    4.3832    1.0000 </r>
       <r>    4.6144    1.0000 </r>
       <r>    4.6833    1.0000 </r>
       <r>    5.0063    1.0000 </r>
       <r>    5.0856    1.0000 </r>
       <r>    5.1807    1.0000 </r>
       <r>    5.2343    1.0000 </r>
       <r>    5.6376    1.0000 </r>
       <r>    5.6827    1.0000 </r>
       <r>    5.9290    1.0000 </r>
       <r>    5.9397    1.0000 </r>
       <r>    6.2671    1.0000 </r>
       <r>    6.3585    1.0000 </r>
       <r>    6.6463    1.0000 </r>
       <r>    6.8258    1.0000 </r>
       <r>    7.2040    1.0000 </r>
       <r>    7.3088    1.0000 </r>
       <r>    7.5838    1.0000 </r>
       <r>    7.6132    1.0000 </r>
       <r>   11.3306    0.0000 </r>
       <r>   11.5984    0.0000 </r>
       <r>   12.2295    0.0000 </r>
       <r>   12.5209    0.0000 </r>
       <r>   12.7274    0.0000 </r>
       <r>   12.7498    0.0000 </r>
       <r>   13.0196    0.0000 </r>
       <r>   13.2062    0.0000 </r>
       <r>   13.5502    0.0000 </r>
       <r>   13.6758    0.0000 </r>
       <r>   13.7914    0.0000 </r>
       <r>   13.9170    0.0000 </r>
       <r>   14.1779    0.0000 </r>
       <r>   14.3393    0.0000 </r>
       <r>   14.6205    0.0000 </r>
       <r>   14.6813    0.0000 </r>
      </set>
      <set comment="kpoint 13">
       <r>   -8.4065    1.0000 </r>
       <r>   -8.3631    1.0000 </r>
       <r>   -7.5663    1.0000 </r>
       <r>   -7.5355    1.0000 </r>
       <r>   -4.8363    1.0000 </r>
       <r>   -4.5489    1.0000 </r>
       <r>   -4.1478    1.0000 </r>
       <r>   -3.3782    1.0000 </r>
       <r>   -3.0006    1.0000 </r>
       <r>   -2.8394    1.0000 </r>
       <r>   -2.3455    1.0000 </r>
       <r>   -2.1033    1.0000 </r>
       <r>   -0.5050    1.0000 </r>
       <r>   -0.4504    1.0000 </r>
       <r>    0.1081    1.0000 </r>
       <r>    0.7059    1.0000 </r>
       <r>    0.7850    1.0000 </r>
       <r>    1.2724    1.0000 </r>
       <r>    1.2770    1.0000 </r>
       <r>    1.4800    1.0000 </r>
       <r>    1.8095    1.0000 </r>
       <r>    2.1068    1.0000 </r>
       <r>    2.1775    1.0000 </r>
       <r>    2.3276    1.0000 </r>
       <r>    2.3779    1.0000 </r>
       <r>    2.8028    1.0000 </r>
       <r>    2.8650    1.0000 </r>
       <r>    3.2209    1.0000 </r>
       <r>    3.4520    1.0000 </r>
       <r>    3.4655    1.0000 </r>
       <r>    3.8007    1.0000 </r>
       <r>    3.8549    1.0000 </r>
       <r>    4.2054    1.0000 </r>
       <r>    4.4364    1.0000 </r>
       <r>    4.7815    1.0000 </r>
       <r>    4.9877    1.0000 </r>
       <r>    5.0508    1.0000 </r>
       <r>    5.3209    1.0000 </r>
       <r>    5.5079    1.0000 </r>
       <r>    5.7352    1.0000 </r>
       <r>    5.8323    1.0000 </r>
       <r>    5.9446    1.0000 </r>
       <r>    6.2364    1.0000 </r>
       <r>    6.4745    1.0000 </r>
       <r>    6.5287    1.0000 </r>
       <r>    6.8259    1.0000 </r>
       <r>    6.9631    1.0000 </r>
       <r>    7.2937    1.0000 </r>
       <r>   11.0916    0.0000 </r>
       <r>   11.2519    0.0000 </r>
       <r>   11.6875    0.0000 </r>
       <r>   11.7221    0.0000 </r>
       <r>   12.2055    0.0000 </r>
       <r>   12.3672    0.0000 </r>
       <r>   12.7124    0.0000 </r>
       <r>   12.8237    0.0000 </r>
       <r>   12.9781    0.0000 </r>
       <r>   13.2326    0.0000 </r>
       <r>   13.3936    0.0000 </r>
       <r>   13.6943    0.0000 </r>
       <r>   13.9474    0.0000 </r>
       <r>   14.1749    0.0000 </r>
       <r>   14.4246    0.0000 </r>
       <r>   14.5280    0.0000 </r>
      </set>
      <set comment="kpoint 14">
       <r>   -8.3923    1.0000 </r>
       <r>   -8.3779    1.0000 </r>
       <r>   -7.5640    1.0000 </r>
       <r>   -7.5378    1.0000 </r>
       <r>   -4.7713    1.0000 </r>
       <r>   -4.7013    1.0000 </r>
       <r>   -3.8451    1.0000 </r>
       <r>   -3.6580    1.0000 </r>
       <r>   -2.9463    1.0000 </r>
       <r>   -2.8586    1.0000 </r>
       <r>   -2.2820    1.0000 </r>
       <r>   -2.1859    1.0000 </r>
       <r>   -0.5386    1.0000 </r>
       <r>   -0.3866    1.0000 </r>
       <r>    0.4386    1.0000 </r>
       <r>    0.4662    1.0000 </r>
       <r>    1.0683    1.0000 </r>
       <r>    1.1044    1.0000 </r>
       <r>    1.3355    1.0000 </r>
       <r>    1.3894    1.0000 </r>
       <r>    1.7101    1.0000 </r>
       <r>    1.9144    1.0000 </r>
       <r>    2.1193    1.0000 </r>
       <r>    2.2298    1.0000 </r>
       <r>    2.3300    1.0000 </r>
       <r>    2.6694    1.0000 </r>
       <r>    2.9389    1.0000 </r>
       <r>    3.2695    1.0000 </r>
       <r>    3.5624    1.0000 </r>
       <r>    3.5832    1.0000 </r>
       <r>    4.0044    1.0000 </r>
       <r>    4.0282    1.0000 </r>
       <r>    4.2403    1.0000 </r>
       <r>    4.4527    1.0000 </r>
       <r>    4.8075    1.0000 </r>
       <r>    4.8451    1.0000 </r>
       <r>    5.1215    1.0000 </r>
       <r>    5.2503    1.0000 </r>
       <r>    5.5536    1.0000 </r>
       <r>    5.6013    1.0000 </r>
       <r>    5.7718    1.0000 </r>
       <r>    5.9215    1.0000 </r>
       <r>    6.1794    1.0000 </r>
       <r>    6.4201    1.0000 </r>
       <r>    6.4830    1.0000 </r>
       <r>    6.8753    1.0000 </r>
       <r>    7.1143    1.0000 </r>
       <r>    7.1643    1.0000 </r>
       <r>   11.2450    0.0000 </r>
       <r>   11.4530    0.0000 </r>
       <r>   11.5974    0.0000 </r>
       <r>   11.8383    0.0000 </r>
       <r>   11.8880    0.0000 </r>
       <r>   12.5309    0.0000 </r>
       <r>   12.7121    0.0000 </r>
       <r>   12.8906    0.0000 </r>
       <r>   12.9153    0.0000 </r>
       <r>   13.0341    0.0000 </r>
       <r>   13.4774    0.0000 </r>
       <r>   13.6940    0.0000 </r>
       <r>   14.0683    0.0000 </r>
       <r>   14.1029    0.0000 </r>
       <r>   14.5072    0.0000 </r>
       <r>   14.8427    0.0000 </r>
      </set>
      <set comment="kpoint 15">
       <r>   -7.8498    1.0000 </r>
       <r>   -7.8498    1.0000 </r>
       <r>   -7.5539    1.0000 </r>
       <r>   -7.5539    1.0000 </r>
       <r>   -3.8183    1.0000 </r>
       <r>   -3.8183    1.0000 </r>
       <r>   -3.3806    1.0000 </r>
       <r>   -3.3806    1.0000 </r>
       <r>   -2.9201    1.0000 </r>
       <r>   -2.9201    1.0000 </r>
       <r>   -2.1671    1.0000 </r>
       <r>   -2.1671    1.0000 </r>
       <r>   -0.6452    1.0000 </r>
       <r>   -0.6452    1.0000 </r>
       <r>   -0.1635    1.0000 </r>
       <r>   -0.1635    1.0000 </r>
       <r>    0.6014    1.0000 </r>
       <r>    0.6014    1.0000 </r>
       <r>    0.8740    1.0000 </r>
       <r>    0.8740    1.0000 </r>
       <r>    1.5538    1.0000 </r>
       <r>    1.5538    1.0000 </r>
       <r>    2.2690    1.0000 </r>
       <r>    2.2690    1.0000 </r>
       <r>    2.5330    1.0000 </r>
       <r>    2.5330    1.0000 </r>
       <r>    2.8002    1.0000 </r>
       <r>    2.8002    1.0000 </r>
       <r>    3.3628    1.0000 </r>
       <r>    3.3628    1.0000 </r>
       <r>    3.6244    1.0000 </r>
       <r>    3.6244    1.0000 </r>
       <r>    4.3254    1.0000 </r>
       <r>    4.3254    1.0000 </r>
       <r>    4.7238    1.0000 </r>
       <r>    4.7238    1.0000 </r>
       <r>    5.0307    1.0000 </r>
       <r>    5.0307    1.0000 </r>
       <r>    5.4897    1.0000 </r>
       <r>    5.4897    1.0000 </r>
       <r>    5.6446    1.0000 </r>
       <r>    5.6446    1.0000 </r>
       <r>    5.9382    1.0000 </r>
       <r>    5.9382    1.0000 </r>
       <r>    6.5210    1.0000 </r>
       <r>    6.5210    1.0000 </r>
       <r>    7.0291    1.0000 </r>
       <r>    7.0291    1.0000 </r>
       <r>   10.7943    0.0000 </r>
       <r>   10.7943    0.0000 </r>
       <r>   11.4307    0.0000 </r>
       <r>   11.4307    0.0000 </r>
       <r>   11.7352    0.0000 </r>
       <r>   11.7352    0.0000 </r>
       <r>   12.3092    0.0000 </r>
       <r>   12.3092    0.0000 </r>
       <r>   12.7961    0.0000 </r>
       <r>   12.7962    0.0000 </r>
       <r>   12.9680    0.0000 </r>
       <r>   12.9683    0.0000 </r>
       <r>   14.0692    0.0000 </r>
       <r>   14.0794    0.0000 </r>
       <r>   14.6058    0.0000 </r>
       <r>   14.6266    0.0000 </r>
      </set>
      <set comment="kpoint 16">
       <r>   -7.8497    1.0000 </r>
       <r>   -7.8497    1.0000 </r>
       <r>   -7.5540    1.0000 </r>
       <r>   -7.5540    1.0000 </r>
       <r>   -3.8120    1.0000 </r>
       <r>   -3.8120    1.0000 </r>
       <r>   -3.4163    1.0000 </r>
       <r>   -3.4163    1.0000 </r>
       <r>   -2.8696    1.0000 </r>
       <r>   -2.8696    1.0000 </r>
       <r>   -2.1738    1.0000 </r>
       <r>   -2.1738    1.0000 </r>
       <r>   -0.7601    1.0000 </r>
       <r>   -0.7601    1.0000 </r>
       <r>   -0.0286    1.0000 </r>
       <r>   -0.0286    1.0000 </r>
       <r>    0.5960    1.0000 </r>
       <r>    0.5960    1.0000 </r>
       <r>    0.8518    1.0000 </r>
       <r>    0.8518    1.0000 </r>
       <r>    1.6037    1.0000 </r>
       <r>    1.6037    1.0000 </r>
       <r>    2.1495    1.0000 </r>
       <r>    2.1495    1.0000 </r>
       <r>    2.4825    1.0000 </r>
       <r>    2.4825    1.0000 </r>
       <r>    2.8316    1.0000 </r>
       <r>    2.8316    1.0000 </r>
       <r>    3.3496    1.0000 </r>
       <r>    3.3496    1.0000 </r>
       <r>    3.9443    1.0000 </r>
       <r>    3.9443    1.0000 </r>
       <r>    4.2800    1.0000 </r>
       <r>    4.2800    1.0000 </r>
       <r>    4.5982    1.0000 </r>
       <r>    4.5982    1.0000 </r>
       <r>    5.0943    1.0000 </r>
       <r>    5.0943    1.0000 </r>
       <r>    5.2298    1.0000 </r>
       <r>    5.2298    1.0000 </r>
       <r>    5.6906    1.0000 </r>
       <r>    5.6906    1.0000 </r>
       <r>    5.9561    1.0000 </r>
       <r>    5.9561    1.0000 </r>
       <r>    6.5245    1.0000 </r>
       <r>    6.5245    1.0000 </r>
       <r>    7.0761    1.0000 </r>
       <r>    7.0761    1.0000 </r>
       <r>   10.8219    0.0000 </r>
       <r>   10.8219    0.0000 </r>
       <r>   11.5445    0.0000 </r>
       <r>   11.5446    0.0000 </r>
       <r>   11.9094    0.0000 </r>
       <r>   11.9095    0.0000 </r>
       <r>   12.2821    0.0000 </r>
       <r>   12.2821    0.0000 </r>
       <r>   12.5916    0.0000 </r>
       <r>   12.5921    0.0000 </r>
       <r>   13.3054    0.0000 </r>
       <r>   13.3067    0.0000 </r>
       <r>   13.8203    0.0000 </r>
       <r>   13.8797    0.0000 </r>
       <r>   14.4914    0.0000 </r>
       <r>   14.6970    0.0000 </r>
      </set>
     </set>
    </set>
   </array>
  </eigenvalues>
  <separator name="orbital magnetization" >
   <v name="MAGDIPOLOUT">      0.00000000      0.00000000      0.00000000</v>
  </separator>
  <dos>
   <i name="efermi">      8.94848037 </i>
   <total>
    <array>
     <dimension dim="1">gridpoints</dimension>
     <dimension dim="2">spin</dimension>
     <field>energy</field>
     <field>total</field>
     <field>integrated</field>
     <set>
      <set comment="spin 1">
       <r>   -10.5919     0.0000     0.0000 </r>
       <r>   -10.5015     0.0000     0.0000 </r>
       <r>   -10.4110     0.0000     0.0000 </r>
       <r>   -10.3206     0.0000     0.0000 </r>
       <r>   -10.2301     0.0000     0.0000 </r>
       <r>   -10.1397     0.0000     0.0000 </r>
       <r>   -10.0492     0.0000     0.0000 </r>
       <r>    -9.9588     0.0000     0.0000 </r>
       <r>    -9.8683     0.0000     0.0000 </r>
       <r>    -9.7779     0.0000     0.0000 </r>
       <r>    -9.6874     0.0000     0.0000 </r>
       <r>    -9.5970     0.0003     0.0000 </r>
       <r>    -9.5065     0.0172     0.0016 </r>
       <r>    -9.4161     0.3066     0.0293 </r>
       <r>    -9.3256     1.7400     0.1867 </r>
       <r>    -9.2352     3.2552     0.4811 </r>
       <r>    -9.1447     2.8366     0.7377 </r>
       <r>    -9.0543     4.8708     1.1783 </r>
       <r>    -8.9638     6.2706     1.7455 </r>
       <r>    -8.8734     2.5255     1.9739 </r>
       <r>    -8.7829     0.2805     1.9993 </r>
       <r>    -8.6925     0.0083     2.0000 </r>
       <r>    -8.6020     0.0359     2.0033 </r>
       <r>    -8.5116     0.7699     2.0729 </r>
       <r>    -8.4211     4.3516     2.4665 </r>
       <r>    -8.3306     6.6138     3.0648 </r>
       <r>    -8.2402     2.6880     3.3079 </r>
       <r>    -8.1497     0.4106     3.3450 </r>
       <r>    -8.0593     0.9659     3.4324 </r>
       <r>    -7.9688     3.0411     3.7075 </r>
       <r>    -7.8784     7.4864     4.3846 </r>
       <r>    -7.7879    10.3275     5.3188 </r>
       <r>    -7.6975     6.4617     5.9033 </r>
       <r>    -7.6070     5.3585     6.3879 </r>
       <r>    -7.5166    10.1694     7.3078 </r>
       <r>    -7.4261     6.5276     7.8982 </r>
       <r>    -7.3357     1.0807     7.9960 </r>
       <r>    -7.2452     0.0442     8.0000 </r>
       <r>    -7.1548     0.0004     8.0000 </r>
       <r>    -7.0643     0.0000     8.0000 </r>
       <r>    -6.9739     0.0000     8.0000 </r>
       <r>    -6.8834     0.0000     8.0000 </r>
       <r>    -6.7930     0.0000     8.0000 </r>
       <r>    -6.7025     0.0000     8.0000 </r>
       <r>    -6.6121     0.0000     8.0000 </r>
       <r>    -6.5216     0.0000     8.0000 </r>
       <r>    -6.4312     0.0000     8.0000 </r>
       <r>    -6.3407     0.0000     8.0000 </r>
       <r>    -6.2503     0.0000     8.0000 </r>
       <r>    -6.1598     0.0025     8.0002 </r>
       <r>    -6.0694     0.0671     8.0063 </r>
       <r>    -5.9789     0.5168     8.0531 </r>
       <r>    -5.8884     1.5133     8.1899 </r>
       <r>    -5.7980     2.2314     8.3918 </r>
       <r>    -5.7075     2.3807     8.6071 </r>
       <r>    -5.6171     3.3605     8.9111 </r>
       <r>    -5.5266     4.6669     9.3332 </r>
       <r>    -5.4362     4.5103     9.7412 </r>
       <r>    -5.3457     2.7711     9.9918 </r>
       <r>    -5.2553     1.1886    10.0993 </r>
       <r>    -5.1648     1.1942    10.2073 </r>
       <r>    -5.0744     2.0307    10.3910 </r>
       <r>    -4.9839     2.0879    10.5799 </r>
       <r>    -4.8935     2.0345    10.7639 </r>
       <r>    -4.8030     4.1568    11.1399 </r>
       <r>    -4.7126     5.5458    11.6415 </r>
       <r>    -4.6221     4.8381    12.0791 </r>
       <r>    -4.5317     4.1893    12.4581 </r>
       <r>    -4.4412     2.6559    12.6983 </r>
       <r>    -4.3508     1.4765    12.8318 </r>
       <r>    -4.2603     1.7888    12.9937 </r>
       <r>    -4.1699     1.9910    13.1737 </r>
       <r>    -4.0794     2.3201    13.3836 </r>
       <r>    -3.9890     2.5430    13.6136 </r>
       <r>    -3.8985     3.1872    13.9019 </r>
       <r>    -3.8081     6.1660    14.4596 </r>
       <r>    -3.7176     6.5137    15.0488 </r>
       <r>    -3.6272     5.4385    15.5407 </r>
       <r>    -3.5367     5.5256    16.0405 </r>
       <r>    -3.4462     5.2021    16.5111 </r>
       <r>    -3.3558     7.2670    17.1684 </r>
       <r>    -3.2653     6.6837    17.7729 </r>
       <r>    -3.1749     3.1139    18.0546 </r>
       <r>    -3.0844     1.7888    18.2164 </r>
       <r>    -2.9940     4.0851    18.5859 </r>
       <r>    -2.9035     7.3191    19.2479 </r>
       <r>    -2.8131     7.5020    19.9265 </r>
       <r>    -2.7226     5.3377    20.4093 </r>
       <r>    -2.6322     5.2482    20.8840 </r>
       <r>    -2.5417     4.8705    21.3245 </r>
       <r>    -2.4513     4.1841    21.7030 </r>
       <r>    -2.3608     4.6988    22.1280 </r>
       <r>    -2.2704     5.7548    22.6486 </r>
       <r>    -2.1799     6.0031    23.1915 </r>
       <r>    -2.0895     5.0197    23.6456 </r>
       <r>    -1.9990     2.8059    23.8994 </r>
       <r>    -1.9086     0.9775    23.9878 </r>
       <r>    -1.8181     0.1303    23.9996 </r>
       <r>    -1.7277     0.0045    24.0000 </r>
       <r>    -1.6372     0.0000    24.0000 </r>
       <r>    -1.5468     0.0000    24.0000 </r>
       <r>    -1.4563     0.0000    24.0000 </r>
       <r>    -1.3659     0.0000    24.0000 </r>
       <r>    -1.2754     0.0000    24.0000 </r>
       <r>    -1.1850     0.0005    24.0000 </r>
       <r>    -1.0945     0.0252    24.0023 </r>
       <r>    -1.0040     0.3063    24.0300 </r>
       <r>    -0.9136     1.0194    24.1222 </r>
       <r>    -0.8231     1.3349    24.2430 </r>
       <r>    -0.7327     1.7155    24.3981 </r>
       <r>    -0.6422     2.5222    24.6263 </r>
       <r>    -0.5518     3.7190    24.9627 </r>
       <r>    -0.4613     5.4475    25.4554 </r>
       <r>    -0.3709     6.0118    25.9992 </r>
       <r>    -0.2804     5.1243    26.4627 </r>
       <r>    -0.1900     6.6367    27.0630 </r>
       <r>    -0.0995     6.9987    27.6960 </r>
       <r>    -0.0091     6.4781    28.2820 </r>
       <r>     0.0814     5.0352    28.7374 </r>
       <r>     0.1718     2.8471    28.9950 </r>
       <r>     0.2623     2.2808    29.2013 </r>
       <r>     0.3527     2.7780    29.4525 </r>
       <r>     0.4432     4.6654    29.8745 </r>
       <r>     0.5336     6.2809    30.4426 </r>
       <r>     0.6241     7.5540    31.1259 </r>
       <r>     0.7145     9.0399    31.9436 </r>
       <r>     0.8050    10.2820    32.8736 </r>
       <r>     0.8954     7.7395    33.5737 </r>
       <r>     0.9859     4.1346    33.9476 </r>
       <r>     1.0763     3.7007    34.2824 </r>
       <r>     1.1668     4.5207    34.6913 </r>
       <r>     1.2572     5.4354    35.1829 </r>
       <r>     1.3477     7.8593    35.8938 </r>
       <r>     1.4382     8.7920    36.6891 </r>
       <r>     1.5286     8.3867    37.4477 </r>
       <r>     1.6191     9.0949    38.2703 </r>
       <r>     1.7095     7.5193    38.9504 </r>
       <r>     1.8000     7.1585    39.5979 </r>
       <r>     1.8904     7.5246    40.2786 </r>
       <r>     1.9809     5.9757    40.8191 </r>
       <r>     2.0713     6.8193    41.4359 </r>
       <r>     2.1618    11.3289    42.4606 </r>
       <r>     2.2522    11.8169    43.5295 </r>
       <r>     2.3427    10.3574    44.4663 </r>
       <r>     2.4331     8.5458    45.2393 </r>
       <r>     2.5236     8.0999    45.9719 </r>
       <r>     2.6140     8.1944    46.7131 </r>
       <r>     2.7045     7.6611    47.4061 </r>
       <r>     2.7949     9.7259    48.2858 </r>
       <r>     2.8854    11.6252    49.3373 </r>
       <r>     2.9758     8.1942    50.0785 </r>
       <r>     3.0663     4.1972    50.4582 </r>
       <r>     3.1567     5.7882    50.9817 </r>
       <r>     3.2472     9.3193    51.8247 </r>
       <r>     3.3376    10.2152    52.7486 </r>
       <r>     3.4281    10.2274    53.6737 </r>
       <r>     3.5185     8.3641    54.4303 </r>
       <r>     3.6090     8.0960    55.1626 </r>
       <r>     3.6994     8.1291    55.8979 </r>
       <r>     3.7899     7.7567    56.5995 </r>
       <r>     3.8804     8.6019    57.3775 </r>
       <r>     3.9708    10.4257    58.3206 </r>
       <r>     4.0613     9.8441    59.2110 </r>
       <r>     4.1517     6.3618    59.7864 </r>
       <r>     4.2422     7.7875    60.4908 </r>
       <r>     4.3326    11.4505    61.5265 </r>
       <r>     4.4231    12.0731    62.6186 </r>
       <r>     4.5135     9.8336    63.5080 </r>
       <r>     4.6040     8.3884    64.2668 </r>
       <r>     4.6944     9.6907    65.1433 </r>
       <r>     4.7849     9.7807    66.0280 </r>
       <r>     4.8753     8.1084    66.7614 </r>
       <r>     4.9658     8.7700    67.5547 </r>
       <r>     5.0562    14.7207    68.8862 </r>
       <r>     5.1467    14.6597    70.2122 </r>
       <r>     5.2371    11.4212    71.2453 </r>
       <r>     5.3276    10.2836    72.1755 </r>
       <r>     5.4180     8.6266    72.9557 </r>
       <r>     5.5085     9.8983    73.8511 </r>
       <r>     5.5989    13.0073    75.0276 </r>
       <r>     5.6894    16.0741    76.4815 </r>
       <r>     5.7798    15.6582    77.8978 </r>
       <r>     5.8703    13.6997    79.1370 </r>
       <r>     5.9607    13.6272    80.3696 </r>
       <r>     6.0512    11.8299    81.4396 </r>
       <r>     6.1416     9.3786    82.2880 </r>
       <r>     6.2321     8.8238    83.0861 </r>
       <r>     6.3226     8.1818    83.8261 </r>
       <r>     6.4130     7.1726    84.4749 </r>
       <r>     6.5035     8.9657    85.2859 </r>
       <r>     6.5939     9.9624    86.1870 </r>
       <r>     6.6844     8.8263    86.9854 </r>
       <r>     6.7748     7.2366    87.6399 </r>
       <r>     6.8653     8.3869    88.3985 </r>
       <r>     6.9557    10.0843    89.3107 </r>
       <r>     7.0462    11.3951    90.3414 </r>
       <r>     7.1366    12.4178    91.4646 </r>
       <r>     7.2271    11.9385    92.5445 </r>
       <r>     7.3175     7.8407    93.2537 </r>
       <r>     7.4080     3.3355    93.5554 </r>
       <r>     7.4984     1.7684    93.7153 </r>
       <r>     7.5889     4.0410    94.0808 </r>
       <r>     7.6793     6.4965    94.6685 </r>
       <r>     7.7698     4.6745    95.0913 </r>
       <r>     7.8602     1.8755    95.2609 </r>
       <r>     7.9507     0.6384    95.3187 </r>
       <r>     8.0411     0.1496    95.3322 </r>
       <r>     8.1316     0.0125    95.3333 </r>
       <r>     8.2220     0.0125    95.3345 </r>
       <r>     8.3125     0.2899    95.3607 </r>
       <r>     8.4029     1.7884    95.5224 </r>
       <r>     8.4934     3.2264    95.8143 </r>
       <r>     8.5838     1.7669    95.9741 </r>
       <r>     8.6743     0.2754    95.9990 </r>
       <r>     8.7648     0.0109    96.0000 </r>
       <r>     8.8552     0.0001    96.0000 </r>
       <r>     8.9457     0.0000    96.0000 </r>
       <r>     9.0361     0.0000    96.0000 </r>
       <r>     9.1266     0.0000    96.0000 </r>
       <r>     9.2170     0.0000    96.0000 </r>
       <r>     9.3075     0.0000    96.0000 </r>
       <r>     9.3979     0.0000    96.0000 </r>
       <r>     9.4884     0.0000    96.0000 </r>
       <r>     9.5788     0.0000    96.0000 </r>
       <r>     9.6693     0.0000    96.0000 </r>
       <r>     9.7597     0.0000    96.0000 </r>
       <r>     9.8502     0.0000    96.0000 </r>
       <r>     9.9406     0.0000    96.0000 </r>
       <r>    10.0311     0.0000    96.0000 </r>
       <r>    10.1215     0.0003    96.0000 </r>
       <r>    10.2120     0.0186    96.0017 </r>
       <r>    10.3024     0.3250    96.0311 </r>
       <r>    10.3929     1.8004    96.1940 </r>
       <r>    10.4833     3.4780    96.5085 </r>
       <r>    10.5738     2.6493    96.7482 </r>
       <r>    10.6642     1.3197    96.8675 </r>
       <r>    10.7547     1.5166    97.0047 </r>
       <r>    10.8451     2.8956    97.2666 </r>
       <r>    10.9356     1.9888    97.4465 </r>
       <r>    11.0260     1.4604    97.5786 </r>
       <r>    11.1165     3.0577    97.8552 </r>
       <r>    11.2069     4.4395    98.2568 </r>
       <r>    11.2974     4.6043    98.6732 </r>
       <r>    11.3879     5.8561    99.2029 </r>
       <r>    11.4783     9.6752   100.0781 </r>
       <r>    11.5688    10.4297   101.0214 </r>
       <r>    11.6592     8.9143   101.8278 </r>
       <r>    11.7497     7.9908   102.5505 </r>
       <r>    11.8401     6.4578   103.1347 </r>
       <r>    11.9306     6.1852   103.6941 </r>
       <r>    12.0210     5.5934   104.2001 </r>
       <r>    12.1115     5.4930   104.6969 </r>
       <r>    12.2019     6.5537   105.2897 </r>
       <r>    12.2924     9.4466   106.1442 </r>
       <r>    12.3828     8.6041   106.9224 </r>
       <r>    12.4733     5.9570   107.4612 </r>
       <r>    12.5637     7.3562   108.1266 </r>
       <r>    12.6542     8.2243   108.8705 </r>
       <r>    12.7446     9.3310   109.7145 </r>
       <r>    12.8351    10.4010   110.6553 </r>
       <r>    12.9255    10.2056   111.5784 </r>
       <r>    13.0160     9.8389   112.4684 </r>
       <r>    13.1064     7.6699   113.1621 </r>
       <r>    13.1969     7.4979   113.8403 </r>
       <r>    13.2873     9.0972   114.6632 </r>
       <r>    13.3778     7.0881   115.3043 </r>
       <r>    13.4682     6.3169   115.8757 </r>
       <r>    13.5587     6.4888   116.4626 </r>
       <r>    13.6491     7.3469   117.1271 </r>
       <r>    13.7396     8.3768   117.8848 </r>
       <r>    13.8301     8.1166   118.6190 </r>
       <r>    13.9205     8.2037   119.3610 </r>
       <r>    14.0110     8.9988   120.1750 </r>
       <r>    14.1014    10.7141   121.1441 </r>
       <r>    14.1919     9.7814   122.0289 </r>
       <r>    14.2823     8.3637   122.7854 </r>
       <r>    14.3728     9.0986   123.6084 </r>
       <r>    14.4632     8.9950   124.4220 </r>
       <r>    14.5537     8.8124   125.2191 </r>
       <r>    14.6441     9.6293   126.0901 </r>
       <r>    14.7346     7.9305   126.8074 </r>
       <r>    14.8250     4.8683   127.2477 </r>
       <r>    14.9155     4.0854   127.6173 </r>
       <r>    15.0059     2.4750   127.8411 </r>
       <r>    15.0964     0.9621   127.9282 </r>
       <r>    15.1868     0.1963   127.9459 </r>
       <r>    15.2773     0.1807   127.9623 </r>
       <r>    15.3677     0.2896   127.9885 </r>
       <r>    15.4582     0.1165   127.9990 </r>
       <r>    15.5486     0.0109   128.0000 </r>
       <r>    15.6391     0.0002   128.0000 </r>
       <r>    15.7295     0.0000   128.0000 </r>
       <r>    15.8200     0.0000   128.0000 </r>
       <r>    15.9104     0.0000   128.0000 </r>
       <r>    16.0009     0.0000   128.0000 </r>
       <r>    16.0913     0.0000   128.0000 </r>
       <r>    16.1818     0.0000   128.0000 </r>
       <r>    16.2723     0.0000   128.0000 </r>
       <r>    16.3627     0.0000   128.0000 </r>
       <r>    16.4532     0.0000   128.0000 </r>
       <r>    16.5436     0.0000   128.0000 </r>
      </set>
     </set>
    </array>
   </total>
  </dos>
 </calculation>
 <structure name="finalpos" >
  <crystal>
   <varray name="basis" >
    <v>      11.50119742       0.00000000      -0.03808313 </v>
    <v>       0.00000000       3.11189556       0.00000000 </v>
    <v>      -1.86674869       0.00000000       7.11749338 </v>
   </varray>
   <i name="volume">    254.51759627 </i>
   <varray name="rec_basis" >
    <v>       0.08702304       0.00000000       0.02282407 </v>
    <v>       0.00000000       0.32134755       0.00000000 </v>
    <v>       0.00046563       0.00000000       0.14062102 </v>
   </varray>
  </crystal>
  <varray name="positions" >
   <v>       0.05593723       0.50000000       0.11142396 </v>
   <v>       0.21881700       0.00000000       0.44626490 </v>
   <v>       0.44490373       0.50000000       0.38445523 </v>
   <v>       0.11633218       0.50000000       0.72677454 </v>
   <v>       0.55593723       0.00000000       0.11142396 </v>
   <v>       0.71881700       0.50000000       0.44626490 </v>
   <v>       0.94490373       0.00000000       0.38445523 </v>
   <v>       0.61633218       0.00000000       0.72677454 </v>
   <v>       0.38817504       0.50000000       0.77788209 </v>
   <v>       0.28009135       0.00000000       0.05259338 </v>
   <v>       0.88817504       0.00000000       0.77788209 </v>
   <v>       0.78009135       0.50000000       0.05259338 </v>
   <v>       0.25790185       0.50000000       0.89924547 </v>
   <v>       0.43953373       0.00000000       0.24074796 </v>
   <v>       0.09219095       0.00000000       0.57262741 </v>
   <v>       0.31288945       0.50000000       0.49508414 </v>
   <v>       0.75790185       0.00000000       0.89924547 </v>
   <v>       0.93953373       0.50000000       0.24074796 </v>
   <v>       0.59219095       0.50000000       0.57262741 </v>
   <v>       0.81288945       0.00000000       0.49508414 </v>
   <v>       0.14558210       0.00000000       0.18391375 </v>
   <v>       0.49764539       0.00000000       0.85898716 </v>
   <v>       0.64558210       0.50000000       0.18391375 </v>
   <v>       0.99764539       0.50000000       0.85898716 </v>
  </varray>
 </structure>
</modeling>
