<?xml version="1.0" encoding="ISO-8859-1"?>
<modeling>
 <generator>
  <i name="program" type="string">vasp </i>
  <i name="version" type="string">5.3.5  </i>
  <i name="subversion" type="string">31Mar14 (build Jun 20 2014 13:15:13) complex                          parallel </i>
  <i name="platform" type="string">LinuxIFC </i>
  <i name="date" type="string">2025 11 26 </i>
  <i name="time" type="string">20:01:11 </i>
 </generator>
 <incar>
  <i type="string" name="PREC">accurate</i>
  <i type="int" name="IALGO">    68</i>
  <i type="logical" name="ADDGRID"> T  </i>
  <i type="int" name="NELM">   200</i>
  <i type="int" name="NELMIN">     4</i>
  <i type="int" name="IBRION">     2</i>
  <i name="EDIFF">      0.00000100</i>
  <i name="EDIFFG">     -0.02000000</i>
  <i type="int" name="NSW">    30</i>
  <i type="int" name="ISIF">     3</i>
  <i name="ENCUT">    500.00000000</i>
  <i type="logical" name="LREAL"> F  </i>
  <i type="int" name="ISMEAR">     1</i>
  <i name="SIGMA">      0.30000000</i>
  <i type="logical" name="LWAVE"> F  </i>
  <i type="logical" name="LCHARG"> F  </i>
  <i type="int" name="NELM">   200</i>
 </incar>
 <kpoints>
  <generation param="Auto">
   <i name="subdivisionlength">     70.00000000 </i>
   <v type="int" name="divisions">      18       18       17 </v>
   <v name="usershift">      0.00000000       0.00000000       0.00000000 </v>
   <v name="genvec1">      0.05555556       0.00000000       0.00000000 </v>
   <v name="genvec2">      0.00000000       0.05555556       0.00000000 </v>
   <v name="genvec3">      0.00000000       0.00000000       0.05882353 </v>
   <v name="shift">      0.00000000       0.00000000       0.00000000 </v>
  </generation>
  <varray name="kpointlist" >
   <v>       0.00000000       0.00000000       0.00000000 </v>
   <v>       0.05555556       0.00000000       0.00000000 </v>
   <v>       0.11111111       0.00000000       0.00000000 </v>
   <v>       0.16666667       0.00000000       0.00000000 </v>
   <v>       0.22222222       0.00000000       0.00000000 </v>
   <v>       0.27777778       0.00000000       0.00000000 </v>
   <v>       0.33333333       0.00000000       0.00000000 </v>
   <v>       0.38888889       0.00000000       0.00000000 </v>
   <v>       0.44444444       0.00000000       0.00000000 </v>
   <v>       0.50000000       0.00000000       0.00000000 </v>
   <v>       0.05555556       0.05555556       0.00000000 </v>
   <v>       0.11111111       0.05555556       0.00000000 </v>
   <v>       0.16666667       0.05555556       0.00000000 </v>
   <v>       0.22222222       0.05555556       0.00000000 </v>
   <v>       0.27777778       0.05555556       0.00000000 </v>
   <v>       0.33333333       0.05555556       0.00000000 </v>
   <v>       0.38888889       0.05555556       0.00000000 </v>
   <v>       0.44444444       0.05555556       0.00000000 </v>
   <v>       0.50000000       0.05555556       0.00000000 </v>
   <v>       0.11111111       0.11111111       0.00000000 </v>
   <v>       0.16666667       0.11111111       0.00000000 </v>
   <v>       0.22222222       0.11111111       0.00000000 </v>
   <v>       0.27777778       0.11111111       0.00000000 </v>
   <v>       0.33333333       0.11111111       0.00000000 </v>
   <v>       0.38888889       0.11111111       0.00000000 </v>
   <v>       0.44444444       0.11111111       0.00000000 </v>
   <v>       0.50000000       0.11111111       0.00000000 </v>
   <v>       0.16666667       0.16666667       0.00000000 </v>
   <v>       0.22222222       0.16666667       0.00000000 </v>
   <v>       0.27777778       0.16666667       0.00000000 </v>
   <v>       0.33333333       0.16666667       0.00000000 </v>
   <v>       0.38888889       0.16666667       0.00000000 </v>
   <v>       0.44444444       0.16666667       0.00000000 </v>
   <v>       0.50000000       0.16666667       0.00000000 </v>
   <v>       0.22222222       0.22222222       0.00000000 </v>
   <v>       0.27777778       0.22222222       0.00000000 </v>
   <v>       0.33333333       0.22222222       0.00000000 </v>
   <v>       0.38888889       0.22222222       0.00000000 </v>
   <v>       0.44444444       0.22222222       0.00000000 </v>
   <v>       0.50000000       0.22222222       0.00000000 </v>
   <v>       0.27777778       0.27777778       0.00000000 </v>
   <v>       0.33333333       0.27777778       0.00000000 </v>
   <v>       0.38888889       0.27777778       0.00000000 </v>
   <v>       0.44444444       0.27777778       0.00000000 </v>
   <v>       0.50000000       0.27777778       0.00000000 </v>
   <v>       0.33333333       0.33333333       0.00000000 </v>
   <v>       0.38888889       0.33333333       0.00000000 </v>
   <v>       0.44444444       0.33333333       0.00000000 </v>
   <v>       0.50000000       0.33333333       0.00000000 </v>
   <v>       0.38888889       0.38888889       0.00000000 </v>
   <v>       0.44444444       0.38888889       0.00000000 </v>
   <v>       0.50000000       0.38888889       0.00000000 </v>
   <v>       0.44444444       0.44444444       0.00000000 </v>
   <v>       0.50000000       0.44444444       0.00000000 </v>
   <v>       0.50000000       0.50000000       0.00000000 </v>
   <v>       0.00000000       0.00000000       0.05882353 </v>
   <v>       0.05555556       0.00000000       0.05882353 </v>
   <v>       0.11111111       0.00000000       0.05882353 </v>
   <v>       0.16666667       0.00000000       0.05882353 </v>
   <v>       0.22222222       0.00000000       0.05882353 </v>
   <v>       0.27777778       0.00000000       0.05882353 </v>
   <v>       0.33333333       0.00000000       0.05882353 </v>
   <v>       0.38888889       0.00000000       0.05882353 </v>
   <v>       0.44444444       0.00000000       0.05882353 </v>
   <v>       0.50000000       0.00000000       0.05882353 </v>
   <v>       0.05555556       0.05555556       0.05882353 </v>
   <v>       0.11111111       0.05555556       0.05882353 </v>
   <v>       0.16666667       0.05555556       0.05882353 </v>
   <v>       0.22222222       0.05555556       0.05882353 </v>
   <v>       0.27777778       0.05555556       0.05882353 </v>
   <v>       0.33333333       0.05555556       0.05882353 </v>
   <v>       0.38888889       0.05555556       0.05882353 </v>
   <v>       0.44444444       0.05555556       0.05882353 </v>
   <v>       0.50000000       0.05555556       0.05882353 </v>
   <v>       0.11111111       0.11111111       0.05882353 </v>
   <v>       0.16666667       0.11111111       0.05882353 </v>
   <v>       0.22222222       0.11111111       0.05882353 </v>
   <v>       0.27777778       0.11111111       0.05882353 </v>
   <v>       0.33333333       0.11111111       0.05882353 </v>
   <v>       0.38888889       0.11111111       0.05882353 </v>
   <v>       0.44444444       0.11111111       0.05882353 </v>
   <v>       0.50000000       0.11111111       0.05882353 </v>
   <v>       0.16666667       0.16666667       0.05882353 </v>
   <v>       0.22222222       0.16666667       0.05882353 </v>
   <v>       0.27777778       0.16666667       0.05882353 </v>
   <v>       0.33333333       0.16666667       0.05882353 </v>
   <v>       0.38888889       0.16666667       0.05882353 </v>
   <v>       0.44444444       0.16666667       0.05882353 </v>
   <v>       0.50000000       0.16666667       0.05882353 </v>
   <v>       0.22222222       0.22222222       0.05882353 </v>
   <v>       0.27777778       0.22222222       0.05882353 </v>
   <v>       0.33333333       0.22222222       0.05882353 </v>
   <v>       0.38888889       0.22222222       0.05882353 </v>
   <v>       0.44444444       0.22222222       0.05882353 </v>
   <v>       0.50000000       0.22222222       0.05882353 </v>
   <v>       0.27777778       0.27777778       0.05882353 </v>
   <v>       0.33333333       0.27777778       0.05882353 </v>
   <v>       0.38888889       0.27777778       0.05882353 </v>
   <v>       0.44444444       0.27777778       0.05882353 </v>
   <v>       0.50000000       0.27777778       0.05882353 </v>
   <v>       0.33333333       0.33333333       0.05882353 </v>
   <v>       0.38888889       0.33333333       0.05882353 </v>
   <v>       0.44444444       0.33333333       0.05882353 </v>
   <v>       0.50000000       0.33333333       0.05882353 </v>
   <v>       0.38888889       0.38888889       0.05882353 </v>
   <v>       0.44444444       0.38888889       0.05882353 </v>
   <v>       0.50000000       0.38888889       0.05882353 </v>
   <v>       0.44444444       0.44444444       0.05882353 </v>
   <v>       0.50000000       0.44444444       0.05882353 </v>
   <v>       0.50000000       0.50000000       0.05882353 </v>
   <v>       0.00000000       0.00000000       0.11764706 </v>
   <v>       0.05555556       0.00000000       0.11764706 </v>
   <v>       0.11111111       0.00000000       0.11764706 </v>
   <v>       0.16666667       0.00000000       0.11764706 </v>
   <v>       0.22222222       0.00000000       0.11764706 </v>
   <v>       0.27777778       0.00000000       0.11764706 </v>
   <v>       0.33333333       0.00000000       0.11764706 </v>
   <v>       0.38888889       0.00000000       0.11764706 </v>
   <v>       0.44444444       0.00000000       0.11764706 </v>
   <v>       0.50000000       0.00000000       0.11764706 </v>
   <v>       0.05555556       0.05555556       0.11764706 </v>
   <v>       0.11111111       0.05555556       0.11764706 </v>
   <v>       0.16666667       0.05555556       0.11764706 </v>
   <v>       0.22222222       0.05555556       0.11764706 </v>
   <v>       0.27777778       0.05555556       0.11764706 </v>
   <v>       0.33333333       0.05555556       0.11764706 </v>
   <v>       0.38888889       0.05555556       0.11764706 </v>
   <v>       0.44444444       0.05555556       0.11764706 </v>
   <v>       0.50000000       0.05555556       0.11764706 </v>
   <v>       0.11111111       0.11111111       0.11764706 </v>
   <v>       0.16666667       0.11111111       0.11764706 </v>
   <v>       0.22222222       0.11111111       0.11764706 </v>
   <v>       0.27777778       0.11111111       0.11764706 </v>
   <v>       0.33333333       0.11111111       0.11764706 </v>
   <v>       0.38888889       0.11111111       0.11764706 </v>
   <v>       0.44444444       0.11111111       0.11764706 </v>
   <v>       0.50000000       0.11111111       0.11764706 </v>
   <v>       0.16666667       0.16666667       0.11764706 </v>
   <v>       0.22222222       0.16666667       0.11764706 </v>
   <v>       0.27777778       0.16666667       0.11764706 </v>
   <v>       0.33333333       0.16666667       0.11764706 </v>
   <v>       0.38888889       0.16666667       0.11764706 </v>
   <v>       0.44444444       0.16666667       0.11764706 </v>
   <v>       0.50000000       0.16666667       0.11764706 </v>
   <v>       0.22222222       0.22222222       0.11764706 </v>
   <v>       0.27777778       0.22222222       0.11764706 </v>
   <v>       0.33333333       0.22222222       0.11764706 </v>
   <v>       0.38888889       0.22222222       0.11764706 </v>
   <v>       0.44444444       0.22222222       0.11764706 </v>
   <v>       0.50000000       0.22222222       0.11764706 </v>
   <v>       0.27777778       0.27777778       0.11764706 </v>
   <v>       0.33333333       0.27777778       0.11764706 </v>
   <v>       0.38888889       0.27777778       0.11764706 </v>
   <v>       0.44444444       0.27777778       0.11764706 </v>
   <v>       0.50000000       0.27777778       0.11764706 </v>
   <v>       0.33333333       0.33333333       0.11764706 </v>
   <v>       0.38888889       0.33333333       0.11764706 </v>
   <v>       0.44444444       0.33333333       0.11764706 </v>
   <v>       0.50000000       0.33333333       0.11764706 </v>
   <v>       0.38888889       0.38888889       0.11764706 </v>
   <v>       0.44444444       0.38888889       0.11764706 </v>
   <v>       0.50000000       0.38888889       0.11764706 </v>
   <v>       0.44444444       0.44444444       0.11764706 </v>
   <v>       0.50000000       0.44444444       0.11764706 </v>
   <v>       0.50000000       0.50000000       0.11764706 </v>
   <v>       0.00000000       0.00000000       0.17647059 </v>
   <v>       0.05555556       0.00000000       0.17647059 </v>
   <v>       0.11111111       0.00000000       0.17647059 </v>
   <v>       0.16666667       0.00000000       0.17647059 </v>
   <v>       0.22222222       0.00000000       0.17647059 </v>
   <v>       0.27777778       0.00000000       0.17647059 </v>
   <v>       0.33333333       0.00000000       0.17647059 </v>
   <v>       0.38888889       0.00000000       0.17647059 </v>
   <v>       0.44444444       0.00000000       0.17647059 </v>
   <v>       0.50000000       0.00000000       0.17647059 </v>
   <v>       0.05555556       0.05555556       0.17647059 </v>
   <v>       0.11111111       0.05555556       0.17647059 </v>
   <v>       0.16666667       0.05555556       0.17647059 </v>
   <v>       0.22222222       0.05555556       0.17647059 </v>
   <v>       0.27777778       0.05555556       0.17647059 </v>
   <v>       0.33333333       0.05555556       0.17647059 </v>
   <v>       0.38888889       0.05555556       0.17647059 </v>
   <v>       0.44444444       0.05555556       0.17647059 </v>
   <v>       0.50000000       0.05555556       0.17647059 </v>
   <v>       0.11111111       0.11111111       0.17647059 </v>
   <v>       0.16666667       0.11111111       0.17647059 </v>
   <v>       0.22222222       0.11111111       0.17647059 </v>
   <v>       0.27777778       0.11111111       0.17647059 </v>
   <v>       0.33333333       0.11111111       0.17647059 </v>
   <v>       0.38888889       0.11111111       0.17647059 </v>
   <v>       0.44444444       0.11111111       0.17647059 </v>
   <v>       0.50000000       0.11111111       0.17647059 </v>
   <v>       0.16666667       0.16666667       0.17647059 </v>
   <v>       0.22222222       0.16666667       0.17647059 </v>
   <v>       0.27777778       0.16666667       0.17647059 </v>
   <v>       0.33333333       0.16666667       0.17647059 </v>
   <v>       0.38888889       0.16666667       0.17647059 </v>
   <v>       0.44444444       0.16666667       0.17647059 </v>
   <v>       0.50000000       0.16666667       0.17647059 </v>
   <v>       0.22222222       0.22222222       0.17647059 </v>
   <v>       0.27777778       0.22222222       0.17647059 </v>
   <v>       0.33333333       0.22222222       0.17647059 </v>
   <v>       0.38888889       0.22222222       0.17647059 </v>
   <v>       0.44444444       0.22222222       0.17647059 </v>
   <v>       0.50000000       0.22222222       0.17647059 </v>
   <v>       0.27777778       0.27777778       0.17647059 </v>
   <v>       0.33333333       0.27777778       0.17647059 </v>
   <v>       0.38888889       0.27777778       0.17647059 </v>
   <v>       0.44444444       0.27777778       0.17647059 </v>
   <v>       0.50000000       0.27777778       0.17647059 </v>
   <v>       0.33333333       0.33333333       0.17647059 </v>
   <v>       0.38888889       0.33333333       0.17647059 </v>
   <v>       0.44444444       0.33333333       0.17647059 </v>
   <v>       0.50000000       0.33333333       0.17647059 </v>
   <v>       0.38888889       0.38888889       0.17647059 </v>
   <v>       0.44444444       0.38888889       0.17647059 </v>
   <v>       0.50000000       0.38888889       0.17647059 </v>
   <v>       0.44444444       0.44444444       0.17647059 </v>
   <v>       0.50000000       0.44444444       0.17647059 </v>
   <v>       0.50000000       0.50000000       0.17647059 </v>
   <v>       0.00000000       0.00000000       0.23529412 </v>
   <v>       0.05555556       0.00000000       0.23529412 </v>
   <v>       0.11111111       0.00000000       0.23529412 </v>
   <v>       0.16666667       0.00000000       0.23529412 </v>
   <v>       0.22222222       0.00000000       0.23529412 </v>
   <v>       0.27777778       0.00000000       0.23529412 </v>
   <v>       0.33333333       0.00000000       0.23529412 </v>
   <v>       0.38888889       0.00000000       0.23529412 </v>
   <v>       0.44444444       0.00000000       0.23529412 </v>
   <v>       0.50000000       0.00000000       0.23529412 </v>
   <v>       0.05555556       0.05555556       0.23529412 </v>
   <v>       0.11111111       0.05555556       0.23529412 </v>
   <v>       0.16666667       0.05555556       0.23529412 </v>
   <v>       0.22222222       0.05555556       0.23529412 </v>
   <v>       0.27777778       0.05555556       0.23529412 </v>
   <v>       0.33333333       0.05555556       0.23529412 </v>
   <v>       0.38888889       0.05555556       0.23529412 </v>
   <v>       0.44444444       0.05555556       0.23529412 </v>
   <v>       0.50000000       0.05555556       0.23529412 </v>
   <v>       0.11111111       0.11111111       0.23529412 </v>
   <v>       0.16666667       0.11111111       0.23529412 </v>
   <v>       0.22222222       0.11111111       0.23529412 </v>
   <v>       0.27777778       0.11111111       0.23529412 </v>
   <v>       0.33333333       0.11111111       0.23529412 </v>
   <v>       0.38888889       0.11111111       0.23529412 </v>
   <v>       0.44444444       0.11111111       0.23529412 </v>
   <v>       0.50000000       0.11111111       0.23529412 </v>
   <v>       0.16666667       0.16666667       0.23529412 </v>
   <v>       0.22222222       0.16666667       0.23529412 </v>
   <v>       0.27777778       0.16666667       0.23529412 </v>
   <v>       0.33333333       0.16666667       0.23529412 </v>
   <v>       0.38888889       0.16666667       0.23529412 </v>
   <v>       0.44444444       0.16666667       0.23529412 </v>
   <v>       0.50000000       0.16666667       0.23529412 </v>
   <v>       0.22222222       0.22222222       0.23529412 </v>
   <v>       0.27777778       0.22222222       0.23529412 </v>
   <v>       0.33333333       0.22222222       0.23529412 </v>
   <v>       0.38888889       0.22222222       0.23529412 </v>
   <v>       0.44444444       0.22222222       0.23529412 </v>
   <v>       0.50000000       0.22222222       0.23529412 </v>
   <v>       0.27777778       0.27777778       0.23529412 </v>
   <v>       0.33333333       0.27777778       0.23529412 </v>
   <v>       0.38888889       0.27777778       0.23529412 </v>
   <v>       0.44444444       0.27777778       0.23529412 </v>
   <v>       0.50000000       0.27777778       0.23529412 </v>
   <v>       0.33333333       0.33333333       0.23529412 </v>
   <v>       0.38888889       0.33333333       0.23529412 </v>
   <v>       0.44444444       0.33333333       0.23529412 </v>
   <v>       0.50000000       0.33333333       0.23529412 </v>
   <v>       0.38888889       0.38888889       0.23529412 </v>
   <v>       0.44444444       0.38888889       0.23529412 </v>
   <v>       0.50000000       0.38888889       0.23529412 </v>
   <v>       0.44444444       0.44444444       0.23529412 </v>
   <v>       0.50000000       0.44444444       0.23529412 </v>
   <v>       0.50000000       0.50000000       0.23529412 </v>
   <v>       0.00000000       0.00000000       0.29411765 </v>
   <v>       0.05555556       0.00000000       0.29411765 </v>
   <v>       0.11111111       0.00000000       0.29411765 </v>
   <v>       0.16666667       0.00000000       0.29411765 </v>
   <v>       0.22222222       0.00000000       0.29411765 </v>
   <v>       0.27777778       0.00000000       0.29411765 </v>
   <v>       0.33333333       0.00000000       0.29411765 </v>
   <v>       0.38888889       0.00000000       0.29411765 </v>
   <v>       0.44444444       0.00000000       0.29411765 </v>
   <v>       0.50000000       0.00000000       0.29411765 </v>
   <v>       0.05555556       0.05555556       0.29411765 </v>
   <v>       0.11111111       0.05555556       0.29411765 </v>
   <v>       0.16666667       0.05555556       0.29411765 </v>
   <v>       0.22222222       0.05555556       0.29411765 </v>
   <v>       0.27777778       0.05555556       0.29411765 </v>
   <v>       0.33333333       0.05555556       0.29411765 </v>
   <v>       0.38888889       0.05555556       0.29411765 </v>
   <v>       0.44444444       0.05555556       0.29411765 </v>
   <v>       0.50000000       0.05555556       0.29411765 </v>
   <v>       0.11111111       0.11111111       0.29411765 </v>
   <v>       0.16666667       0.11111111       0.29411765 </v>
   <v>       0.22222222       0.11111111       0.29411765 </v>
   <v>       0.27777778       0.11111111       0.29411765 </v>
   <v>       0.33333333       0.11111111       0.29411765 </v>
   <v>       0.38888889       0.11111111       0.29411765 </v>
   <v>       0.44444444       0.11111111       0.29411765 </v>
   <v>       0.50000000       0.11111111       0.29411765 </v>
   <v>       0.16666667       0.16666667       0.29411765 </v>
   <v>       0.22222222       0.16666667       0.29411765 </v>
   <v>       0.27777778       0.16666667       0.29411765 </v>
   <v>       0.33333333       0.16666667       0.29411765 </v>
   <v>       0.38888889       0.16666667       0.29411765 </v>
   <v>       0.44444444       0.16666667       0.29411765 </v>
   <v>       0.50000000       0.16666667       0.29411765 </v>
   <v>       0.22222222       0.22222222       0.29411765 </v>
   <v>       0.27777778       0.22222222       0.29411765 </v>
   <v>       0.33333333       0.22222222       0.29411765 </v>
   <v>       0.38888889       0.22222222       0.29411765 </v>
   <v>       0.44444444       0.22222222       0.29411765 </v>
   <v>       0.50000000       0.22222222       0.29411765 </v>
   <v>       0.27777778       0.27777778       0.29411765 </v>
   <v>       0.33333333       0.27777778       0.29411765 </v>
   <v>       0.38888889       0.27777778       0.29411765 </v>
   <v>       0.44444444       0.27777778       0.29411765 </v>
   <v>       0.50000000       0.27777778       0.29411765 </v>
   <v>       0.33333333       0.33333333       0.29411765 </v>
   <v>       0.38888889       0.33333333       0.29411765 </v>
   <v>       0.44444444       0.33333333       0.29411765 </v>
   <v>       0.50000000       0.33333333       0.29411765 </v>
   <v>       0.38888889       0.38888889       0.29411765 </v>
   <v>       0.44444444       0.38888889       0.29411765 </v>
   <v>       0.50000000       0.38888889       0.29411765 </v>
   <v>       0.44444444       0.44444444       0.29411765 </v>
   <v>       0.50000000       0.44444444       0.29411765 </v>
   <v>       0.50000000       0.50000000       0.29411765 </v>
   <v>       0.00000000       0.00000000       0.35294118 </v>
   <v>       0.05555556       0.00000000       0.35294118 </v>
   <v>       0.11111111       0.00000000       0.35294118 </v>
   <v>       0.16666667       0.00000000       0.35294118 </v>
   <v>       0.22222222       0.00000000       0.35294118 </v>
   <v>       0.27777778       0.00000000       0.35294118 </v>
   <v>       0.33333333       0.00000000       0.35294118 </v>
   <v>       0.38888889       0.00000000       0.35294118 </v>
   <v>       0.44444444       0.00000000       0.35294118 </v>
   <v>       0.50000000       0.00000000       0.35294118 </v>
   <v>       0.05555556       0.05555556       0.35294118 </v>
   <v>       0.11111111       0.05555556       0.35294118 </v>
   <v>       0.16666667       0.05555556       0.35294118 </v>
   <v>       0.22222222       0.05555556       0.35294118 </v>
   <v>       0.27777778       0.05555556       0.35294118 </v>
   <v>       0.33333333       0.05555556       0.35294118 </v>
   <v>       0.38888889       0.05555556       0.35294118 </v>
   <v>       0.44444444       0.05555556       0.35294118 </v>
   <v>       0.50000000       0.05555556       0.35294118 </v>
   <v>       0.11111111       0.11111111       0.35294118 </v>
   <v>       0.16666667       0.11111111       0.35294118 </v>
   <v>       0.22222222       0.11111111       0.35294118 </v>
   <v>       0.27777778       0.11111111       0.35294118 </v>
   <v>       0.33333333       0.11111111       0.35294118 </v>
   <v>       0.38888889       0.11111111       0.35294118 </v>
   <v>       0.44444444       0.11111111       0.35294118 </v>
   <v>       0.50000000       0.11111111       0.35294118 </v>
   <v>       0.16666667       0.16666667       0.35294118 </v>
   <v>       0.22222222       0.16666667       0.35294118 </v>
   <v>       0.27777778       0.16666667       0.35294118 </v>
   <v>       0.33333333       0.16666667       0.35294118 </v>
   <v>       0.38888889       0.16666667       0.35294118 </v>
   <v>       0.44444444       0.16666667       0.35294118 </v>
   <v>       0.50000000       0.16666667       0.35294118 </v>
   <v>       0.22222222       0.22222222       0.35294118 </v>
   <v>       0.27777778       0.22222222       0.35294118 </v>
   <v>       0.33333333       0.22222222       0.35294118 </v>
   <v>       0.38888889       0.22222222       0.35294118 </v>
   <v>       0.44444444       0.22222222       0.35294118 </v>
   <v>       0.50000000       0.22222222       0.35294118 </v>
   <v>       0.27777778       0.27777778       0.35294118 </v>
   <v>       0.33333333       0.27777778       0.35294118 </v>
   <v>       0.38888889       0.27777778       0.35294118 </v>
   <v>       0.44444444       0.27777778       0.35294118 </v>
   <v>       0.50000000       0.27777778       0.35294118 </v>
   <v>       0.33333333       0.33333333       0.35294118 </v>
   <v>       0.38888889       0.33333333       0.35294118 </v>
   <v>       0.44444444       0.33333333       0.35294118 </v>
   <v>       0.50000000       0.33333333       0.35294118 </v>
   <v>       0.38888889       0.38888889       0.35294118 </v>
   <v>       0.44444444       0.38888889       0.35294118 </v>
   <v>       0.50000000       0.38888889       0.35294118 </v>
   <v>       0.44444444       0.44444444       0.35294118 </v>
   <v>       0.50000000       0.44444444       0.35294118 </v>
   <v>       0.50000000       0.50000000       0.35294118 </v>
   <v>       0.00000000       0.00000000       0.41176471 </v>
   <v>       0.05555556       0.00000000       0.41176471 </v>
   <v>       0.11111111       0.00000000       0.41176471 </v>
   <v>       0.16666667       0.00000000       0.41176471 </v>
   <v>       0.22222222       0.00000000       0.41176471 </v>
   <v>       0.27777778       0.00000000       0.41176471 </v>
   <v>       0.33333333       0.00000000       0.41176471 </v>
   <v>       0.38888889       0.00000000       0.41176471 </v>
   <v>       0.44444444       0.00000000       0.41176471 </v>
   <v>       0.50000000       0.00000000       0.41176471 </v>
   <v>       0.05555556       0.05555556       0.41176471 </v>
   <v>       0.11111111       0.05555556       0.41176471 </v>
   <v>       0.16666667       0.05555556       0.41176471 </v>
   <v>       0.22222222       0.05555556       0.41176471 </v>
   <v>       0.27777778       0.05555556       0.41176471 </v>
   <v>       0.33333333       0.05555556       0.41176471 </v>
   <v>       0.38888889       0.05555556       0.41176471 </v>
   <v>       0.44444444       0.05555556       0.41176471 </v>
   <v>       0.50000000       0.05555556       0.41176471 </v>
   <v>       0.11111111       0.11111111       0.41176471 </v>
   <v>       0.16666667       0.11111111       0.41176471 </v>
   <v>       0.22222222       0.11111111       0.41176471 </v>
   <v>       0.27777778       0.11111111       0.41176471 </v>
   <v>       0.33333333       0.11111111       0.41176471 </v>
   <v>       0.38888889       0.11111111       0.41176471 </v>
   <v>       0.44444444       0.11111111       0.41176471 </v>
   <v>       0.50000000       0.11111111       0.41176471 </v>
   <v>       0.16666667       0.16666667       0.41176471 </v>
   <v>       0.22222222       0.16666667       0.41176471 </v>
   <v>       0.27777778       0.16666667       0.41176471 </v>
   <v>       0.33333333       0.16666667       0.41176471 </v>
   <v>       0.38888889       0.16666667       0.41176471 </v>
   <v>       0.44444444       0.16666667       0.41176471 </v>
   <v>       0.50000000       0.16666667       0.41176471 </v>
   <v>       0.22222222       0.22222222       0.41176471 </v>
   <v>       0.27777778       0.22222222       0.41176471 </v>
   <v>       0.33333333       0.22222222       0.41176471 </v>
   <v>       0.38888889       0.22222222       0.41176471 </v>
   <v>       0.44444444       0.22222222       0.41176471 </v>
   <v>       0.50000000       0.22222222       0.41176471 </v>
   <v>       0.27777778       0.27777778       0.41176471 </v>
   <v>       0.33333333       0.27777778       0.41176471 </v>
   <v>       0.38888889       0.27777778       0.41176471 </v>
   <v>       0.44444444       0.27777778       0.41176471 </v>
   <v>       0.50000000       0.27777778       0.41176471 </v>
   <v>       0.33333333       0.33333333       0.41176471 </v>
   <v>       0.38888889       0.33333333       0.41176471 </v>
   <v>       0.44444444       0.33333333       0.41176471 </v>
   <v>       0.50000000       0.33333333       0.41176471 </v>
   <v>       0.38888889       0.38888889       0.41176471 </v>
   <v>       0.44444444       0.38888889       0.41176471 </v>
   <v>       0.50000000       0.38888889       0.41176471 </v>
   <v>       0.44444444       0.44444444       0.41176471 </v>
   <v>       0.50000000       0.44444444       0.41176471 </v>
   <v>       0.50000000       0.50000000       0.41176471 </v>
   <v>       0.00000000       0.00000000       0.47058824 </v>
   <v>       0.05555556       0.00000000       0.47058824 </v>
   <v>       0.11111111       0.00000000       0.47058824 </v>
   <v>       0.16666667       0.00000000       0.47058824 </v>
   <v>       0.22222222       0.00000000       0.47058824 </v>
   <v>       0.27777778       0.00000000       0.47058824 </v>
   <v>       0.33333333       0.00000000       0.47058824 </v>
   <v>       0.38888889       0.00000000       0.47058824 </v>
   <v>       0.44444444       0.00000000       0.47058824 </v>
   <v>       0.50000000       0.00000000       0.47058824 </v>
   <v>       0.05555556       0.05555556       0.47058824 </v>
   <v>       0.11111111       0.05555556       0.47058824 </v>
   <v>       0.16666667       0.05555556       0.47058824 </v>
   <v>       0.22222222       0.05555556       0.47058824 </v>
   <v>       0.27777778       0.05555556       0.47058824 </v>
   <v>       0.33333333       0.05555556       0.47058824 </v>
   <v>       0.38888889       0.05555556       0.47058824 </v>
   <v>       0.44444444       0.05555556       0.47058824 </v>
   <v>       0.50000000       0.05555556       0.47058824 </v>
   <v>       0.11111111       0.11111111       0.47058824 </v>
   <v>       0.16666667       0.11111111       0.47058824 </v>
   <v>       0.22222222       0.11111111       0.47058824 </v>
   <v>       0.27777778       0.11111111       0.47058824 </v>
   <v>       0.33333333       0.11111111       0.47058824 </v>
   <v>       0.38888889       0.11111111       0.47058824 </v>
   <v>       0.44444444       0.11111111       0.47058824 </v>
   <v>       0.50000000       0.11111111       0.47058824 </v>
   <v>       0.16666667       0.16666667       0.47058824 </v>
   <v>       0.22222222       0.16666667       0.47058824 </v>
   <v>       0.27777778       0.16666667       0.47058824 </v>
   <v>       0.33333333       0.16666667       0.47058824 </v>
   <v>       0.38888889       0.16666667       0.47058824 </v>
   <v>       0.44444444       0.16666667       0.47058824 </v>
   <v>       0.50000000       0.16666667       0.47058824 </v>
   <v>       0.22222222       0.22222222       0.47058824 </v>
   <v>       0.27777778       0.22222222       0.47058824 </v>
   <v>       0.33333333       0.22222222       0.47058824 </v>
   <v>       0.38888889       0.22222222       0.47058824 </v>
   <v>       0.44444444       0.22222222       0.47058824 </v>
   <v>       0.50000000       0.22222222       0.47058824 </v>
   <v>       0.27777778       0.27777778       0.47058824 </v>
   <v>       0.33333333       0.27777778       0.47058824 </v>
   <v>       0.38888889       0.27777778       0.47058824 </v>
   <v>       0.44444444       0.27777778       0.47058824 </v>
   <v>       0.50000000       0.27777778       0.47058824 </v>
   <v>       0.33333333       0.33333333       0.47058824 </v>
   <v>       0.38888889       0.33333333       0.47058824 </v>
   <v>       0.44444444       0.33333333       0.47058824 </v>
   <v>       0.50000000       0.33333333       0.47058824 </v>
   <v>       0.38888889       0.38888889       0.47058824 </v>
   <v>       0.44444444       0.38888889       0.47058824 </v>
   <v>       0.50000000       0.38888889       0.47058824 </v>
   <v>       0.44444444       0.44444444       0.47058824 </v>
   <v>       0.50000000       0.44444444       0.47058824 </v>
   <v>       0.50000000       0.50000000       0.47058824 </v>
  </varray>
  <varray name="weights" >
   <v>       0.00018155 </v>
   <v>       0.00072622 </v>
   <v>       0.00072622 </v>
   <v>       0.00072622 </v>
   <v>       0.00072622 </v>
   <v>       0.00072622 </v>
   <v>       0.00072622 </v>
   <v>       0.00072622 </v>
   <v>       0.00072622 </v>
   <v>       0.00036311 </v>
   <v>       0.00072622 </v>
   <v>       0.00145243 </v>
   <v>       0.00145243 </v>
   <v>       0.00145243 </v>
   <v>       0.00145243 </v>
   <v>       0.00145243 </v>
   <v>       0.00145243 </v>
   <v>       0.00145243 </v>
   <v>       0.00072622 </v>
   <v>       0.00072622 </v>
   <v>       0.00145243 </v>
   <v>       0.00145243 </v>
   <v>       0.00145243 </v>
   <v>       0.00145243 </v>
   <v>       0.00145243 </v>
   <v>       0.00145243 </v>
   <v>       0.00072622 </v>
   <v>       0.00072622 </v>
   <v>       0.00145243 </v>
   <v>       0.00145243 </v>
   <v>       0.00145243 </v>
   <v>       0.00145243 </v>
   <v>       0.00145243 </v>
   <v>       0.00072622 </v>
   <v>       0.00072622 </v>
   <v>       0.00145243 </v>
   <v>       0.00145243 </v>
   <v>       0.00145243 </v>
   <v>       0.00145243 </v>
   <v>       0.00072622 </v>
   <v>       0.00072622 </v>
   <v>       0.00145243 </v>
   <v>       0.00145243 </v>
   <v>       0.00145243 </v>
   <v>       0.00072622 </v>
   <v>       0.00072622 </v>
   <v>       0.00145243 </v>
   <v>       0.00145243 </v>
   <v>       0.00072622 </v>
   <v>       0.00072622 </v>
   <v>       0.00145243 </v>
   <v>       0.00072622 </v>
   <v>       0.00072622 </v>
   <v>       0.00072622 </v>
   <v>       0.00018155 </v>
   <v>       0.00036311 </v>
   <v>       0.00145243 </v>
   <v>       0.00145243 </v>
   <v>       0.00145243 </v>
   <v>       0.00145243 </v>
   <v>       0.00145243 </v>
   <v>       0.00145243 </v>
   <v>       0.00145243 </v>
   <v>       0.00145243 </v>
   <v>       0.00072622 </v>
   <v>       0.00145243 </v>
   <v>       0.00290487 </v>
   <v>       0.00290487 </v>
   <v>       0.00290487 </v>
   <v>       0.00290487 </v>
   <v>       0.00290487 </v>
   <v>       0.00290487 </v>
   <v>       0.00290487 </v>
   <v>       0.00145243 </v>
   <v>       0.00145243 </v>
   <v>       0.00290487 </v>
   <v>       0.00290487 </v>
   <v>       0.00290487 </v>
   <v>       0.00290487 </v>
   <v>       0.00290487 </v>
   <v>       0.00290487 </v>
   <v>       0.00145243 </v>
   <v>       0.00145243 </v>
   <v>       0.00290487 </v>
   <v>       0.00290487 </v>
   <v>       0.00290487 </v>
   <v>       0.00290487 </v>
   <v>       0.00290487 </v>
   <v>       0.00145243 </v>
   <v>       0.00145243 </v>
   <v>       0.00290487 </v>
   <v>       0.00290487 </v>
   <v>       0.00290487 </v>
   <v>       0.00290487 </v>
   <v>       0.00145243 </v>
   <v>       0.00145243 </v>
   <v>       0.00290487 </v>
   <v>       0.00290487 </v>
   <v>       0.00290487 </v>
   <v>       0.00145243 </v>
   <v>       0.00145243 </v>
   <v>       0.00290487 </v>
   <v>       0.00290487 </v>
   <v>       0.00145243 </v>
   <v>       0.00145243 </v>
   <v>       0.00290487 </v>
   <v>       0.00145243 </v>
   <v>       0.00145243 </v>
   <v>       0.00145243 </v>
   <v>       0.00036311 </v>
   <v>       0.00036311 </v>
   <v>       0.00145243 </v>
   <v>       0.00145243 </v>
   <v>       0.00145243 </v>
   <v>       0.00145243 </v>
   <v>       0.00145243 </v>
   <v>       0.00145243 </v>
   <v>       0.00145243 </v>
   <v>       0.00145243 </v>
   <v>       0.00072622 </v>
   <v>       0.00145243 </v>
   <v>       0.00290487 </v>
   <v>       0.00290487 </v>
   <v>       0.00290487 </v>
   <v>       0.00290487 </v>
   <v>       0.00290487 </v>
   <v>       0.00290487 </v>
   <v>       0.00290487 </v>
   <v>       0.00145243 </v>
   <v>       0.00145243 </v>
   <v>       0.00290487 </v>
   <v>       0.00290487 </v>
   <v>       0.00290487 </v>
   <v>       0.00290487 </v>
   <v>       0.00290487 </v>
   <v>       0.00290487 </v>
   <v>       0.00145243 </v>
   <v>       0.00145243 </v>
   <v>       0.00290487 </v>
   <v>       0.00290487 </v>
   <v>       0.00290487 </v>
   <v>       0.00290487 </v>
   <v>       0.00290487 </v>
   <v>       0.00145243 </v>
   <v>       0.00145243 </v>
   <v>       0.00290487 </v>
   <v>       0.00290487 </v>
   <v>       0.00290487 </v>
   <v>       0.00290487 </v>
   <v>       0.00145243 </v>
   <v>       0.00145243 </v>
   <v>       0.00290487 </v>
   <v>       0.00290487 </v>
   <v>       0.00290487 </v>
   <v>       0.00145243 </v>
   <v>       0.00145243 </v>
   <v>       0.00290487 </v>
   <v>       0.00290487 </v>
   <v>       0.00145243 </v>
   <v>       0.00145243 </v>
   <v>       0.00290487 </v>
   <v>       0.00145243 </v>
   <v>       0.00145243 </v>
   <v>       0.00145243 </v>
   <v>       0.00036311 </v>
   <v>       0.00036311 </v>
   <v>       0.00145243 </v>
   <v>       0.00145243 </v>
   <v>       0.00145243 </v>
   <v>       0.00145243 </v>
   <v>       0.00145243 </v>
   <v>       0.00145243 </v>
   <v>       0.00145243 </v>
   <v>       0.00145243 </v>
   <v>       0.00072622 </v>
   <v>       0.00145243 </v>
   <v>       0.00290487 </v>
   <v>       0.00290487 </v>
   <v>       0.00290487 </v>
   <v>       0.00290487 </v>
   <v>       0.00290487 </v>
   <v>       0.00290487 </v>
   <v>       0.00290487 </v>
   <v>       0.00145243 </v>
   <v>       0.00145243 </v>
   <v>       0.00290487 </v>
   <v>       0.00290487 </v>
   <v>       0.00290487 </v>
   <v>       0.00290487 </v>
   <v>       0.00290487 </v>
   <v>       0.00290487 </v>
   <v>       0.00145243 </v>
   <v>       0.00145243 </v>
   <v>       0.00290487 </v>
   <v>       0.00290487 </v>
   <v>       0.00290487 </v>
   <v>       0.00290487 </v>
   <v>       0.00290487 </v>
   <v>       0.00145243 </v>
   <v>       0.00145243 </v>
   <v>       0.00290487 </v>
   <v>       0.00290487 </v>
   <v>       0.00290487 </v>
   <v>       0.00290487 </v>
   <v>       0.00145243 </v>
   <v>       0.00145243 </v>
   <v>       0.00290487 </v>
   <v>       0.00290487 </v>
   <v>       0.00290487 </v>
   <v>       0.00145243 </v>
   <v>       0.00145243 </v>
   <v>       0.00290487 </v>
   <v>       0.00290487 </v>
   <v>       0.00145243 </v>
   <v>       0.00145243 </v>
   <v>       0.00290487 </v>
   <v>       0.00145243 </v>
   <v>       0.00145243 </v>
   <v>       0.00145243 </v>
   <v>       0.00036311 </v>
   <v>       0.00036311 </v>
   <v>       0.00145243 </v>
   <v>       0.00145243 </v>
   <v>       0.00145243 </v>
   <v>       0.00145243 </v>
   <v>       0.00145243 </v>
   <v>       0.00145243 </v>
   <v>       0.00145243 </v>
   <v>       0.00145243 </v>
   <v>       0.00072622 </v>
   <v>       0.00145243 </v>
   <v>       0.00290487 </v>
   <v>       0.00290487 </v>
   <v>       0.00290487 </v>
   <v>       0.00290487 </v>
   <v>       0.00290487 </v>
   <v>       0.00290487 </v>
   <v>       0.00290487 </v>
   <v>       0.00145243 </v>
   <v>       0.00145243 </v>
   <v>       0.00290487 </v>
   <v>       0.00290487 </v>
   <v>       0.00290487 </v>
   <v>       0.00290487 </v>
   <v>       0.00290487 </v>
   <v>       0.00290487 </v>
   <v>       0.00145243 </v>
   <v>       0.00145243 </v>
   <v>       0.00290487 </v>
   <v>       0.00290487 </v>
   <v>       0.00290487 </v>
   <v>       0.00290487 </v>
   <v>       0.00290487 </v>
   <v>       0.00145243 </v>
   <v>       0.00145243 </v>
   <v>       0.00290487 </v>
   <v>       0.00290487 </v>
   <v>       0.00290487 </v>
   <v>       0.00290487 </v>
   <v>       0.00145243 </v>
   <v>       0.00145243 </v>
   <v>       0.00290487 </v>
   <v>       0.00290487 </v>
   <v>       0.00290487 </v>
   <v>       0.00145243 </v>
   <v>       0.00145243 </v>
   <v>       0.00290487 </v>
   <v>       0.00290487 </v>
   <v>       0.00145243 </v>
   <v>       0.00145243 </v>
   <v>       0.00290487 </v>
   <v>       0.00145243 </v>
   <v>       0.00145243 </v>
   <v>       0.00145243 </v>
   <v>       0.00036311 </v>
   <v>       0.00036311 </v>
   <v>       0.00145243 </v>
   <v>       0.00145243 </v>
   <v>       0.00145243 </v>
   <v>       0.00145243 </v>
   <v>       0.00145243 </v>
   <v>       0.00145243 </v>
   <v>       0.00145243 </v>
   <v>       0.00145243 </v>
   <v>       0.00072622 </v>
   <v>       0.00145243 </v>
   <v>       0.00290487 </v>
   <v>       0.00290487 </v>
   <v>       0.00290487 </v>
   <v>       0.00290487 </v>
   <v>       0.00290487 </v>
   <v>       0.00290487 </v>
   <v>       0.00290487 </v>
   <v>       0.00145243 </v>
   <v>       0.00145243 </v>
   <v>       0.00290487 </v>
   <v>       0.00290487 </v>
   <v>       0.00290487 </v>
   <v>       0.00290487 </v>
   <v>       0.00290487 </v>
   <v>       0.00290487 </v>
   <v>       0.00145243 </v>
   <v>       0.00145243 </v>
   <v>       0.00290487 </v>
   <v>       0.00290487 </v>
   <v>       0.00290487 </v>
   <v>       0.00290487 </v>
   <v>       0.00290487 </v>
   <v>       0.00145243 </v>
   <v>       0.00145243 </v>
   <v>       0.00290487 </v>
   <v>       0.00290487 </v>
   <v>       0.00290487 </v>
   <v>       0.00290487 </v>
   <v>       0.00145243 </v>
   <v>       0.00145243 </v>
   <v>       0.00290487 </v>
   <v>       0.00290487 </v>
   <v>       0.00290487 </v>
   <v>       0.00145243 </v>
   <v>       0.00145243 </v>
   <v>       0.00290487 </v>
   <v>       0.00290487 </v>
   <v>       0.00145243 </v>
   <v>       0.00145243 </v>
   <v>       0.00290487 </v>
   <v>       0.00145243 </v>
   <v>       0.00145243 </v>
   <v>       0.00145243 </v>
   <v>       0.00036311 </v>
   <v>       0.00036311 </v>
   <v>       0.00145243 </v>
   <v>       0.00145243 </v>
   <v>       0.00145243 </v>
   <v>       0.00145243 </v>
   <v>       0.00145243 </v>
   <v>       0.00145243 </v>
   <v>       0.00145243 </v>
   <v>       0.00145243 </v>
   <v>       0.00072622 </v>
   <v>       0.00145243 </v>
   <v>       0.00290487 </v>
   <v>       0.00290487 </v>
   <v>       0.00290487 </v>
   <v>       0.00290487 </v>
   <v>       0.00290487 </v>
   <v>       0.00290487 </v>
   <v>       0.00290487 </v>
   <v>       0.00145243 </v>
   <v>       0.00145243 </v>
   <v>       0.00290487 </v>
   <v>       0.00290487 </v>
   <v>       0.00290487 </v>
   <v>       0.00290487 </v>
   <v>       0.00290487 </v>
   <v>       0.00290487 </v>
   <v>       0.00145243 </v>
   <v>       0.00145243 </v>
   <v>       0.00290487 </v>
   <v>       0.00290487 </v>
   <v>       0.00290487 </v>
   <v>       0.00290487 </v>
   <v>       0.00290487 </v>
   <v>       0.00145243 </v>
   <v>       0.00145243 </v>
   <v>       0.00290487 </v>
   <v>       0.00290487 </v>
   <v>       0.00290487 </v>
   <v>       0.00290487 </v>
   <v>       0.00145243 </v>
   <v>       0.00145243 </v>
   <v>       0.00290487 </v>
   <v>       0.00290487 </v>
   <v>       0.00290487 </v>
   <v>       0.00145243 </v>
   <v>       0.00145243 </v>
   <v>       0.00290487 </v>
   <v>       0.00290487 </v>
   <v>       0.00145243 </v>
   <v>       0.00145243 </v>
   <v>       0.00290487 </v>
   <v>       0.00145243 </v>
   <v>       0.00145243 </v>
   <v>       0.00145243 </v>
   <v>       0.00036311 </v>
   <v>       0.00036311 </v>
   <v>       0.00145243 </v>
   <v>       0.00145243 </v>
   <v>       0.00145243 </v>
   <v>       0.00145243 </v>
   <v>       0.00145243 </v>
   <v>       0.00145243 </v>
   <v>       0.00145243 </v>
   <v>       0.00145243 </v>
   <v>       0.00072622 </v>
   <v>       0.00145243 </v>
   <v>       0.00290487 </v>
   <v>       0.00290487 </v>
   <v>       0.00290487 </v>
   <v>       0.00290487 </v>
   <v>       0.00290487 </v>
   <v>       0.00290487 </v>
   <v>       0.00290487 </v>
   <v>       0.00145243 </v>
   <v>       0.00145243 </v>
   <v>       0.00290487 </v>
   <v>       0.00290487 </v>
   <v>       0.00290487 </v>
   <v>       0.00290487 </v>
   <v>       0.00290487 </v>
   <v>       0.00290487 </v>
   <v>       0.00145243 </v>
   <v>       0.00145243 </v>
   <v>       0.00290487 </v>
   <v>       0.00290487 </v>
   <v>       0.00290487 </v>
   <v>       0.00290487 </v>
   <v>       0.00290487 </v>
   <v>       0.00145243 </v>
   <v>       0.00145243 </v>
   <v>       0.00290487 </v>
   <v>       0.00290487 </v>
   <v>       0.00290487 </v>
   <v>       0.00290487 </v>
   <v>       0.00145243 </v>
   <v>       0.00145243 </v>
   <v>       0.00290487 </v>
   <v>       0.00290487 </v>
   <v>       0.00290487 </v>
   <v>       0.00145243 </v>
   <v>       0.00145243 </v>
   <v>       0.00290487 </v>
   <v>       0.00290487 </v>
   <v>       0.00145243 </v>
   <v>       0.00145243 </v>
   <v>       0.00290487 </v>
   <v>       0.00145243 </v>
   <v>       0.00145243 </v>
   <v>       0.00145243 </v>
   <v>       0.00036311 </v>
   <v>       0.00036311 </v>
   <v>       0.00145243 </v>
   <v>       0.00145243 </v>
   <v>       0.00145243 </v>
   <v>       0.00145243 </v>
   <v>       0.00145243 </v>
   <v>       0.00145243 </v>
   <v>       0.00145243 </v>
   <v>       0.00145243 </v>
   <v>       0.00072622 </v>
   <v>       0.00145243 </v>
   <v>       0.00290487 </v>
   <v>       0.00290487 </v>
   <v>       0.00290487 </v>
   <v>       0.00290487 </v>
   <v>       0.00290487 </v>
   <v>       0.00290487 </v>
   <v>       0.00290487 </v>
   <v>       0.00145243 </v>
   <v>       0.00145243 </v>
   <v>       0.00290487 </v>
   <v>       0.00290487 </v>
   <v>       0.00290487 </v>
   <v>       0.00290487 </v>
   <v>       0.00290487 </v>
   <v>       0.00290487 </v>
   <v>       0.00145243 </v>
   <v>       0.00145243 </v>
   <v>       0.00290487 </v>
   <v>       0.00290487 </v>
   <v>       0.00290487 </v>
   <v>       0.00290487 </v>
   <v>       0.00290487 </v>
   <v>       0.00145243 </v>
   <v>       0.00145243 </v>
   <v>       0.00290487 </v>
   <v>       0.00290487 </v>
   <v>       0.00290487 </v>
   <v>       0.00290487 </v>
   <v>       0.00145243 </v>
   <v>       0.00145243 </v>
   <v>       0.00290487 </v>
   <v>       0.00290487 </v>
   <v>       0.00290487 </v>
   <v>       0.00145243 </v>
   <v>       0.00145243 </v>
   <v>       0.00290487 </v>
   <v>       0.00290487 </v>
   <v>       0.00145243 </v>
   <v>       0.00145243 </v>
   <v>       0.00290487 </v>
   <v>       0.00145243 </v>
   <v>       0.00145243 </v>
   <v>       0.00145243 </v>
   <v>       0.00036311 </v>
  </varray>
 </kpoints>
 <parameters>
  <separator name="general" >
   <i type="string" name="SYSTEM">unknown system</i>
   <i type="logical" name="LCOMPAT"> F  </i>
  </separator>
  <separator name="electronic" >
   <i type="string" name="PREC">accura</i>
   <i name="ENMAX">    500.00000000</i>
   <i name="ENAUG">    586.98000000</i>
   <i name="EDIFF">      0.00000100</i>
   <i type="int" name="IALGO">    68</i>
   <i type="int" name="IWAVPR">    11</i>
   <i type="int" name="NBANDS">    28</i>
   <i name="NELECT">     44.00000000</i>
   <i type="int" name="TURBO">     0</i>
   <i type="int" name="IRESTART">     0</i>
   <i type="int" name="NREBOOT">     0</i>
   <i type="int" name="NMIN">     0</i>
   <i name="EREF">      0.00000000</i>
   <separator name="electronic smearing" >
    <i type="int" name="ISMEAR">     1</i>
    <i name="SIGMA">      0.30000000</i>
    <i name="KSPACING">      0.50000000</i>
    <i type="logical" name="KGAMMA"> T  </i>
   </separator>
   <separator name="electronic projectors" >
    <i type="logical" name="LREAL"> F  </i>
    <v name="ROPT">      0.00000000      0.00000000      0.00000000</v>
    <i type="int" name="LMAXPAW">  -100</i>
    <i type="int" name="LMAXMIX">     2</i>
    <i type="logical" name="NLSPLINE"> F  </i>
   </separator>
   <separator name="electronic startup" >
    <i type="int" name="ISTART">     0</i>
    <i type="int" name="ICHARG">     2</i>
    <i type="int" name="INIWAV">     1</i>
   </separator>
   <separator name="electronic spin" >
    <i type="int" name="ISPIN">     1</i>
    <i type="logical" name="LNONCOLLINEAR"> F  </i>
    <v name="MAGMOM">      1.00000000      1.00000000      1.00000000      1.00000000</v>
    <i name="NUPDOWN">     -1.00000000</i>
    <i type="logical" name="LSORBIT"> F  </i>
    <v name="SAXIS">      0.00000000      0.00000000      1.00000000</v>
    <i type="logical" name="LSPIRAL"> F  </i>
    <v name="QSPIRAL">      0.00000000      0.00000000      0.00000000</v>
    <i type="logical" name="LZEROZ"> F  </i>
   </separator>
   <separator name="electronic exchange-correlation" >
    <i type="logical" name="LASPH"> F  </i>
    <i type="logical" name="LMETAGGA"> F  </i>
   </separator>
   <separator name="electronic convergence" >
    <i type="int" name="NELM">   200</i>
    <i type="int" name="NELMDL">     0</i>
    <i type="int" name="NELMIN">     4</i>
    <i name="ENINI">    500.00000000</i>
    <separator name="electronic convergence detail" >
     <i type="logical" name="LDIAG"> T  </i>
     <i type="logical" name="LSUBROT"> F  </i>
     <i name="WEIMIN">      0.00100000</i>
     <i name="EBREAK">      0.00000001</i>
     <i name="DEPER">      0.30000000</i>
     <i type="int" name="NRMM">     4</i>
     <i name="TIME">      0.40000000</i>
    </separator>
   </separator>
   <separator name="electronic mixer" >
    <i name="AMIX">      0.40000000</i>
    <i name="BMIX">      1.00000000</i>
    <i name="AMIN">      0.10000000</i>
    <i name="AMIX_MAG">      1.60000000</i>
    <i name="BMIX_MAG">      1.00000000</i>
    <separator name="electronic mixer details" >
     <i type="int" name="IMIX">     4</i>
     <i type="int" name="MAXMIX">   -45</i>
     <i name="WC">    100.00000000</i>
     <i type="int" name="INIMIX">     1</i>
     <i type="int" name="MIXPRE">     1</i>
     <i type="int" name="MREMOVE">     5</i>
    </separator>
   </separator>
   <separator name="electronic dipolcorrection" >
    <i type="logical" name="LDIPOL"> F  </i>
    <i type="logical" name="LMONO"> F  </i>
    <i type="int" name="IDIPOL">     0</i>
    <i name="EPSILON">      1.00000000</i>
    <v name="DIPOL">   -100.00000000   -100.00000000   -100.00000000</v>
    <i name="EFIELD">      0.00000000</i>
   </separator>
  </separator>
  <separator name="grids" >
   <i type="int" name="NGX">    30</i>
   <i type="int" name="NGY">    30</i>
   <i type="int" name="NGZ">    30</i>
   <i type="int" name="NGXF">    60</i>
   <i type="int" name="NGYF">    60</i>
   <i type="int" name="NGZF">    60</i>
   <i type="logical" name="ADDGRID"> T  </i>
  </separator>
  <separator name="ionic" >
   <i type="int" name="NSW">    30</i>
   <i type="int" name="IBRION">     2</i>
   <i type="int" name="ISIF">     3</i>
   <i name="PSTRESS">      0.00000000</i>
   <i name="EDIFFG">     -0.02000000</i>
   <i type="int" name="NFREE">     1</i>
   <i name="POTIM">      0.50000000</i>
   <i name="SMASS">     -3.00000000</i>
   <i name="SCALEE">      1.00000000</i>
  </separator>
  <separator name="ionic md" >
   <i name="TEBEG">      0.00010000</i>
   <i name="TEEND">      0.00010000</i>
   <i type="int" name="NBLOCK">     1</i>
   <i type="int" name="KBLOCK">    30</i>
   <i type="int" name="NPACO">   256</i>
   <i name="APACO">     16.00000000</i>
  </separator>
  <separator name="symmetry" >
   <i type="int" name="ISYM">     2</i>
   <i name="SYMPREC">      0.00001000</i>
  </separator>
  <separator name="dos" >
   <i type="logical" name="LORBIT"> F  </i>
   <v name="RWIGS">     -1.00000000     -1.00000000     -1.00000000</v>
   <i type="int" name="NEDOS">   301</i>
   <i name="EMIN">     10.00000000</i>
   <i name="EMAX">    -10.00000000</i>
   <i name="EFERMI">      0.00000000</i>
  </separator>
  <separator name="writing" >
   <i type="int" name="NWRITE">     2</i>
   <i type="logical" name="LWAVE"> F  </i>
   <i type="logical" name="LCHARG"> F  </i>
   <i type="logical" name="LPARD"> F  </i>
   <i type="logical" name="LVTOT"> F  </i>
   <i type="logical" name="LVHAR"> F  </i>
   <i type="logical" name="LELF"> F  </i>
   <i type="logical" name="LOPTICS"> F  </i>
   <v name="STM">      0.00000000      0.00000000      0.00000000      0.00000000      0.00000000      0.00000000      0.00000000</v>
  </separator>
  <separator name="performance" >
   <i type="int" name="NPAR">     4</i>
   <i type="int" name="NSIM">     4</i>
   <i type="int" name="NBLK">    -1</i>
   <i type="logical" name="LPLANE"> T  </i>
   <i type="logical" name="LSCALAPACK"> T  </i>
   <i type="logical" name="LSCAAWARE"> F  </i>
   <i type="logical" name="LSCALU"> F  </i>
   <i type="logical" name="LASYNC"> F  </i>
   <i type="logical" name="LORBITALREAL"> F  </i>
  </separator>
  <separator name="miscellaneous" >
   <i type="int" name="IDIOT">     3</i>
   <i type="logical" name="LMUSIC"> F  </i>
   <v name="POMASS">     63.54600000    107.86800000    196.96600000</v>
   <v name="DARWINR">      0.00000000      0.00000000      0.00000000</v>
   <v name="DARWINV">      1.00000000      1.00000000      1.00000000</v>
   <i type="logical" name="LCORR"> T  </i>
  </separator>
  <i type="logical" name="GGA_COMPAT"> T  </i>
  <i type="logical" name="LBERRY"> F  </i>
  <i type="int" name="ICORELEVEL">     0</i>
  <i type="logical" name="LDAU"> F  </i>
  <i type="int" name="I_CONSTRAINED_M">     0</i>
  <separator name="electronic exchange-correlation" >
   <i type="string" name="GGA">--</i>
   <i type="int" name="VOSKOWN">     0</i>
   <i type="logical" name="LHFCALC"> F  </i>
   <i type="string" name="PRECFOCK"></i>
   <i type="logical" name="LSYMGRAD"> F  </i>
   <i type="logical" name="LHFONE"> F  </i>
   <i type="logical" name="LRHFCALC"> F  </i>
   <i type="logical" name="LTHOMAS"> F  </i>
   <i type="logical" name="LMODELHF"> F  </i>
   <i name="ENCUT4O">     -1.00000000</i>
   <i type="int" name="EXXOEP">     0</i>
   <i type="int" name="FOURORBIT">     0</i>
   <i name="AEXX">      0.00000000</i>
   <i name="HFALPHA">      0.00000000</i>
   <i name="MCALPHA">      0.00000000</i>
   <i name="ALDAX">      1.00000000</i>
   <i name="AGGAX">      1.00000000</i>
   <i name="ALDAC">      1.00000000</i>
   <i name="AGGAC">      1.00000000</i>
   <i type="int" name="NKREDX">     1</i>
   <i type="int" name="NKREDY">     1</i>
   <i type="int" name="NKREDZ">     1</i>
   <i type="logical" name="SHIFTRED"> F  </i>
   <i type="logical" name="ODDONLY"> F  </i>
   <i type="logical" name="EVENONLY"> F  </i>
   <i type="int" name="LMAXFOCK">     0</i>
   <i type="int" name="NMAXFOCKAE">     0</i>
   <i type="logical" name="LFOCKAEDFT"> F  </i>
   <i name="HFSCREEN">      0.00000000</i>
   <i name="HFSCREENC">      0.00000000</i>
   <i type="int" name="NBANDSGWLOW">     0</i>
  </separator>
  <separator name="vdW DFT" >
   <i type="logical" name="LUSE_VDW"> F  </i>
   <i name="Zab_VDW">     -0.84910000</i>
   <i name="PARAM1">      0.12340000</i>
   <i name="PARAM2">      1.00000000</i>
   <i name="PARAM3">      0.00000000</i>
  </separator>
  <separator name="model GW" >
   <i type="int" name="MODEL_GW">     0</i>
   <i name="MODEL_EPS0">      9.85722497</i>
   <i name="MODEL_ALPHA">      1.00000000</i>
  </separator>
  <separator name="linear response parameters" >
   <i type="logical" name="LEPSILON"> F  </i>
   <i type="logical" name="LRPA"> F  </i>
   <i type="logical" name="LNABLA"> F  </i>
   <i type="logical" name="LVEL"> F  </i>
   <i type="int" name="KINTER">     0</i>
   <i name="CSHIFT">      0.10000000</i>
   <i name="OMEGAMAX">     -1.00000000</i>
   <i name="DEG_THRESHOLD">      0.00200000</i>
  </separator>
  <separator name="orbital magnetization" >
   <i type="logical" name="NUCIND"> F  </i>
   <v name="MAGPOS">      0.00000000      0.00000000      0.00000000</v>
   <i type="logical" name="LNICSALL"> T  </i>
   <i type="logical" name="ORBITALMAG"> F  </i>
   <i type="logical" name="LMAGBLOCH"> F  </i>
   <i type="logical" name="LCHIMAG"> F  </i>
   <i type="logical" name="LGAUGE"> T  </i>
   <i type="int" name="MAGATOM">     0</i>
   <v name="MAGDIPOL">      0.00000000      0.00000000      0.00000000</v>
   <v name="AVECCONST">      0.00000000      0.00000000      0.00000000</v>
  </separator>
  <separator name="response functions" >
   <i type="logical" name="LADDER"> F  </i>
   <i type="logical" name="LFXC"> F  </i>
   <i type="logical" name="LHARTREE"> T  </i>
   <i type="int" name="IBSE">     0</i>
   <i type="logical" name="LTCTE"> F  </i>
   <i type="logical" name="LTETE"> F  </i>
   <i type="logical" name="LTRIPLET"> F  </i>
   <i type="logical" name="LFXCEPS"> F  </i>
   <i type="logical" name="LFXHEG"> F  </i>
   <i type="logical" name="L2ORDER"> F  </i>
   <i type="logical" name="LUSEW"> F  </i>
   <i name="ENCUTGW">     -2.00000000</i>
   <i name="ENCUTGWSOFT">     -2.00000000</i>
   <i name="ENCUTLF">     -1.00000000</i>
   <i type="int" name="LMAXMP2">    -1</i>
   <i name="SCISSOR">      0.00000000</i>
   <i type="int" name="NOMEGA">     0</i>
   <i type="int" name="NOMEGAR">     0</i>
   <i type="int" name="NBANDSGW">    -1</i>
   <i type="int" name="NBANDSO">    -1</i>
   <i type="int" name="NBANDSV">    -1</i>
   <i type="int" name="NELM">   200</i>
   <i type="int" name="DIM">     3</i>
   <i type="int" name="ANTIRES">     0</i>
   <i name="OMEGAMAX">    -30.00000000</i>
   <i name="OMEGAMIN">    -30.00000000</i>
   <i name="OMEGATL">   -200.00000000</i>
   <i type="int" name="OMEGAGRID">     0</i>
   <i name="CSHIFT">     -0.10000000</i>
   <i type="logical" name="SELFENERGY"> F  </i>
   <i type="logical" name="LSPECTRAL"> F  </i>
   <i type="logical" name="ODDONLYGW"> F  </i>
   <i type="logical" name="EVENONLYGW"> F  </i>
   <i type="int" name="NKREDLFX">     1</i>
   <i type="int" name="NKREDLFY">     1</i>
   <i type="int" name="NKREDLFZ">     1</i>
   <i type="int" name="MAXMEM">  1800</i>
   <i type="int" name="TELESCOPE">     0</i>
   <i type="int" name="TAUPAR">     1</i>
  </separator>
  <separator name="External order field" >
   <i name="OFIELD_KAPPA">      0.00000000</i>
   <v name="OFIELD_K">      0.00000000      0.00000000      0.00000000</v>
   <i name="OFIELD_Q6_NEAR">      0.00000000</i>
   <i name="OFIELD_Q6_FAR">      0.00000000</i>
   <i name="OFIELD_A">      0.00000000</i>
  </separator>
 </parameters>
 <atominfo>
  <atoms>       4 </atoms>
  <types>       3 </types>
  <array name="atoms" >
   <dimension dim="1">ion</dimension>
   <field type="string">element</field>
   <field type="int">atomtype</field>
   <set>
    <rc><c>Cu</c><c>   1</c></rc>
    <rc><c>Ag</c><c>   2</c></rc>
    <rc><c>Ag</c><c>   2</c></rc>
    <rc><c>Au</c><c>   3</c></rc>
   </set>
  </array>
  <array name="atomtypes" >
   <dimension dim="1">type</dimension>
   <field type="int">atomspertype</field>
   <field type="string">element</field>
   <field>mass</field>
   <field>valence</field>
   <field type="string">pseudopotential</field>
   <set>
    <rc><c>   1</c><c>Cu</c><c>     63.54600000</c><c>     11.00000000</c><c>  PAW_PBE Cu 22Jun2005                  </c></rc>
    <rc><c>   2</c><c>Ag</c><c>    107.86800000</c><c>     11.00000000</c><c>  PAW_PBE Ag 02Apr2005                  </c></rc>
    <rc><c>   1</c><c>Au</c><c>    196.96600000</c><c>     11.00000000</c><c>  PAW_PBE Au 04Oct2007                  </c></rc>
   </set>
  </array>
 </atominfo>
 <structure name="initialpos" >
  <crystal>
   <varray name="basis" >
    <v>       0.00000000       3.99548027       0.00000000 </v>
    <v>       0.00000000       0.00000000       3.99548027 </v>
    <v>       4.11647450       0.00000000       0.00000000 </v>
   </varray>
   <i name="volume">     65.71483312 </i>
   <varray name="rec_basis" >
    <v>       0.00000000       0.25028280       0.00000000 </v>
    <v>       0.00000000       0.00000000       0.25028280 </v>
    <v>       0.24292632       0.00000000       0.00000000 </v>
   </varray>
  </crystal>
  <varray name="positions" >
   <v>       0.50000000       0.50000000       0.00000000 </v>
   <v>       0.00000000       0.50000000       0.50000000 </v>
   <v>       0.50000000       0.00000000       0.50000000 </v>
   <v>       0.00000000       0.00000000       0.00000000 </v>
  </varray>
 </structure>
 <calculation>
  <scstep>
   <time name="dav">    3.16    3.16</time>
   <time name="total">    3.19    3.20</time>
   <energy>
    <i name="alphaZ">    218.96305929 </i>
    <i name="ewald">  -3959.15818905 </i>
    <i name="hartreedc">   -940.63729195 </i>
    <i name="XCdc">     40.08990436 </i>
    <i name="pawpsdc">   4109.22846188 </i>
    <i name="pawaedc">  -4099.75715041 </i>
    <i name="eentropy">      0.00074425 </i>
    <i name="bandstr">    587.79719275 </i>
    <i name="atom">   4391.58362682 </i>
    <i name="e_fr_energy">    348.11035794 </i>
    <i name="e_wo_entrp">    348.10961369 </i>
    <i name="e_0_energy">    348.11010986 </i>
   </energy>
  </scstep>
  <scstep>
   <time name="dav">    3.16    3.16</time>
   <time name="total">    3.17    3.18</time>
   <energy>
    <i name="e_fr_energy">      6.64649038 </i>
    <i name="e_wo_entrp">      6.64670729 </i>
    <i name="e_0_energy">      6.64656268 </i>
   </energy>
  </scstep>
  <scstep>
   <time name="dav">    3.29    3.29</time>
   <time name="total">    3.31    3.32</time>
   <energy>
    <i name="e_fr_energy">    -13.39081343 </i>
    <i name="e_wo_entrp">    -13.39242001 </i>
    <i name="e_0_energy">    -13.39134896 </i>
   </energy>
  </scstep>
  <scstep>
   <time name="dav">    3.29    3.29</time>
   <time name="total">    3.31    3.33</time>
   <energy>
    <i name="e_fr_energy">    -13.78745283 </i>
    <i name="e_wo_entrp">    -13.78920120 </i>
    <i name="e_0_energy">    -13.78803562 </i>
   </energy>
  </scstep>
  <scstep>
   <time name="dav">    3.76    3.76</time>
   <time name="total">    3.96    3.98</time>
   <energy>
    <i name="e_fr_energy">    -13.79766800 </i>
    <i name="e_wo_entrp">    -13.79941773 </i>
    <i name="e_0_energy">    -13.79825124 </i>
   </energy>
  </scstep>
  <scstep>
   <time name="diag">    0.92    0.92</time>
   <time name="diis">    1.09    1.09</time>
   <time name="orth">    0.16    0.16</time>
   <time name="total">    2.39    2.41</time>
   <energy>
    <i name="e_fr_energy">    -13.19772535 </i>
    <i name="e_wo_entrp">    -13.19728327 </i>
    <i name="e_0_energy">    -13.19757799 </i>
   </energy>
  </scstep>
  <scstep>
   <time name="diag">    0.88    0.88</time>
   <time name="diis">    1.13    1.13</time>
   <time name="orth">    0.16    0.16</time>
   <time name="total">    2.39    2.40</time>
   <energy>
    <i name="e_fr_energy">    -12.42058149 </i>
    <i name="e_wo_entrp">    -12.42104173 </i>
    <i name="e_0_energy">    -12.42073490 </i>
   </energy>
  </scstep>
  <scstep>
   <time name="diag">    0.87    0.87</time>
   <time name="diis">    1.11    1.11</time>
   <time name="orth">    0.16    0.16</time>
   <time name="total">    2.37    2.38</time>
   <energy>
    <i name="e_fr_energy">    -12.36594200 </i>
    <i name="e_wo_entrp">    -12.36670834 </i>
    <i name="e_0_energy">    -12.36619744 </i>
   </energy>
  </scstep>
  <scstep>
   <time name="diag">    0.88    0.88</time>
   <time name="diis">    1.09    1.09</time>
   <time name="orth">    0.16    0.16</time>
   <time name="total">    2.36    2.37</time>
   <energy>
    <i name="e_fr_energy">    -12.36950120 </i>
    <i name="e_wo_entrp">    -12.37018550 </i>
    <i name="e_0_energy">    -12.36972930 </i>
   </energy>
  </scstep>
  <scstep>
   <time name="diag">    0.88    0.88</time>
   <time name="diis">    1.10    1.10</time>
   <time name="orth">    0.15    0.15</time>
   <time name="total">    2.36    2.37</time>
   <energy>
    <i name="e_fr_energy">    -12.35750616 </i>
    <i name="e_wo_entrp">    -12.35825564 </i>
    <i name="e_0_energy">    -12.35775599 </i>
   </energy>
  </scstep>
  <scstep>
   <time name="diag">    0.88    0.88</time>
   <time name="diis">    1.17    1.17</time>
   <time name="orth">    0.16    0.16</time>
   <time name="total">    2.43    2.45</time>
   <energy>
    <i name="e_fr_energy">    -12.35743906 </i>
    <i name="e_wo_entrp">    -12.35819161 </i>
    <i name="e_0_energy">    -12.35768991 </i>
   </energy>
  </scstep>
  <scstep>
   <time name="diag">    0.87    0.87</time>
   <time name="diis">    1.17    1.17</time>
   <time name="orth">    0.16    0.16</time>
   <time name="total">    2.43    2.44</time>
   <energy>
    <i name="e_fr_energy">    -12.35742847 </i>
    <i name="e_wo_entrp">    -12.35817516 </i>
    <i name="e_0_energy">    -12.35767736 </i>
   </energy>
  </scstep>
  <scstep>
   <time name="diag">    0.88    0.88</time>
   <time name="diis">    1.12    1.12</time>
   <time name="orth">    0.15    0.15</time>
   <time name="total">    2.38    2.40</time>
   <energy>
    <i name="e_fr_energy">    -12.35742563 </i>
    <i name="e_wo_entrp">    -12.35817281 </i>
    <i name="e_0_energy">    -12.35767469 </i>
   </energy>
  </scstep>
  <scstep>
   <time name="diag">    0.87    0.87</time>
   <time name="diis">    0.99    1.00</time>
   <time name="orth">    0.16    0.16</time>
   <time name="total">    2.26    2.27</time>
   <energy>
    <i name="e_fr_energy">    -12.35742455 </i>
    <i name="e_wo_entrp">    -12.35817295 </i>
    <i name="e_0_energy">    -12.35767402 </i>
   </energy>
  </scstep>
  <scstep>
   <time name="diag">    0.88    0.88</time>
   <time name="diis">    0.80    0.80</time>
   <time name="orth">    0.15    0.15</time>
   <time name="total">    1.87    1.89</time>
   <energy>
    <i name="alphaZ">    218.96305929 </i>
    <i name="ewald">  -3959.15818905 </i>
    <i name="hartreedc">   -884.57636426 </i>
    <i name="XCdc">     37.79206572 </i>
    <i name="pawpsdc">   4533.32758147 </i>
    <i name="pawaedc">  -4533.44617394 </i>
    <i name="eentropy">      0.00074781 </i>
    <i name="bandstr">    183.15622165 </i>
    <i name="atom">   4391.58362682 </i>
    <i name="e_fr_energy">    -12.35742450 </i>
    <i name="e_wo_entrp">    -12.35817230 </i>
    <i name="e_0_energy">    -12.35767377 </i>
   </energy>
  </scstep>
  <structure>
   <crystal>
    <varray name="basis" >
     <v>       0.00000000       3.99548027       0.00000000 </v>
     <v>       0.00000000       0.00000000       3.99548027 </v>
     <v>       4.11647450       0.00000000       0.00000000 </v>
    </varray>
    <i name="volume">     65.71483312 </i>
    <varray name="rec_basis" >
     <v>       0.00000000       0.25028280       0.00000000 </v>
     <v>       0.00000000       0.00000000       0.25028280 </v>
     <v>       0.24292632       0.00000000       0.00000000 </v>
    </varray>
   </crystal>
   <varray name="positions" >
    <v>       0.50000000       0.50000000       0.00000000 </v>
    <v>       0.00000000       0.50000000       0.50000000 </v>
    <v>       0.50000000       0.00000000       0.50000000 </v>
    <v>       0.00000000       0.00000000       0.00000000 </v>
   </varray>
  </structure>
  <varray name="forces" >
   <v>       0.00000000       0.00000000       0.00000000 </v>
   <v>       0.00000000       0.00000000       0.00000000 </v>
   <v>       0.00000000       0.00000000       0.00000000 </v>
   <v>       0.00000000       0.00000000       0.00000000 </v>
  </varray>
  <varray name="stress" >
   <v>       0.96198009       0.00000000       0.00000000 </v>
   <v>       0.00000000       0.53591155       0.00000000 </v>
   <v>       0.00000000       0.00000000       0.53591155 </v>
  </varray>
  <energy>
   <i name="e_fr_energy">    -12.35742450 </i>
   <i name="e_wo_entrp">    -12.35767377 </i>
   <i name="e_0_energy">      0.00074781 </i>
  </energy>
  <time name="totalsc">   42.26   42.50</time>
  <eigenvalues>
   <array>
    <dimension dim="1">band</dimension>
    <dimension dim="2">kpoint</dimension>
    <dimension dim="3">spin</dimension>
    <field>eigene</field>
    <field>occ</field>
    <set>
     <set comment="spin 1">
      <set comment="kpoint 1">
       <r>   -0.4047    1.0000 </r>
       <r>    1.2870    1.0000 </r>
       <r>    1.9357    1.0000 </r>
       <r>    1.9357    1.0000 </r>
       <r>    1.9526    1.0000 </r>
       <r>    2.0702    1.0000 </r>
       <r>    2.1300    1.0000 </r>
       <r>    3.8236    1.0000 </r>
       <r>    3.8236    1.0000 </r>
       <r>    3.9095    1.0000 </r>
       <r>    4.6443    1.0000 </r>
       <r>    4.8418    1.0000 </r>
       <r>    5.3869    1.0000 </r>
       <r>    5.4005    1.0000 </r>
       <r>    5.8389    1.0000 </r>
       <r>    5.8389    1.0000 </r>
       <r>    6.1949    1.0000 </r>
       <r>    6.2444    1.0000 </r>
       <r>    6.2813    1.0000 </r>
       <r>    6.2813    1.0000 </r>
       <r>    6.5974    1.0000 </r>
       <r>    9.1253    0.0000 </r>
       <r>    9.6262    0.0000 </r>
       <r>    9.6262    0.0000 </r>
       <r>   13.3362    0.0000 </r>
       <r>   14.3588    0.0000 </r>
       <r>   15.4757    0.0000 </r>
       <r>   16.6585    0.0000 </r>
      </set>
      <set comment="kpoint 2">
       <r>   -0.3712    1.0000 </r>
       <r>    1.3054    1.0000 </r>
       <r>    1.9442    1.0000 </r>
       <r>    1.9503    1.0000 </r>
       <r>    1.9674    1.0000 </r>
       <r>    2.0872    1.0000 </r>
       <r>    2.1421    1.0000 </r>
       <r>    3.8126    1.0000 </r>
       <r>    3.8243    1.0000 </r>
       <r>    3.9145    1.0000 </r>
       <r>    4.6313    1.0000 </r>
       <r>    4.8415    1.0000 </r>
       <r>    5.3522    1.0000 </r>
       <r>    5.3738    1.0000 </r>
       <r>    5.7800    1.0000 </r>
       <r>    5.8390    1.0000 </r>
       <r>    6.1861    1.0000 </r>
       <r>    6.2348    1.0000 </r>
       <r>    6.2493    1.0000 </r>
       <r>    6.2808    1.0000 </r>
       <r>    6.5579    1.0000 </r>
       <r>    9.2326    0.0000 </r>
       <r>    9.3769    0.0000 </r>
       <r>    9.7264    0.0000 </r>
       <r>   13.4443    0.0000 </r>
       <r>   14.4112    0.0000 </r>
       <r>   15.6045    0.0000 </r>
       <r>   15.0269    0.0000 </r>
      </set>
      <set comment="kpoint 3">
       <r>   -0.2715    1.0000 </r>
       <r>    1.3594    1.0000 </r>
       <r>    1.9695    1.0000 </r>
       <r>    1.9939    1.0000 </r>
       <r>    2.0117    1.0000 </r>
       <r>    2.1274    1.0000 </r>
       <r>    2.1873    1.0000 </r>
       <r>    3.7804    1.0000 </r>
       <r>    3.8256    1.0000 </r>
       <r>    3.9285    1.0000 </r>
       <r>    4.5895    1.0000 </r>
       <r>    4.8436    1.0000 </r>
       <r>    5.2144    1.0000 </r>
       <r>    5.3343    1.0000 </r>
       <r>    5.6092    1.0000 </r>
       <r>    5.8390    1.0000 </r>
       <r>    6.1600    1.0000 </r>
       <r>    6.1778    1.0000 </r>
       <r>    6.2067    1.0000 </r>
       <r>    6.2793    1.0000 </r>
       <r>    6.4558    1.0000 </r>
       <r>    8.7689   -0.0010 </r>
       <r>    9.5267    0.0000 </r>
       <r>   10.0058    0.0000 </r>
       <r>   13.6207    0.0000 </r>
       <r>   14.5042    0.0000 </r>
       <r>   16.0521    0.0000 </r>
       <r>   14.5931    0.0000 </r>
      </set>
      <set comment="kpoint 4">
       <r>   -0.1081    1.0000 </r>
       <r>    1.4465    1.0000 </r>
       <r>    2.0099    1.0000 </r>
       <r>    2.0662    1.0000 </r>
       <r>    2.0852    1.0000 </r>
       <r>    2.1705    1.0000 </r>
       <r>    2.2802    1.0000 </r>
       <r>    3.7293    1.0000 </r>
       <r>    3.8239    1.0000 </r>
       <r>    3.9481    1.0000 </r>
       <r>    4.5167    1.0000 </r>
       <r>    4.8518    1.0000 </r>
       <r>    5.0083    1.0000 </r>
       <r>    5.2691    1.0000 </r>
       <r>    5.3597    1.0000 </r>
       <r>    5.8391    1.0000 </r>
       <r>    6.0953    1.0000 </r>
       <r>    6.1166    1.0000 </r>
       <r>    6.1633    1.0000 </r>
       <r>    6.2771    1.0000 </r>
       <r>    6.3217    1.0000 </r>
       <r>    8.0101    0.4981 </r>
       <r>    9.9528    0.0000 </r>
       <r>   10.4202    0.0000 </r>
       <r>   13.7426    0.0000 </r>
       <r>   14.5369    0.0000 </r>
       <r>   16.4438    0.0000 </r>
       <r>   15.3452    0.0000 </r>
      </set>
      <set comment="kpoint 5">
       <r>    0.1138    1.0000 </r>
       <r>    1.5616    1.0000 </r>
       <r>    2.0630    1.0000 </r>
       <r>    2.1663    1.0000 </r>
       <r>    2.1873    1.0000 </r>
       <r>    2.2151    1.0000 </r>
       <r>    2.4124    1.0000 </r>
       <r>    3.6631    1.0000 </r>
       <r>    3.8121    1.0000 </r>
       <r>    3.9647    1.0000 </r>
       <r>    4.4163    1.0000 </r>
       <r>    4.7663    1.0000 </r>
       <r>    4.8640    1.0000 </r>
       <r>    5.0806    1.0000 </r>
       <r>    5.1810    1.0000 </r>
       <r>    5.8392    1.0000 </r>
       <r>    6.0098    1.0000 </r>
       <r>    6.0512    1.0000 </r>
       <r>    6.1103    1.0000 </r>
       <r>    6.1780    1.0000 </r>
       <r>    6.2745    1.0000 </r>
       <r>    7.2251    1.0007 </r>
       <r>   10.4664    0.0000 </r>
       <r>   10.9293    0.0000 </r>
       <r>   13.8265    0.0000 </r>
       <r>   14.5090    0.0000 </r>
       <r>   16.3789    0.0000 </r>
       <r>   16.5204    0.0000 </r>
      </set>
      <set comment="kpoint 6">
       <r>    0.3852    1.0000 </r>
       <r>    1.6975    1.0000 </r>
       <r>    2.1247    1.0000 </r>
       <r>    2.2591    1.0000 </r>
       <r>    2.2928    1.0000 </r>
       <r>    2.3168    1.0000 </r>
       <r>    2.5707    1.0000 </r>
       <r>    3.5874    1.0000 </r>
       <r>    3.7766    1.0000 </r>
       <r>    3.9542    1.0000 </r>
       <r>    4.2982    1.0000 </r>
       <r>    4.5339    1.0000 </r>
       <r>    4.8159    1.0000 </r>
       <r>    4.8678    1.0000 </r>
       <r>    5.0820    1.0000 </r>
       <r>    5.8393    1.0000 </r>
       <r>    5.9254    1.0000 </r>
       <r>    5.9269    1.0000 </r>
       <r>    6.0375    1.0000 </r>
       <r>    6.0557    1.0000 </r>
       <r>    6.2718    1.0000 </r>
       <r>    6.5144    1.0000 </r>
       <r>   11.0392    0.0000 </r>
       <r>   11.5047    0.0000 </r>
       <r>   13.8958    0.0000 </r>
       <r>   14.4563    0.0000 </r>
       <r>   16.3372    0.0000 </r>
       <r>   16.5499    0.0000 </r>
      </set>
      <set comment="kpoint 7">
       <r>    0.6893    1.0000 </r>
       <r>    1.8437    1.0000 </r>
       <r>    2.1890    1.0000 </r>
       <r>    2.2950    1.0000 </r>
       <r>    2.4425    1.0000 </r>
       <r>    2.4714    1.0000 </r>
       <r>    2.7404    1.0000 </r>
       <r>    3.5100    1.0000 </r>
       <r>    3.6976    1.0000 </r>
       <r>    3.8639    1.0000 </r>
       <r>    4.1789    1.0000 </r>
       <r>    4.3794    1.0000 </r>
       <r>    4.6037    1.0000 </r>
       <r>    4.8237    1.0000 </r>
       <r>    5.0124    1.0000 </r>
       <r>    5.5480    1.0000 </r>
       <r>    5.8394    1.0000 </r>
       <r>    5.8482    1.0000 </r>
       <r>    5.9103    1.0000 </r>
       <r>    6.0049    1.0000 </r>
       <r>    6.1231    1.0000 </r>
       <r>    6.2694    1.0000 </r>
       <r>   11.6532    0.0000 </r>
       <r>   12.1271    0.0000 </r>
       <r>   13.9546    0.0000 </r>
       <r>   14.4109    0.0000 </r>
       <r>   15.7448    0.0000 </r>
       <r>   16.3155    0.0000 </r>
      </set>
      <set comment="kpoint 8">
       <r>    0.9941    1.0000 </r>
       <r>    1.9864    1.0000 </r>
       <r>    2.2475    1.0000 </r>
       <r>    2.3119    1.0000 </r>
       <r>    2.6091    1.0000 </r>
       <r>    2.6461    1.0000 </r>
       <r>    2.9005    1.0000 </r>
       <r>    3.4407    1.0000 </r>
       <r>    3.5645    1.0000 </r>
       <r>    3.6765    1.0000 </r>
       <r>    4.0851    1.0000 </r>
       <r>    4.3304    1.0000 </r>
       <r>    4.4680    1.0000 </r>
       <r>    4.7015    1.0000 </r>
       <r>    4.9639    1.0000 </r>
       <r>    5.0509    1.0000 </r>
       <r>    5.7858    1.0000 </r>
       <r>    5.8069    1.0000 </r>
       <r>    5.8395    1.0000 </r>
       <r>    5.9615    1.0000 </r>
       <r>    6.0132    1.0000 </r>
       <r>    6.2674    1.0000 </r>
       <r>   12.2955    0.0000 </r>
       <r>   12.7811    0.0000 </r>
       <r>   13.9931    0.0000 </r>
       <r>   14.4002    0.0000 </r>
       <r>   15.0747    0.0000 </r>
       <r>   15.6447    0.0000 </r>
      </set>
      <set comment="kpoint 9">
       <r>    1.2398    1.0000 </r>
       <r>    2.1098    1.0000 </r>
       <r>    2.2896    1.0000 </r>
       <r>    2.2976    1.0000 </r>
       <r>    2.7725    1.0000 </r>
       <r>    2.8241    1.0000 </r>
       <r>    3.0205    1.0000 </r>
       <r>    3.3916    1.0000 </r>
       <r>    3.4057    1.0000 </r>
       <r>    3.4659    1.0000 </r>
       <r>    4.0588    1.0000 </r>
       <r>    4.3284    1.0000 </r>
       <r>    4.4018    1.0000 </r>
       <r>    4.4443    1.0000 </r>
       <r>    4.7047    1.0000 </r>
       <r>    5.0173    1.0000 </r>
       <r>    5.7385    1.0000 </r>
       <r>    5.7449    1.0000 </r>
       <r>    5.8396    1.0000 </r>
       <r>    5.9299    1.0000 </r>
       <r>    5.9695    1.0000 </r>
       <r>    6.2662    1.0000 </r>
       <r>   12.9492    0.0000 </r>
       <r>   13.4457    0.0000 </r>
       <r>   14.0062    0.0000 </r>
       <r>   14.3996    0.0000 </r>
       <r>   14.4249    0.0000 </r>
       <r>   14.9600    0.0000 </r>
      </set>
      <set comment="kpoint 10">
       <r>    1.3387    1.0000 </r>
       <r>    2.1784    1.0000 </r>
       <r>    2.2671    1.0000 </r>
       <r>    2.3051    1.0000 </r>
       <r>    2.8591    1.0000 </r>
       <r>    2.9257    1.0000 </r>
       <r>    3.0662    1.0000 </r>
       <r>    3.3175    1.0000 </r>
       <r>    3.3504    1.0000 </r>
       <r>    3.3736    1.0000 </r>
       <r>    4.1226    1.0000 </r>
       <r>    4.2187    1.0000 </r>
       <r>    4.3315    1.0000 </r>
       <r>    4.3830    1.0000 </r>
       <r>    4.6466    1.0000 </r>
       <r>    5.0198    1.0000 </r>
       <r>    5.7144    1.0000 </r>
       <r>    5.7307    1.0000 </r>
       <r>    5.8396    1.0000 </r>
       <r>    5.9181    1.0000 </r>
       <r>    5.9567    1.0000 </r>
       <r>    6.2657    1.0000 </r>
       <r>   13.4471    0.0000 </r>
       <r>   13.8940    0.0000 </r>
       <r>   13.9328    0.0000 </r>
       <r>   14.0075    0.0000 </r>
       <r>   14.4434    0.0000 </r>
       <r>   14.4648    0.0000 </r>
      </set>
      <set comment="kpoint 11">
       <r>   -0.3378    1.0000 </r>
       <r>    1.3236    1.0000 </r>
       <r>    1.9513    1.0000 </r>
       <r>    1.9662    1.0000 </r>
       <r>    1.9808    1.0000 </r>
       <r>    2.1067    1.0000 </r>
       <r>    2.1528    1.0000 </r>
       <r>    3.7901    1.0000 </r>
       <r>    3.8369    1.0000 </r>
       <r>    3.9190    1.0000 </r>
       <r>    4.6191    1.0000 </r>
       <r>    4.8406    1.0000 </r>
       <r>    5.2913    1.0000 </r>
       <r>    5.3738    1.0000 </r>
       <r>    5.7464    1.0000 </r>
       <r>    5.8112    1.0000 </r>
       <r>    6.1771    1.0000 </r>
       <r>    6.2254    1.0000 </r>
       <r>    6.2314    1.0000 </r>
[...]
       <r>    4.2953    1.0000 </r>
       <r>    5.1668    1.0000 </r>
       <r>    5.2029    1.0000 </r>
       <r>    5.3554    1.0000 </r>
       <r>    5.9273    1.0000 </r>
       <r>    5.9954    1.0000 </r>
       <r>    6.0894    1.0000 </r>
       <r>    6.1735    1.0000 </r>
       <r>    6.2388    1.0000 </r>
       <r>    7.1845    1.0004 </r>
       <r>    7.2830    1.0016 </r>
       <r>    7.6818    1.0322 </r>
       <r>    7.7578    0.9994 </r>
       <r>   10.5550    0.0000 </r>
       <r>   11.7423    0.0000 </r>
       <r>   12.4174    0.0000 </r>
       <r>   12.4968    0.0000 </r>
      </set>
      <set comment="kpoint 493">
       <r>    1.4439    1.0000 </r>
       <r>    1.5510    1.0000 </r>
       <r>    1.8896    1.0000 </r>
       <r>    1.9325    1.0000 </r>
       <r>    3.1154    1.0000 </r>
       <r>    3.1540    1.0000 </r>
       <r>    3.3525    1.0000 </r>
       <r>    3.7221    1.0000 </r>
       <r>    3.8019    1.0000 </r>
       <r>    4.0207    1.0000 </r>
       <r>    4.1331    1.0000 </r>
       <r>    4.2798    1.0000 </r>
       <r>    5.2455    1.0000 </r>
       <r>    5.3200    1.0000 </r>
       <r>    5.4259    1.0000 </r>
       <r>    6.0115    1.0000 </r>
       <r>    6.1023    1.0000 </r>
       <r>    6.1533    1.0000 </r>
       <r>    6.1749    1.0000 </r>
       <r>    6.2623    1.0000 </r>
       <r>    6.9676    1.0000 </r>
       <r>    7.4933    1.0177 </r>
       <r>    7.6655    1.0344 </r>
       <r>    7.7560    1.0007 </r>
       <r>   10.2402    0.0000 </r>
       <r>   11.5965    0.0000 </r>
       <r>   12.0718    0.0000 </r>
       <r>   12.4359    0.0000 </r>
      </set>
      <set comment="kpoint 494">
       <r>    1.4266    1.0000 </r>
       <r>    1.5386    1.0000 </r>
       <r>    1.8938    1.0000 </r>
       <r>    1.8976    1.0000 </r>
       <r>    3.1217    1.0000 </r>
       <r>    3.1351    1.0000 </r>
       <r>    3.3545    1.0000 </r>
       <r>    3.7669    1.0000 </r>
       <r>    3.7745    1.0000 </r>
       <r>    4.0256    1.0000 </r>
       <r>    4.1437    1.0000 </r>
       <r>    4.2759    1.0000 </r>
       <r>    5.3314    1.0000 </r>
       <r>    5.3541    1.0000 </r>
       <r>    5.4468    1.0000 </r>
       <r>    6.0861    1.0000 </r>
       <r>    6.1135    1.0000 </r>
       <r>    6.1375    1.0000 </r>
       <r>    6.2008    1.0000 </r>
       <r>    6.2685    1.0000 </r>
       <r>    7.2933    1.0019 </r>
       <r>    7.3383    1.0035 </r>
       <r>    7.6092    1.0339 </r>
       <r>    7.6101    1.0340 </r>
       <r>   10.1526    0.0000 </r>
       <r>   11.4814    0.0000 </r>
       <r>   12.1524    0.0000 </r>
       <r>   12.1746    0.0000 </r>
      </set>
      <set comment="kpoint 495">
       <r>    1.4085    1.0000 </r>
       <r>    1.5262    1.0000 </r>
       <r>    1.8801    1.0000 </r>
       <r>    1.8801    1.0000 </r>
       <r>    3.1220    1.0000 </r>
       <r>    3.1220    1.0000 </r>
       <r>    3.3565    1.0000 </r>
       <r>    3.7801    1.0000 </r>
       <r>    3.7801    1.0000 </r>
       <r>    4.0286    1.0000 </r>
       <r>    4.1561    1.0000 </r>
       <r>    4.2708    1.0000 </r>
       <r>    5.3912    1.0000 </r>
       <r>    5.3912    1.0000 </r>
       <r>    5.4976    1.0000 </r>
       <r>    6.1549    1.0000 </r>
       <r>    6.1579    1.0000 </r>
       <r>    6.1579    1.0000 </r>
       <r>    6.1946    1.0000 </r>
       <r>    6.2783    1.0000 </r>
       <r>    7.4057    1.0077 </r>
       <r>    7.4057    1.0077 </r>
       <r>    7.5051    1.0194 </r>
       <r>    7.5125    1.0205 </r>
       <r>   10.0118    0.0000 </r>
       <r>   11.3920    0.0000 </r>
       <r>   12.0621    0.0000 </r>
       <r>   12.0621    0.0000 </r>
      </set>
     </set>
    </set>
   </array>
  </eigenvalues>
  <separator name="orbital magnetization" >
   <v name="MAGDIPOLOUT">      0.00000000      0.00000000      0.00000000</v>
  </separator>
  <dos>
   <i name="efermi">      8.00947260 </i>
   <total>
    <array>
     <dimension dim="1">gridpoints</dimension>
     <dimension dim="2">spin</dimension>
     <field>energy</field>
     <field>total</field>
     <field>integrated</field>
     <set>
      <set comment="spin 1">
       <r>    -3.4047     0.0000     0.0000 </r>
       <r>    -3.3261     0.0000     0.0000 </r>
       <r>    -3.2476     0.0000     0.0000 </r>
       <r>    -3.1691     0.0000     0.0000 </r>
       <r>    -3.0906     0.0000     0.0000 </r>
       <r>    -3.0120     0.0000     0.0000 </r>
       <r>    -2.9335     0.0000     0.0000 </r>
       <r>    -2.8550     0.0000     0.0000 </r>
       <r>    -2.7765     0.0000     0.0000 </r>
       <r>    -2.6979     0.0000     0.0000 </r>
       <r>    -2.6194     0.0000     0.0000 </r>
       <r>    -2.5409     0.0000     0.0000 </r>
       <r>    -2.4623     0.0000     0.0000 </r>
       <r>    -2.3838     0.0000     0.0000 </r>
       <r>    -2.3053     0.0000     0.0000 </r>
       <r>    -2.2268     0.0000     0.0000 </r>
       <r>    -2.1482     0.0000     0.0000 </r>
       <r>    -2.0697     0.0000     0.0000 </r>
       <r>    -1.9912     0.0000     0.0000 </r>
       <r>    -1.9127     0.0000     0.0000 </r>
       <r>    -1.8341     0.0000     0.0000 </r>
       <r>    -1.7556     0.0000     0.0000 </r>
       <r>    -1.6771     0.0000     0.0000 </r>
       <r>    -1.5985     0.0000     0.0000 </r>
       <r>    -1.5200     0.0000     0.0000 </r>
       <r>    -1.4415     0.0000     0.0000 </r>
       <r>    -1.3630     0.0000     0.0000 </r>
       <r>    -1.2844     0.0000     0.0000 </r>
       <r>    -1.2059     0.0000     0.0000 </r>
       <r>    -1.1274    -0.0001     0.0000 </r>
       <r>    -1.0489    -0.0003     0.0000 </r>
       <r>    -0.9703    -0.0007    -0.0001 </r>
       <r>    -0.8918    -0.0016    -0.0002 </r>
       <r>    -0.8133    -0.0032    -0.0005 </r>
       <r>    -0.7348    -0.0050    -0.0009 </r>
       <r>    -0.6562    -0.0055    -0.0013 </r>
       <r>    -0.5777    -0.0020    -0.0014 </r>
       <r>    -0.4992     0.0090    -0.0007 </r>
       <r>    -0.4206     0.0301     0.0016 </r>
       <r>    -0.3421     0.0615     0.0065 </r>
       <r>    -0.2636     0.1001     0.0143 </r>
       <r>    -0.1851     0.1411     0.0254 </r>
       <r>    -0.1065     0.1802     0.0395 </r>
       <r>    -0.0280     0.2151     0.0564 </r>
       <r>     0.0505     0.2459     0.0757 </r>
       <r>     0.1290     0.2736     0.0972 </r>
       <r>     0.2076     0.2996     0.1208 </r>
       <r>     0.2861     0.3251     0.1463 </r>
       <r>     0.3646     0.3509     0.1738 </r>
       <r>     0.4432     0.3773     0.2035 </r>
       <r>     0.5217     0.4044     0.2352 </r>
       <r>     0.6002     0.4322     0.2692 </r>
       <r>     0.6787     0.4609     0.3054 </r>
       <r>     0.7573     0.4905     0.3439 </r>
       <r>     0.8358     0.5203     0.3847 </r>
       <r>     0.9143     0.5499     0.4279 </r>
       <r>     0.9928     0.5821     0.4736 </r>
       <r>     1.0714     0.6268     0.5229 </r>
       <r>     1.1499     0.7038     0.5781 </r>
       <r>     1.2284     0.8432     0.6443 </r>
       <r>     1.3069     1.0786     0.7290 </r>
       <r>     1.3855     1.4303     0.8414 </r>
       <r>     1.4640     1.8838     0.9893 </r>
       <r>     1.5425     2.3807     1.1762 </r>
       <r>     1.6211     2.8445     1.3996 </r>
       <r>     1.6996     3.2360     1.6537 </r>
       <r>     1.7781     3.6031     1.9367 </r>
       <r>     1.8566     4.0719     2.2564 </r>
       <r>     1.9352     4.7754     2.6314 </r>
       <r>     2.0137     5.7689     3.0844 </r>
       <r>     2.0922     6.9942     3.6337 </r>
       <r>     2.1707     8.3056     4.2859 </r>
       <r>     2.2493     9.5198     5.0334 </r>
       <r>     2.3278    10.4559     5.8545 </r>
       <r>     2.4063    10.9629     6.7154 </r>
       <r>     2.4849    10.9505     7.5753 </r>
       <r>     2.5634    10.4247     8.3939 </r>
       <r>     2.6419     9.5148     9.1411 </r>
       <r>     2.7204     8.4690     9.8061 </r>
       <r>     2.7990     7.5943    10.4025 </r>
       <r>     2.8775     7.1416    10.9633 </r>
       <r>     2.9560     7.1901    11.5279 </r>
       <r>     3.0345     7.6160    12.1260 </r>
       <r>     3.1131     8.1815    12.7684 </r>
       <r>     3.1916     8.6764    13.4498 </r>
       <r>     3.2701     8.9962    14.1562 </r>
       <r>     3.3486     9.1215    14.8725 </r>
       <r>     3.4272     9.0672    15.5845 </r>
       <r>     3.5057     8.8814    16.2819 </r>
       <r>     3.5842     8.6760    16.9632 </r>
       <r>     3.6628     8.6135    17.6396 </r>
       <r>     3.7413     8.8167    18.3320 </r>
       <r>     3.8198     9.2705    19.0600 </r>
       <r>     3.8983     9.8179    19.8309 </r>
       <r>     3.9769    10.2705    20.6374 </r>
       <r>     4.0554    10.5414    21.4652 </r>
       <r>     4.1339    10.6767    22.3036 </r>
       <r>     4.2124    10.7683    23.1492 </r>
       <r>     4.2910    10.8470    24.0010 </r>
       <r>     4.3695    10.8540    24.8534 </r>
       <r>     4.4480    10.6898    25.6928 </r>
       <r>     4.5266    10.2656    26.4989 </r>
       <r>     4.6051     9.5312    27.2474 </r>
       <r>     4.6836     8.4980    27.9147 </r>
       <r>     4.7621     7.2696    28.4855 </r>
       <r>     4.8407     6.0451    28.9602 </r>
       <r>     4.9192     5.0695    29.3583 </r>
       <r>     4.9977     4.5513    29.7157 </r>
       <r>     5.0762     4.5809    30.0755 </r>
       <r>     5.1548     5.0767    30.4741 </r>
       <r>     5.2333     5.7783    30.9279 </r>
       <r>     5.3118     6.3148    31.4238 </r>
       <r>     5.3903     6.3597    31.9232 </r>
       <r>     5.4689     5.8320    32.3811 </r>
       <r>     5.5474     5.0422    32.7771 </r>
       <r>     5.6259     4.6545    33.1426 </r>
       <r>     5.7045     5.3973    33.5664 </r>
       <r>     5.7830     7.6163    34.1645 </r>
       <r>     5.8615    10.9412    35.0237 </r>
       <r>     5.9400    14.3427    36.1500 </r>
       <r>     6.0186    16.6012    37.4536 </r>
       <r>     6.0971    16.8998    38.7807 </r>
       <r>     6.1756    15.1715    39.9721 </r>
       <r>     6.2541    12.0421    40.9177 </r>
       <r>     6.3327     8.4720    41.5830 </r>
       <r>     6.4112     5.3294    42.0015 </r>
       <r>     6.4897     3.0965    42.2447 </r>
       <r>     6.5683     1.8160    42.3873 </r>
       <r>     6.6468     1.2426    42.4848 </r>
       <r>     6.7253     1.0626    42.5683 </r>
       <r>     6.8038     1.0420    42.6501 </r>
       <r>     6.8824     1.0615    42.7335 </r>
       <r>     6.9609     1.0818    42.8184 </r>
       <r>     7.0394     1.0989    42.9047 </r>
       <r>     7.1179     1.1184    42.9925 </r>
       <r>     7.1965     1.1424    43.0822 </r>
       <r>     7.2750     1.1645    43.1737 </r>
       <r>     7.3535     1.1732    43.2658 </r>
       <r>     7.4321     1.1635    43.3572 </r>
       <r>     7.5106     1.1439    43.4470 </r>
       <r>     7.5891     1.1284    43.5356 </r>
       <r>     7.6676     1.1223    43.6238 </r>
       <r>     7.7462     1.1189    43.7116 </r>
       <r>     7.8247     1.1099    43.7988 </r>
       <r>     7.9032     1.0957    43.8848 </r>
       <r>     7.9817     1.0846    43.9700 </r>
       <r>     8.0603     1.0838    44.0551 </r>
       <r>     8.1388     1.0949    44.1411 </r>
       <r>     8.2173     1.1135    44.2285 </r>
       <r>     8.2958     1.1311    44.3173 </r>
       <r>     8.3744     1.1379    44.4067 </r>
       <r>     8.4529     1.1271    44.4952 </r>
       <r>     8.5314     1.1009    44.5817 </r>
       <r>     8.6100     1.0717    44.6658 </r>
       <r>     8.6885     1.0563    44.7488 </r>
       <r>     8.7670     1.0648    44.8324 </r>
       <r>     8.8455     1.0914    44.9181 </r>
       <r>     8.9241     1.1164    45.0057 </r>
       <r>     9.0026     1.1190    45.0936 </r>
       <r>     9.0811     1.0933    45.1795 </r>
       <r>     9.1596     1.0540    45.2622 </r>
       <r>     9.2382     1.0259    45.3428 </r>
       <r>     9.3167     1.0257    45.4233 </r>
       <r>     9.3952     1.0509    45.5059 </r>
       <r>     9.4738     1.0828    45.5909 </r>
       <r>     9.5523     1.1000    45.6773 </r>
       <r>     9.6308     1.0901    45.7629 </r>
       <r>     9.7093     1.0561    45.8458 </r>
       <r>     9.7879     1.0142    45.9255 </r>
       <r>     9.8664     0.9847    46.0028 </r>
       <r>     9.9449     0.9802    46.0797 </r>
       <r>    10.0234     0.9984    46.1582 </r>
       <r>    10.1020     1.0220    46.2384 </r>
       <r>    10.1805     1.0296    46.3193 </r>
       <r>    10.2590     1.0104    46.3986 </r>
       <r>    10.3375     0.9727    46.4750 </r>
       <r>    10.4161     0.9370    46.5486 </r>
       <r>    10.4946     0.9224    46.6210 </r>
       <r>    10.5731     0.9331    46.6943 </r>
       <r>    10.6517     0.9582    46.7695 </r>
       <r>    10.7302     0.9800    46.8465 </r>
       <r>    10.8087     0.9863    46.9239 </r>
       <r>    10.8872     0.9773    47.0007 </r>
       <r>    10.9658     0.9627    47.0763 </r>
       <r>    11.0443     0.9542    47.1512 </r>
       <r>    11.1228     0.9577    47.2264 </r>
       <r>    11.2013     0.9715    47.3027 </r>
       <r>    11.2799     0.9911    47.3805 </r>
       <r>    11.3584     1.0135    47.4601 </r>
       <r>    11.4369     1.0374    47.5416 </r>
       <r>    11.5155     1.0607    47.6249 </r>
       <r>    11.5940     1.0801    47.7097 </r>
       <r>    11.6725     1.0956    47.7957 </r>
       <r>    11.7510     1.1115    47.8830 </r>
       <r>    11.8296     1.1334    47.9720 </r>
       <r>    11.9081     1.1627    48.0633 </r>
       <r>    11.9866     1.1968    48.1573 </r>
       <r>    12.0651     1.2302    48.2539 </r>
       <r>    12.1437     1.2567    48.3526 </r>
       <r>    12.2222     1.2713    48.4524 </r>
       <r>    12.3007     1.2726    48.5523 </r>
       <r>    12.3792     1.2635    48.6516 </r>
       <r>    12.4578     1.2482    48.7496 </r>
       <r>    12.5363     1.2297    48.8461 </r>
       <r>    12.6148     1.2107    48.9412 </r>
       <r>    12.6934     1.1969    49.0352 </r>
       <r>    12.7719     1.1948    49.1290 </r>
       <r>    12.8504     1.2043    49.2236 </r>
       <r>    12.9289     1.2143    49.3189 </r>
       <r>    13.0075     1.2095    49.4139 </r>
       <r>    13.0860     1.1837    49.5069 </r>
       <r>    13.1645     1.1473    49.5970 </r>
       <r>    13.2430     1.1201    49.6849 </r>
       <r>    13.3216     1.1171    49.7727 </r>
       <r>    13.4001     1.1388    49.8621 </r>
       <r>    13.4786     1.1748    49.9543 </r>
       <r>    13.5572     1.2162    50.0498 </r>
       <r>    13.6357     1.2669    50.1493 </r>
       <r>    13.7142     1.3403    50.2546 </r>
       <r>    13.7927     1.4434    50.3679 </r>
       <r>    13.8713     1.5625    50.4906 </r>
       <r>    13.9498     1.6650    50.6214 </r>
       <r>    14.0283     1.7204    50.7565 </r>
       <r>    14.1068     1.7215    50.8916 </r>
       <r>    14.1854     1.6870    51.0241 </r>
       <r>    14.2639     1.6444    51.1532 </r>
       <r>    14.3424     1.6112    51.2798 </r>
       <r>    14.4209     1.5869    51.4044 </r>
       <r>    14.4995     1.5602    51.5269 </r>
       <r>    14.5780     1.5237    51.6466 </r>
       <r>    14.6565     1.4830    51.7630 </r>
       <r>    14.7351     1.4562    51.8774 </r>
       <r>    14.8136     1.4638    51.9923 </r>
       <r>    14.8921     1.5185    52.1115 </r>
       <r>    14.9706     1.6170    52.2385 </r>
       <r>    15.0492     1.7378    52.3750 </r>
       <r>    15.1277     1.8480    52.5201 </r>
       <r>    15.2062     1.9174    52.6707 </r>
       <r>    15.2847     1.9330    52.8225 </r>
       <r>    15.3633     1.9039    52.9720 </r>
       <r>    15.4418     1.8533    53.1175 </r>
       <r>    15.5203     1.8073    53.2594 </r>
       <r>    15.5989     1.7858    53.3997 </r>
       <r>    15.6774     1.8009    53.5411 </r>
       <r>    15.7559     1.8558    53.6868 </r>
       <r>    15.8344     1.9447    53.8395 </r>
       <r>    15.9130     2.0554    54.0009 </r>
       <r>    15.9915     2.1791    54.1720 </r>
       <r>    16.0700     2.3228    54.3544 </r>
       <r>    16.1485     2.5085    54.5514 </r>
       <r>    16.2271     2.7462    54.7671 </r>
       <r>    16.3056     2.9939    55.0022 </r>
       <r>    16.3841     3.1414    55.2489 </r>
       <r>    16.4626     3.0547    55.4887 </r>
       <r>    16.5412     2.6629    55.6978 </r>
       <r>    16.6197     2.0203    55.8565 </r>
       <r>    16.6982     1.2879    55.9576 </r>
       <r>    16.7768     0.6459    56.0083 </r>
       <r>    16.8553     0.2052    56.0245 </r>
       <r>    16.9338    -0.0227    56.0227 </r>
       <r>    17.0123    -0.0954    56.0152 </r>
       <r>    17.0909    -0.0881    56.0083 </r>
       <r>    17.1694    -0.0567    56.0038 </r>
       <r>    17.2479    -0.0292    56.0015 </r>
       <r>    17.3264    -0.0125    56.0005 </r>
       <r>    17.4050    -0.0046    56.0002 </r>
       <r>    17.4835    -0.0015    56.0001 </r>
       <r>    17.5620    -0.0005    56.0000 </r>
       <r>    17.6406    -0.0002    56.0000 </r>
       <r>    17.7191    -0.0001    56.0000 </r>
       <r>    17.7976     0.0000    56.0000 </r>
       <r>    17.8761     0.0000    56.0000 </r>
       <r>    17.9547     0.0000    56.0000 </r>
       <r>    18.0332     0.0000    56.0000 </r>
       <r>    18.1117     0.0000    56.0000 </r>
       <r>    18.1902     0.0000    56.0000 </r>
       <r>    18.2688     0.0000    56.0000 </r>
       <r>    18.3473     0.0000    56.0000 </r>
       <r>    18.4258     0.0000    56.0000 </r>
       <r>    18.5044     0.0000    56.0000 </r>
       <r>    18.5829     0.0000    56.0000 </r>
       <r>    18.6614     0.0000    56.0000 </r>
       <r>    18.7399     0.0000    56.0000 </r>
       <r>    18.8185     0.0000    56.0000 </r>
       <r>    18.8970     0.0000    56.0000 </r>
       <r>    18.9755     0.0000    56.0000 </r>
       <r>    19.0540     0.0000    56.0000 </r>
       <r>    19.1326     0.0000    56.0000 </r>
       <r>    19.2111     0.0000    56.0000 </r>
       <r>    19.2896     0.0000    56.0000 </r>
       <r>    19.3681     0.0000    56.0000 </r>
       <r>    19.4467     0.0000    56.0000 </r>
       <r>    19.5252     0.0000    56.0000 </r>
       <r>    19.6037     0.0000    56.0000 </r>
       <r>    19.6823     0.0000    56.0000 </r>
       <r>    19.7608     0.0000    56.0000 </r>
       <r>    19.8393     0.0000    56.0000 </r>
       <r>    19.9178     0.0000    56.0000 </r>
       <r>    19.9964     0.0000    56.0000 </r>
       <r>    20.0749     0.0000    56.0000 </r>
       <r>    20.1534     0.0000    56.0000 </r>
      </set>
     </set>
    </array>
   </total>
  </dos>
 </calculation>
 <structure name="finalpos" >
  <crystal>
   <varray name="basis" >
    <v>       0.00000000       3.99548027       0.00000000 </v>
    <v>       0.00000000       0.00000000       3.99548027 </v>
    <v>       4.11647450       0.00000000       0.00000000 </v>
   </varray>
   <i name="volume">     65.71483312 </i>
   <varray name="rec_basis" >
    <v>       0.00000000       0.25028280       0.00000000 </v>
    <v>       0.00000000       0.00000000       0.25028280 </v>
    <v>       0.24292632       0.00000000       0.00000000 </v>
   </varray>
  </crystal>
  <varray name="positions" >
   <v>       0.50000000       0.50000000       0.00000000 </v>
   <v>       0.00000000       0.50000000       0.50000000 </v>
   <v>       0.50000000       0.00000000       0.50000000 </v>
   <v>       0.00000000       0.00000000       0.00000000 </v>
  </varray>
 </structure>
</modeling>
