<?xml version="1.0" encoding="ISO-8859-1"?>
<modeling>
 <generator>
  <i name="program" type="string">vasp </i>
  <i name="version" type="string">5.3.5  </i>
  <i name="subversion" type="string">31Mar14 (build Jun 20 2014 13:15:13) complex                          parallel </i>
  <i name="platform" type="string">LinuxIFC </i>
  <i name="date" type="string">2025 11 21 </i>
  <i name="time" type="string">10:48:47 </i>
 </generator>
 <incar>
  <i type="string" name="PREC">accurate</i>
  <i type="int" name="IALGO">    68</i>
  <i type="logical" name="ADDGRID"> T  </i>
  <i type="int" name="NELM">   100</i>
  <i type="int" name="NELMIN">     4</i>
  <i type="int" name="IBRION">     2</i>
  <i name="EDIFF">      0.00000100</i>
  <i name="EDIFFG">     -0.02000000</i>
  <i type="int" name="NSW">    30</i>
  <i type="int" name="ISIF">     3</i>
  <i name="ENCUT">    500.00000000</i>
  <i type="logical" name="LREAL"> F  </i>
  <i type="int" name="ISMEAR">     1</i>
  <i name="SIGMA">      0.30000000</i>
  <i type="logical" name="LWAVE"> F  </i>
  <i type="logical" name="LCHARG"> F  </i>
  <i type="int" name="NELM">   100</i>
 </incar>
 <kpoints>
  <generation param="Auto">
   <i name="subdivisionlength">     70.00000000 </i>
   <v type="int" name="divisions">      25       19       16 </v>
   <v name="usershift">      0.00000000       0.00000000       0.00000000 </v>
   <v name="genvec1">      0.04000000       0.00000000       0.00000000 </v>
   <v name="genvec2">      0.00000000       0.05263158       0.00000000 </v>
   <v name="genvec3">      0.00000000       0.00000000       0.06250000 </v>
   <v name="shift">      0.00000000       0.00000000       0.00000000 </v>
  </generation>
  <varray name="kpointlist" >
   <v>       0.00000000       0.00000000       0.00000000 </v>
   <v>       0.04000000       0.00000000       0.00000000 </v>
   <v>       0.08000000       0.00000000       0.00000000 </v>
   <v>       0.12000000       0.00000000       0.00000000 </v>
   <v>       0.16000000       0.00000000       0.00000000 </v>
   <v>       0.20000000       0.00000000       0.00000000 </v>
   <v>       0.24000000       0.00000000       0.00000000 </v>
   <v>       0.28000000       0.00000000       0.00000000 </v>
   <v>       0.32000000       0.00000000       0.00000000 </v>
   <v>       0.36000000       0.00000000       0.00000000 </v>
   <v>       0.40000000       0.00000000       0.00000000 </v>
   <v>       0.44000000       0.00000000       0.00000000 </v>
   <v>       0.48000000       0.00000000       0.00000000 </v>
   <v>       0.00000000       0.05263158       0.00000000 </v>
   <v>       0.04000000       0.05263158       0.00000000 </v>
   <v>       0.08000000       0.05263158       0.00000000 </v>
   <v>       0.12000000       0.05263158       0.00000000 </v>
   <v>       0.16000000       0.05263158       0.00000000 </v>
   <v>       0.20000000       0.05263158       0.00000000 </v>
   <v>       0.24000000       0.05263158       0.00000000 </v>
   <v>       0.28000000       0.05263158       0.00000000 </v>
   <v>       0.32000000       0.05263158       0.00000000 </v>
   <v>       0.36000000       0.05263158       0.00000000 </v>
   <v>       0.40000000       0.05263158       0.00000000 </v>
   <v>       0.44000000       0.05263158       0.00000000 </v>
   <v>       0.48000000       0.05263158       0.00000000 </v>
   <v>      -0.48000000       0.05263158       0.00000000 </v>
   <v>      -0.44000000       0.05263158       0.00000000 </v>
   <v>      -0.40000000       0.05263158       0.00000000 </v>
   <v>      -0.36000000       0.05263158       0.00000000 </v>
   <v>      -0.32000000       0.05263158       0.00000000 </v>
   <v>      -0.28000000       0.05263158       0.00000000 </v>
   <v>      -0.24000000       0.05263158       0.00000000 </v>
   <v>      -0.20000000       0.05263158       0.00000000 </v>
   <v>      -0.16000000       0.05263158       0.00000000 </v>
   <v>      -0.12000000       0.05263158       0.00000000 </v>
   <v>      -0.08000000       0.05263158       0.00000000 </v>
   <v>      -0.04000000       0.05263158       0.00000000 </v>
   <v>       0.00000000       0.10526316       0.00000000 </v>
   <v>       0.04000000       0.10526316       0.00000000 </v>
   <v>       0.08000000       0.10526316       0.00000000 </v>
   <v>       0.12000000       0.10526316       0.00000000 </v>
   <v>       0.16000000       0.10526316       0.00000000 </v>
   <v>       0.20000000       0.10526316       0.00000000 </v>
   <v>       0.24000000       0.10526316       0.00000000 </v>
   <v>       0.28000000       0.10526316       0.00000000 </v>
   <v>       0.32000000       0.10526316       0.00000000 </v>
   <v>       0.36000000       0.10526316       0.00000000 </v>
   <v>       0.40000000       0.10526316       0.00000000 </v>
   <v>       0.44000000       0.10526316       0.00000000 </v>
   <v>       0.48000000       0.10526316       0.00000000 </v>
   <v>      -0.48000000       0.10526316       0.00000000 </v>
   <v>      -0.44000000       0.10526316       0.00000000 </v>
   <v>      -0.40000000       0.10526316       0.00000000 </v>
   <v>      -0.36000000       0.10526316       0.00000000 </v>
   <v>      -0.32000000       0.10526316       0.00000000 </v>
   <v>      -0.28000000       0.10526316       0.00000000 </v>
   <v>      -0.24000000       0.10526316       0.00000000 </v>
   <v>      -0.20000000       0.10526316       0.00000000 </v>
   <v>      -0.16000000       0.10526316       0.00000000 </v>
   <v>      -0.12000000       0.10526316       0.00000000 </v>
   <v>      -0.08000000       0.10526316       0.00000000 </v>
   <v>      -0.04000000       0.10526316       0.00000000 </v>
   <v>       0.00000000       0.15789474       0.00000000 </v>
   <v>       0.04000000       0.15789474       0.00000000 </v>
   <v>       0.08000000       0.15789474       0.00000000 </v>
   <v>       0.12000000       0.15789474       0.00000000 </v>
   <v>       0.16000000       0.15789474       0.00000000 </v>
   <v>       0.20000000       0.15789474       0.00000000 </v>
   <v>       0.24000000       0.15789474       0.00000000 </v>
   <v>       0.28000000       0.15789474       0.00000000 </v>
   <v>       0.32000000       0.15789474       0.00000000 </v>
   <v>       0.36000000       0.15789474       0.00000000 </v>
   <v>       0.40000000       0.15789474       0.00000000 </v>
   <v>       0.44000000       0.15789474       0.00000000 </v>
   <v>       0.48000000       0.15789474       0.00000000 </v>
   <v>      -0.48000000       0.15789474       0.00000000 </v>
   <v>      -0.44000000       0.15789474       0.00000000 </v>
   <v>      -0.40000000       0.15789474       0.00000000 </v>
   <v>      -0.36000000       0.15789474       0.00000000 </v>
   <v>      -0.32000000       0.15789474       0.00000000 </v>
   <v>      -0.28000000       0.15789474       0.00000000 </v>
   <v>      -0.24000000       0.15789474       0.00000000 </v>
   <v>      -0.20000000       0.15789474       0.00000000 </v>
   <v>      -0.16000000       0.15789474       0.00000000 </v>
   <v>      -0.12000000       0.15789474       0.00000000 </v>
   <v>      -0.08000000       0.15789474       0.00000000 </v>
   <v>      -0.04000000       0.15789474       0.00000000 </v>
   <v>       0.00000000       0.21052632       0.00000000 </v>
   <v>       0.04000000       0.21052632       0.00000000 </v>
   <v>       0.08000000       0.21052632       0.00000000 </v>
   <v>       0.12000000       0.21052632       0.00000000 </v>
   <v>       0.16000000       0.21052632       0.00000000 </v>
   <v>       0.20000000       0.21052632       0.00000000 </v>
   <v>       0.24000000       0.21052632       0.00000000 </v>
   <v>       0.28000000       0.21052632       0.00000000 </v>
   <v>       0.32000000       0.21052632       0.00000000 </v>
   <v>       0.36000000       0.21052632       0.00000000 </v>
   <v>       0.40000000       0.21052632       0.00000000 </v>
   <v>       0.44000000       0.21052632       0.00000000 </v>
   <v>       0.48000000       0.21052632       0.00000000 </v>
   <v>      -0.48000000       0.21052632       0.00000000 </v>
   <v>      -0.44000000       0.21052632       0.00000000 </v>
   <v>      -0.40000000       0.21052632       0.00000000 </v>
   <v>      -0.36000000       0.21052632       0.00000000 </v>
   <v>      -0.32000000       0.21052632       0.00000000 </v>
   <v>      -0.28000000       0.21052632       0.00000000 </v>
   <v>      -0.24000000       0.21052632       0.00000000 </v>
   <v>      -0.20000000       0.21052632       0.00000000 </v>
   <v>      -0.16000000       0.21052632       0.00000000 </v>
   <v>      -0.12000000       0.21052632       0.00000000 </v>
   <v>      -0.08000000       0.21052632       0.00000000 </v>
   <v>      -0.04000000       0.21052632       0.00000000 </v>
   <v>       0.00000000       0.26315789       0.00000000 </v>
   <v>       0.04000000       0.26315789       0.00000000 </v>
   <v>       0.08000000       0.26315789       0.00000000 </v>
   <v>       0.12000000       0.26315789       0.00000000 </v>
   <v>       0.16000000       0.26315789       0.00000000 </v>
   <v>       0.20000000       0.26315789       0.00000000 </v>
   <v>       0.24000000       0.26315789       0.00000000 </v>
   <v>       0.28000000       0.26315789       0.00000000 </v>
   <v>       0.32000000       0.26315789       0.00000000 </v>
   <v>       0.36000000       0.26315789       0.00000000 </v>
   <v>       0.40000000       0.26315789       0.00000000 </v>
   <v>       0.44000000       0.26315789       0.00000000 </v>
   <v>       0.48000000       0.26315789       0.00000000 </v>
   <v>      -0.48000000       0.26315789       0.00000000 </v>
   <v>      -0.44000000       0.26315789       0.00000000 </v>
   <v>      -0.40000000       0.26315789       0.00000000 </v>
   <v>      -0.36000000       0.26315789       0.00000000 </v>
   <v>      -0.32000000       0.26315789       0.00000000 </v>
   <v>      -0.28000000       0.26315789       0.00000000 </v>
   <v>      -0.24000000       0.26315789       0.00000000 </v>
   <v>      -0.20000000       0.26315789       0.00000000 </v>
   <v>      -0.16000000       0.26315789       0.00000000 </v>
   <v>      -0.12000000       0.26315789       0.00000000 </v>
   <v>      -0.08000000       0.26315789       0.00000000 </v>
   <v>      -0.04000000       0.26315789       0.00000000 </v>
   <v>       0.00000000       0.31578947       0.00000000 </v>
   <v>       0.04000000       0.31578947       0.00000000 </v>
   <v>       0.08000000       0.31578947       0.00000000 </v>
   <v>       0.12000000       0.31578947       0.00000000 </v>
   <v>       0.16000000       0.31578947       0.00000000 </v>
   <v>       0.20000000       0.31578947       0.00000000 </v>
   <v>       0.24000000       0.31578947       0.00000000 </v>
   <v>       0.28000000       0.31578947       0.00000000 </v>
   <v>       0.32000000       0.31578947       0.00000000 </v>
   <v>       0.36000000       0.31578947       0.00000000 </v>
   <v>       0.40000000       0.31578947       0.00000000 </v>
   <v>       0.44000000       0.31578947       0.00000000 </v>
   <v>       0.48000000       0.31578947       0.00000000 </v>
   <v>      -0.48000000       0.31578947       0.00000000 </v>
   <v>      -0.44000000       0.31578947       0.00000000 </v>
   <v>      -0.40000000       0.31578947       0.00000000 </v>
   <v>      -0.36000000       0.31578947       0.00000000 </v>
   <v>      -0.32000000       0.31578947       0.00000000 </v>
   <v>      -0.28000000       0.31578947       0.00000000 </v>
   <v>      -0.24000000       0.31578947       0.00000000 </v>
   <v>      -0.20000000       0.31578947       0.00000000 </v>
   <v>      -0.16000000       0.31578947       0.00000000 </v>
   <v>      -0.12000000       0.31578947       0.00000000 </v>
   <v>      -0.08000000       0.31578947       0.00000000 </v>
   <v>      -0.04000000       0.31578947       0.00000000 </v>
   <v>       0.00000000       0.36842105       0.00000000 </v>
   <v>       0.04000000       0.36842105       0.00000000 </v>
   <v>       0.08000000       0.36842105       0.00000000 </v>
   <v>       0.12000000       0.36842105       0.00000000 </v>
   <v>       0.16000000       0.36842105       0.00000000 </v>
   <v>       0.20000000       0.36842105       0.00000000 </v>
   <v>       0.24000000       0.36842105       0.00000000 </v>
   <v>       0.28000000       0.36842105       0.00000000 </v>
   <v>       0.32000000       0.36842105       0.00000000 </v>
   <v>       0.36000000       0.36842105       0.00000000 </v>
   <v>       0.40000000       0.36842105       0.00000000 </v>
   <v>       0.44000000       0.36842105       0.00000000 </v>
   <v>       0.48000000       0.36842105       0.00000000 </v>
   <v>      -0.48000000       0.36842105       0.00000000 </v>
   <v>      -0.44000000       0.36842105       0.00000000 </v>
   <v>      -0.40000000       0.36842105       0.00000000 </v>
   <v>      -0.36000000       0.36842105       0.00000000 </v>
   <v>      -0.32000000       0.36842105       0.00000000 </v>
   <v>      -0.28000000       0.36842105       0.00000000 </v>
   <v>      -0.24000000       0.36842105       0.00000000 </v>
   <v>      -0.20000000       0.36842105       0.00000000 </v>
   <v>      -0.16000000       0.36842105       0.00000000 </v>
   <v>      -0.12000000       0.36842105       0.00000000 </v>
   <v>      -0.08000000       0.36842105       0.00000000 </v>
   <v>      -0.04000000       0.36842105       0.00000000 </v>
   <v>       0.00000000       0.42105263       0.00000000 </v>
   <v>       0.04000000       0.42105263       0.00000000 </v>
   <v>       0.08000000       0.42105263       0.00000000 </v>
   <v>       0.12000000       0.42105263       0.00000000 </v>
   <v>       0.16000000       0.42105263       0.00000000 </v>
   <v>       0.20000000       0.42105263       0.00000000 </v>
   <v>       0.24000000       0.42105263       0.00000000 </v>
   <v>       0.28000000       0.42105263       0.00000000 </v>
   <v>       0.32000000       0.42105263       0.00000000 </v>
   <v>       0.36000000       0.42105263       0.00000000 </v>
   <v>       0.40000000       0.42105263       0.00000000 </v>
   <v>       0.44000000       0.42105263       0.00000000 </v>
   <v>       0.48000000       0.42105263       0.00000000 </v>
   <v>      -0.48000000       0.42105263       0.00000000 </v>
   <v>      -0.44000000       0.42105263       0.00000000 </v>
   <v>      -0.40000000       0.42105263       0.00000000 </v>
   <v>      -0.36000000       0.42105263       0.00000000 </v>
   <v>      -0.32000000       0.42105263       0.00000000 </v>
   <v>      -0.28000000       0.42105263       0.00000000 </v>
   <v>      -0.24000000       0.42105263       0.00000000 </v>
   <v>      -0.20000000       0.42105263       0.00000000 </v>
   <v>      -0.16000000       0.42105263       0.00000000 </v>
   <v>      -0.12000000       0.42105263       0.00000000 </v>
   <v>      -0.08000000       0.42105263       0.00000000 </v>
   <v>      -0.04000000       0.42105263       0.00000000 </v>
   <v>       0.00000000       0.47368421       0.00000000 </v>
   <v>       0.04000000       0.47368421       0.00000000 </v>
   <v>       0.08000000       0.47368421       0.00000000 </v>
   <v>       0.12000000       0.47368421       0.00000000 </v>
   <v>       0.16000000       0.47368421       0.00000000 </v>
   <v>       0.20000000       0.47368421       0.00000000 </v>
   <v>       0.24000000       0.47368421       0.00000000 </v>
   <v>       0.28000000       0.47368421       0.00000000 </v>
   <v>       0.32000000       0.47368421       0.00000000 </v>
   <v>       0.36000000       0.47368421       0.00000000 </v>
   <v>       0.40000000       0.47368421       0.00000000 </v>
   <v>       0.44000000       0.47368421       0.00000000 </v>
   <v>       0.48000000       0.47368421       0.00000000 </v>
   <v>      -0.48000000       0.47368421       0.00000000 </v>
   <v>      -0.44000000       0.47368421       0.00000000 </v>
   <v>      -0.40000000       0.47368421       0.00000000 </v>
   <v>      -0.36000000       0.47368421       0.00000000 </v>
   <v>      -0.32000000       0.47368421       0.00000000 </v>
   <v>      -0.28000000       0.47368421       0.00000000 </v>
   <v>      -0.24000000       0.47368421       0.00000000 </v>
   <v>      -0.20000000       0.47368421       0.00000000 </v>
   <v>      -0.16000000       0.47368421       0.00000000 </v>
   <v>      -0.12000000       0.47368421       0.00000000 </v>
   <v>      -0.08000000       0.47368421       0.00000000 </v>
   <v>      -0.04000000       0.47368421       0.00000000 </v>
   <v>       0.00000000       0.00000000       0.06250000 </v>
   <v>       0.04000000       0.00000000       0.06250000 </v>
   <v>       0.08000000       0.00000000       0.06250000 </v>
   <v>       0.12000000       0.00000000       0.06250000 </v>
   <v>       0.16000000       0.00000000       0.06250000 </v>
   <v>       0.20000000       0.00000000       0.06250000 </v>
   <v>       0.24000000       0.00000000       0.06250000 </v>
   <v>       0.28000000       0.00000000       0.06250000 </v>
   <v>       0.32000000       0.00000000       0.06250000 </v>
   <v>       0.36000000       0.00000000       0.06250000 </v>
   <v>       0.40000000       0.00000000       0.06250000 </v>
   <v>       0.44000000       0.00000000       0.06250000 </v>
   <v>       0.48000000       0.00000000       0.06250000 </v>
   <v>      -0.48000000       0.00000000       0.06250000 </v>
   <v>      -0.44000000       0.00000000       0.06250000 </v>
   <v>      -0.40000000       0.00000000       0.06250000 </v>
   <v>      -0.36000000       0.00000000       0.06250000 </v>
   <v>      -0.32000000       0.00000000       0.06250000 </v>
   <v>      -0.28000000       0.00000000       0.06250000 </v>
   <v>      -0.24000000       0.00000000       0.06250000 </v>
   <v>      -0.20000000       0.00000000       0.06250000 </v>
   <v>      -0.16000000       0.00000000       0.06250000 </v>
   <v>      -0.12000000       0.00000000       0.06250000 </v>
   <v>      -0.08000000       0.00000000       0.06250000 </v>
   <v>      -0.04000000       0.00000000       0.06250000 </v>
   <v>       0.00000000       0.05263158       0.06250000 </v>
   <v>       0.04000000       0.05263158       0.06250000 </v>
   <v>       0.08000000       0.05263158       0.06250000 </v>
   <v>       0.12000000       0.05263158       0.06250000 </v>
   <v>       0.16000000       0.05263158       0.06250000 </v>
   <v>       0.20000000       0.05263158       0.06250000 </v>
   <v>       0.24000000       0.05263158       0.06250000 </v>
   <v>       0.28000000       0.05263158       0.06250000 </v>
   <v>       0.32000000       0.05263158       0.06250000 </v>
   <v>       0.36000000       0.05263158       0.06250000 </v>
   <v>       0.40000000       0.05263158       0.06250000 </v>
   <v>       0.44000000       0.05263158       0.06250000 </v>
   <v>       0.48000000       0.05263158       0.06250000 </v>
   <v>      -0.48000000       0.05263158       0.06250000 </v>
   <v>      -0.44000000       0.05263158       0.06250000 </v>
   <v>      -0.40000000       0.05263158       0.06250000 </v>
   <v>      -0.36000000       0.05263158       0.06250000 </v>
   <v>      -0.32000000       0.05263158       0.06250000 </v>
   <v>      -0.28000000       0.05263158       0.06250000 </v>
   <v>      -0.24000000       0.05263158       0.06250000 </v>
   <v>      -0.20000000       0.05263158       0.06250000 </v>
   <v>      -0.16000000       0.05263158       0.06250000 </v>
   <v>      -0.12000000       0.05263158       0.06250000 </v>
   <v>      -0.08000000       0.05263158       0.06250000 </v>
   <v>      -0.04000000       0.05263158       0.06250000 </v>
   <v>       0.00000000       0.10526316       0.06250000 </v>
   <v>       0.04000000       0.10526316       0.06250000 </v>
   <v>       0.08000000       0.10526316       0.06250000 </v>
   <v>       0.12000000       0.10526316       0.06250000 </v>
   <v>       0.16000000       0.10526316       0.06250000 </v>
   <v>       0.20000000       0.10526316       0.06250000 </v>
   <v>       0.24000000       0.10526316       0.06250000 </v>
   <v>       0.28000000       0.10526316       0.06250000 </v>
   <v>       0.32000000       0.10526316       0.06250000 </v>
   <v>       0.36000000       0.10526316       0.06250000 </v>
   <v>       0.40000000       0.10526316       0.06250000 </v>
   <v>       0.44000000       0.10526316       0.06250000 </v>
   <v>       0.48000000       0.10526316       0.06250000 </v>
   <v>      -0.48000000       0.10526316       0.06250000 </v>
   <v>      -0.44000000       0.10526316       0.06250000 </v>
   <v>      -0.40000000       0.10526316       0.06250000 </v>
   <v>      -0.36000000       0.10526316       0.06250000 </v>
   <v>      -0.32000000       0.10526316       0.06250000 </v>
   <v>      -0.28000000       0.10526316       0.06250000 </v>
   <v>      -0.24000000       0.10526316       0.06250000 </v>
   <v>      -0.20000000       0.10526316       0.06250000 </v>
   <v>      -0.16000000       0.10526316       0.06250000 </v>
   <v>      -0.12000000       0.10526316       0.06250000 </v>
   <v>      -0.08000000       0.10526316       0.06250000 </v>
   <v>      -0.04000000       0.10526316       0.06250000 </v>
   <v>       0.00000000       0.15789474       0.06250000 </v>
   <v>       0.04000000       0.15789474       0.06250000 </v>
   <v>       0.08000000       0.15789474       0.06250000 </v>
   <v>       0.12000000       0.15789474       0.06250000 </v>
   <v>       0.16000000       0.15789474       0.06250000 </v>
   <v>       0.20000000       0.15789474       0.06250000 </v>
   <v>       0.24000000       0.15789474       0.06250000 </v>
   <v>       0.28000000       0.15789474       0.06250000 </v>
   <v>       0.32000000       0.15789474       0.06250000 </v>
   <v>       0.36000000       0.15789474       0.06250000 </v>
   <v>       0.40000000       0.15789474       0.06250000 </v>
   <v>       0.44000000       0.15789474       0.06250000 </v>
   <v>       0.48000000       0.15789474       0.06250000 </v>
   <v>      -0.48000000       0.15789474       0.06250000 </v>
   <v>      -0.44000000       0.15789474       0.06250000 </v>
   <v>      -0.40000000       0.15789474       0.06250000 </v>
   <v>      -0.36000000       0.15789474       0.06250000 </v>
   <v>      -0.32000000       0.15789474       0.06250000 </v>
   <v>      -0.28000000       0.15789474       0.06250000 </v>
   <v>      -0.24000000       0.15789474       0.06250000 </v>
   <v>      -0.20000000       0.15789474       0.06250000 </v>
   <v>      -0.16000000       0.15789474       0.06250000 </v>
   <v>      -0.12000000       0.15789474       0.06250000 </v>
   <v>      -0.08000000       0.15789474       0.06250000 </v>
   <v>      -0.04000000       0.15789474       0.06250000 </v>
   <v>       0.00000000       0.21052632       0.06250000 </v>
   <v>       0.04000000       0.21052632       0.06250000 </v>
   <v>       0.08000000       0.21052632       0.06250000 </v>
   <v>       0.12000000       0.21052632       0.06250000 </v>
   <v>       0.16000000       0.21052632       0.06250000 </v>
   <v>       0.20000000       0.21052632       0.06250000 </v>
   <v>       0.24000000       0.21052632       0.06250000 </v>
   <v>       0.28000000       0.21052632       0.06250000 </v>
   <v>       0.32000000       0.21052632       0.06250000 </v>
   <v>       0.36000000       0.21052632       0.06250000 </v>
   <v>       0.40000000       0.21052632       0.06250000 </v>
   <v>       0.44000000       0.21052632       0.06250000 </v>
   <v>       0.48000000       0.21052632       0.06250000 </v>
   <v>      -0.48000000       0.21052632       0.06250000 </v>
   <v>      -0.44000000       0.21052632       0.06250000 </v>
   <v>      -0.40000000       0.21052632       0.06250000 </v>
   <v>      -0.36000000       0.21052632       0.06250000 </v>
   <v>      -0.32000000       0.21052632       0.06250000 </v>
   <v>      -0.28000000       0.21052632       0.06250000 </v>
   <v>      -0.24000000       0.21052632       0.06250000 </v>
   <v>      -0.20000000       0.21052632       0.06250000 </v>
   <v>      -0.16000000       0.21052632       0.06250000 </v>
   <v>      -0.12000000       0.21052632       0.06250000 </v>
   <v>      -0.08000000       0.21052632       0.06250000 </v>
   <v>      -0.04000000       0.21052632       0.06250000 </v>
   <v>       0.00000000       0.26315789       0.06250000 </v>
   <v>       0.04000000       0.26315789       0.06250000 </v>
   <v>       0.08000000       0.26315789       0.06250000 </v>
   <v>       0.12000000       0.26315789       0.06250000 </v>
   <v>       0.16000000       0.26315789       0.06250000 </v>
   <v>       0.20000000       0.26315789       0.06250000 </v>
   <v>       0.24000000       0.26315789       0.06250000 </v>
   <v>       0.28000000       0.26315789       0.06250000 </v>
   <v>       0.32000000       0.26315789       0.06250000 </v>
   <v>       0.36000000       0.26315789       0.06250000 </v>
   <v>       0.40000000       0.26315789       0.06250000 </v>
   <v>       0.44000000       0.26315789       0.06250000 </v>
   <v>       0.48000000       0.26315789       0.06250000 </v>
   <v>      -0.48000000       0.26315789       0.06250000 </v>
   <v>      -0.44000000       0.26315789       0.06250000 </v>
   <v>      -0.40000000       0.26315789       0.06250000 </v>
   <v>      -0.36000000       0.26315789       0.06250000 </v>
   <v>      -0.32000000       0.26315789       0.06250000 </v>
   <v>      -0.28000000       0.26315789       0.06250000 </v>
   <v>      -0.24000000       0.26315789       0.06250000 </v>
   <v>      -0.20000000       0.26315789       0.06250000 </v>
   <v>      -0.16000000       0.26315789       0.06250000 </v>
   <v>      -0.12000000       0.26315789       0.06250000 </v>
   <v>      -0.08000000       0.26315789       0.06250000 </v>
   <v>      -0.04000000       0.26315789       0.06250000 </v>
   <v>       0.00000000       0.31578947       0.06250000 </v>
   <v>       0.04000000       0.31578947       0.06250000 </v>
   <v>       0.08000000       0.31578947       0.06250000 </v>
   <v>       0.12000000       0.31578947       0.06250000 </v>
   <v>       0.16000000       0.31578947       0.06250000 </v>
   <v>       0.20000000       0.31578947       0.06250000 </v>
   <v>       0.24000000       0.31578947       0.06250000 </v>
   <v>       0.28000000       0.31578947       0.06250000 </v>
   <v>       0.32000000       0.31578947       0.06250000 </v>
   <v>       0.36000000       0.31578947       0.06250000 </v>
   <v>       0.40000000       0.31578947       0.06250000 </v>
   <v>       0.44000000       0.31578947       0.06250000 </v>
   <v>       0.48000000       0.31578947       0.06250000 </v>
   <v>      -0.48000000       0.31578947       0.06250000 </v>
   <v>      -0.44000000       0.31578947       0.06250000 </v>
   <v>      -0.40000000       0.31578947       0.06250000 </v>
   <v>      -0.36000000       0.31578947       0.06250000 </v>
   <v>      -0.32000000       0.31578947       0.06250000 </v>
   <v>      -0.28000000       0.31578947       0.06250000 </v>
   <v>      -0.24000000       0.31578947       0.06250000 </v>
   <v>      -0.20000000       0.31578947       0.06250000 </v>
   <v>      -0.16000000       0.31578947       0.06250000 </v>
   <v>      -0.12000000       0.31578947       0.06250000 </v>
   <v>      -0.08000000       0.31578947       0.06250000 </v>
   <v>      -0.04000000       0.31578947       0.06250000 </v>
   <v>       0.00000000       0.36842105       0.06250000 </v>
   <v>       0.04000000       0.36842105       0.06250000 </v>
   <v>       0.08000000       0.36842105       0.06250000 </v>
   <v>       0.12000000       0.36842105       0.06250000 </v>
   <v>       0.16000000       0.36842105       0.06250000 </v>
   <v>       0.20000000       0.36842105       0.06250000 </v>
   <v>       0.24000000       0.36842105       0.06250000 </v>
   <v>       0.28000000       0.36842105       0.06250000 </v>
   <v>       0.32000000       0.36842105       0.06250000 </v>
   <v>       0.36000000       0.36842105       0.06250000 </v>
   <v>       0.40000000       0.36842105       0.06250000 </v>
   <v>       0.44000000       0.36842105       0.06250000 </v>
   <v>       0.48000000       0.36842105       0.06250000 </v>
   <v>      -0.48000000       0.36842105       0.06250000 </v>
   <v>      -0.44000000       0.36842105       0.06250000 </v>
   <v>      -0.40000000       0.36842105       0.06250000 </v>
   <v>      -0.36000000       0.36842105       0.06250000 </v>
   <v>      -0.32000000       0.36842105       0.06250000 </v>
   <v>      -0.28000000       0.36842105       0.06250000 </v>
   <v>      -0.24000000       0.36842105       0.06250000 </v>
   <v>      -0.20000000       0.36842105       0.06250000 </v>
   <v>      -0.16000000       0.36842105       0.06250000 </v>
   <v>      -0.12000000       0.36842105       0.06250000 </v>
   <v>      -0.08000000       0.36842105       0.06250000 </v>
   <v>      -0.04000000       0.36842105       0.06250000 </v>
   <v>       0.00000000       0.42105263       0.06250000 </v>
   <v>       0.04000000       0.42105263       0.06250000 </v>
   <v>       0.08000000       0.42105263       0.06250000 </v>
   <v>       0.12000000       0.42105263       0.06250000 </v>
   <v>       0.16000000       0.42105263       0.06250000 </v>
   <v>       0.20000000       0.42105263       0.06250000 </v>
   <v>       0.24000000       0.42105263       0.06250000 </v>
   <v>       0.28000000       0.42105263       0.06250000 </v>
   <v>       0.32000000       0.42105263       0.06250000 </v>
   <v>       0.36000000       0.42105263       0.06250000 </v>
   <v>       0.40000000       0.42105263       0.06250000 </v>
   <v>       0.44000000       0.42105263       0.06250000 </v>
   <v>       0.48000000       0.42105263       0.06250000 </v>
   <v>      -0.48000000       0.42105263       0.06250000 </v>
   <v>      -0.44000000       0.42105263       0.06250000 </v>
   <v>      -0.40000000       0.42105263       0.06250000 </v>
   <v>      -0.36000000       0.42105263       0.06250000 </v>
   <v>      -0.32000000       0.42105263       0.06250000 </v>
   <v>      -0.28000000       0.42105263       0.06250000 </v>
   <v>      -0.24000000       0.42105263       0.06250000 </v>
   <v>      -0.20000000       0.42105263       0.06250000 </v>
   <v>      -0.16000000       0.42105263       0.06250000 </v>
   <v>      -0.12000000       0.42105263       0.06250000 </v>
   <v>      -0.08000000       0.42105263       0.06250000 </v>
   <v>      -0.04000000       0.42105263       0.06250000 </v>
   <v>       0.00000000       0.47368421       0.06250000 </v>
   <v>       0.04000000       0.47368421       0.06250000 </v>
   <v>       0.08000000       0.47368421       0.06250000 </v>
   <v>       0.12000000       0.47368421       0.06250000 </v>
   <v>       0.16000000       0.47368421       0.06250000 </v>
   <v>       0.20000000       0.47368421       0.06250000 </v>
   <v>       0.24000000       0.47368421       0.06250000 </v>
   <v>       0.28000000       0.47368421       0.06250000 </v>
   <v>       0.32000000       0.47368421       0.06250000 </v>
   <v>       0.36000000       0.47368421       0.06250000 </v>
   <v>       0.40000000       0.47368421       0.06250000 </v>
   <v>       0.44000000       0.47368421       0.06250000 </v>
   <v>       0.48000000       0.47368421       0.06250000 </v>
   <v>      -0.48000000       0.47368421       0.06250000 </v>
   <v>      -0.44000000       0.47368421       0.06250000 </v>
   <v>      -0.40000000       0.47368421       0.06250000 </v>
   <v>      -0.36000000       0.47368421       0.06250000 </v>
   <v>      -0.32000000       0.47368421       0.06250000 </v>
   <v>      -0.28000000       0.47368421       0.06250000 </v>
   <v>      -0.24000000       0.47368421       0.06250000 </v>
   <v>      -0.20000000       0.47368421       0.06250000 </v>
   <v>      -0.16000000       0.47368421       0.06250000 </v>
   <v>      -0.12000000       0.47368421       0.06250000 </v>
   <v>      -0.08000000       0.47368421       0.06250000 </v>
   <v>      -0.04000000       0.47368421       0.06250000 </v>
   <v>       0.00000000      -0.47368421       0.06250000 </v>
   <v>       0.04000000      -0.47368421       0.06250000 </v>
   <v>       0.08000000      -0.47368421       0.06250000 </v>
   <v>       0.12000000      -0.47368421       0.06250000 </v>
   <v>       0.16000000      -0.47368421       0.06250000 </v>
   <v>       0.20000000      -0.47368421       0.06250000 </v>
   <v>       0.24000000      -0.47368421       0.06250000 </v>
   <v>       0.28000000      -0.47368421       0.06250000 </v>
   <v>       0.32000000      -0.47368421       0.06250000 </v>
   <v>       0.36000000      -0.47368421       0.06250000 </v>
   <v>       0.40000000      -0.47368421       0.06250000 </v>
   <v>       0.44000000      -0.47368421       0.06250000 </v>
   <v>       0.48000000      -0.47368421       0.06250000 </v>
   <v>      -0.48000000      -0.47368421       0.06250000 </v>
   <v>      -0.44000000      -0.47368421       0.06250000 </v>
   <v>      -0.40000000      -0.47368421       0.06250000 </v>
   <v>      -0.36000000      -0.47368421       0.06250000 </v>
   <v>      -0.32000000      -0.47368421       0.06250000 </v>
   <v>      -0.28000000      -0.47368421       0.06250000 </v>
   <v>      -0.24000000      -0.47368421       0.06250000 </v>
   <v>      -0.20000000      -0.47368421       0.06250000 </v>
   <v>      -0.16000000      -0.47368421       0.06250000 </v>
   <v>      -0.12000000      -0.47368421       0.06250000 </v>
   <v>      -0.08000000      -0.47368421       0.06250000 </v>
   <v>      -0.04000000      -0.47368421       0.06250000 </v>
   <v>       0.00000000      -0.42105263       0.06250000 </v>
   <v>       0.04000000      -0.42105263       0.06250000 </v>
   <v>       0.08000000      -0.42105263       0.06250000 </v>
   <v>       0.12000000      -0.42105263       0.06250000 </v>
   <v>       0.16000000      -0.42105263       0.06250000 </v>
   <v>       0.20000000      -0.42105263       0.06250000 </v>
   <v>       0.24000000      -0.42105263       0.06250000 </v>
   <v>       0.28000000      -0.42105263       0.06250000 </v>
   <v>       0.32000000      -0.42105263       0.06250000 </v>
   <v>       0.36000000      -0.42105263       0.06250000 </v>
   <v>       0.40000000      -0.42105263       0.06250000 </v>
   <v>       0.44000000      -0.42105263       0.06250000 </v>
   <v>       0.48000000      -0.42105263       0.06250000 </v>
   <v>      -0.48000000      -0.42105263       0.06250000 </v>
   <v>      -0.44000000      -0.42105263       0.06250000 </v>
   <v>      -0.40000000      -0.42105263       0.06250000 </v>
   <v>      -0.36000000      -0.42105263       0.06250000 </v>
   <v>      -0.32000000      -0.42105263       0.06250000 </v>
   <v>      -0.28000000      -0.42105263       0.06250000 </v>
   <v>      -0.24000000      -0.42105263       0.06250000 </v>
   <v>      -0.20000000      -0.42105263       0.06250000 </v>
   <v>      -0.16000000      -0.42105263       0.06250000 </v>
   <v>      -0.12000000      -0.42105263       0.06250000 </v>
   <v>      -0.08000000      -0.42105263       0.06250000 </v>
   <v>      -0.04000000      -0.42105263       0.06250000 </v>
   <v>       0.00000000      -0.36842105       0.06250000 </v>
   <v>       0.04000000      -0.36842105       0.06250000 </v>
   <v>       0.08000000      -0.36842105       0.06250000 </v>
   <v>       0.12000000      -0.36842105       0.06250000 </v>
   <v>       0.16000000      -0.36842105       0.06250000 </v>
   <v>       0.20000000      -0.36842105       0.06250000 </v>
   <v>       0.24000000      -0.36842105       0.06250000 </v>
   <v>       0.28000000      -0.36842105       0.06250000 </v>
   <v>       0.32000000      -0.36842105       0.06250000 </v>
   <v>       0.36000000      -0.36842105       0.06250000 </v>
   <v>       0.40000000      -0.36842105       0.06250000 </v>
   <v>       0.44000000      -0.36842105       0.06250000 </v>
   <v>       0.48000000      -0.36842105       0.06250000 </v>
   <v>      -0.48000000      -0.36842105       0.06250000 </v>
   <v>      -0.44000000      -0.36842105       0.06250000 </v>
   <v>      -0.40000000      -0.36842105       0.06250000 </v>
   <v>      -0.36000000      -0.36842105       0.06250000 </v>
   <v>      -0.32000000      -0.36842105       0.06250000 </v>
   <v>      -0.28000000      -0.36842105       0.06250000 </v>
   <v>      -0.24000000      -0.36842105       0.06250000 </v>
   <v>      -0.20000000      -0.36842105       0.06250000 </v>
   <v>      -0.16000000      -0.36842105       0.06250000 </v>
   <v>      -0.12000000      -0.36842105       0.06250000 </v>
   <v>      -0.08000000      -0.36842105       0.06250000 </v>
   <v>      -0.04000000      -0.36842105       0.06250000 </v>
   <v>       0.00000000      -0.31578947       0.06250000 </v>
   <v>       0.04000000      -0.31578947       0.06250000 </v>
   <v>       0.08000000      -0.31578947       0.06250000 </v>
   <v>       0.12000000      -0.31578947       0.06250000 </v>
   <v>       0.16000000      -0.31578947       0.06250000 </v>
   <v>       0.20000000      -0.31578947       0.06250000 </v>
   <v>       0.24000000      -0.31578947       0.06250000 </v>
   <v>       0.28000000      -0.31578947       0.06250000 </v>
   <v>       0.32000000      -0.31578947       0.06250000 </v>
   <v>       0.36000000      -0.31578947       0.06250000 </v>
   <v>       0.40000000      -0.31578947       0.06250000 </v>
   <v>       0.44000000      -0.31578947       0.06250000 </v>
   <v>       0.48000000      -0.31578947       0.06250000 </v>
   <v>      -0.48000000      -0.31578947       0.06250000 </v>
   <v>      -0.44000000      -0.31578947       0.06250000 </v>
   <v>      -0.40000000      -0.31578947       0.06250000 </v>
   <v>      -0.36000000      -0.31578947       0.06250000 </v>
   <v>      -0.32000000      -0.31578947       0.06250000 </v>
   <v>      -0.28000000      -0.31578947       0.06250000 </v>
   <v>      -0.24000000      -0.31578947       0.06250000 </v>
   <v>      -0.20000000      -0.31578947       0.06250000 </v>
   <v>      -0.16000000      -0.31578947       0.06250000 </v>
   <v>      -0.12000000      -0.31578947       0.06250000 </v>
   <v>      -0.08000000      -0.31578947       0.06250000 </v>
   <v>      -0.04000000      -0.31578947       0.06250000 </v>
   <v>       0.00000000      -0.26315789       0.06250000 </v>
   <v>       0.04000000      -0.26315789       0.06250000 </v>
   <v>       0.08000000      -0.26315789       0.06250000 </v>
   <v>       0.12000000      -0.26315789       0.06250000 </v>
   <v>       0.16000000      -0.26315789       0.06250000 </v>
   <v>       0.20000000      -0.26315789       0.06250000 </v>
   <v>       0.24000000      -0.26315789       0.06250000 </v>
   <v>       0.28000000      -0.26315789       0.06250000 </v>
   <v>       0.32000000      -0.26315789       0.06250000 </v>
   <v>       0.36000000      -0.26315789       0.06250000 </v>
   <v>       0.40000000      -0.26315789       0.06250000 </v>
   <v>       0.44000000      -0.26315789       0.06250000 </v>
   <v>       0.48000000      -0.26315789       0.06250000 </v>
   <v>      -0.48000000      -0.26315789       0.06250000 </v>
   <v>      -0.44000000      -0.26315789       0.06250000 </v>
   <v>      -0.40000000      -0.26315789       0.06250000 </v>
   <v>      -0.36000000      -0.26315789       0.06250000 </v>
   <v>      -0.32000000      -0.26315789       0.06250000 </v>
   <v>      -0.28000000      -0.26315789       0.06250000 </v>
   <v>      -0.24000000      -0.26315789       0.06250000 </v>
   <v>      -0.20000000      -0.26315789       0.06250000 </v>
   <v>      -0.16000000      -0.26315789       0.06250000 </v>
   <v>      -0.12000000      -0.26315789       0.06250000 </v>
   <v>      -0.08000000      -0.26315789       0.06250000 </v>
   <v>      -0.04000000      -0.26315789       0.06250000 </v>
   <v>       0.00000000      -0.21052632       0.06250000 </v>
   <v>       0.04000000      -0.21052632       0.06250000 </v>
   <v>       0.08000000      -0.21052632       0.06250000 </v>
   <v>       0.12000000      -0.21052632       0.06250000 </v>
   <v>       0.16000000      -0.21052632       0.06250000 </v>
   <v>       0.20000000      -0.21052632       0.06250000 </v>
   <v>       0.24000000      -0.21052632       0.06250000 </v>
   <v>       0.28000000      -0.21052632       0.06250000 </v>
   <v>       0.32000000      -0.21052632       0.06250000 </v>
   <v>       0.36000000      -0.21052632       0.06250000 </v>
   <v>       0.40000000      -0.21052632       0.06250000 </v>
   <v>       0.44000000      -0.21052632       0.06250000 </v>
   <v>       0.48000000      -0.21052632       0.06250000 </v>
   <v>      -0.48000000      -0.21052632       0.06250000 </v>
   <v>      -0.44000000      -0.21052632       0.06250000 </v>
   <v>      -0.40000000      -0.21052632       0.06250000 </v>
   <v>      -0.36000000      -0.21052632       0.06250000 </v>
   <v>      -0.32000000      -0.21052632       0.06250000 </v>
   <v>      -0.28000000      -0.21052632       0.06250000 </v>
   <v>      -0.24000000      -0.21052632       0.06250000 </v>
   <v>      -0.20000000      -0.21052632       0.06250000 </v>
   <v>      -0.16000000      -0.21052632       0.06250000 </v>
   <v>      -0.12000000      -0.21052632       0.06250000 </v>
   <v>      -0.08000000      -0.21052632       0.06250000 </v>
   <v>      -0.04000000      -0.21052632       0.06250000 </v>
   <v>       0.00000000      -0.15789474       0.06250000 </v>
   <v>       0.04000000      -0.15789474       0.06250000 </v>
   <v>       0.08000000      -0.15789474       0.06250000 </v>
   <v>       0.12000000      -0.15789474       0.06250000 </v>
   <v>       0.16000000      -0.15789474       0.06250000 </v>
   <v>       0.20000000      -0.15789474       0.06250000 </v>
   <v>       0.24000000      -0.15789474       0.06250000 </v>
   <v>       0.28000000      -0.15789474       0.06250000 </v>
   <v>       0.32000000      -0.15789474       0.06250000 </v>
   <v>       0.36000000      -0.15789474       0.06250000 </v>
   <v>       0.40000000      -0.15789474       0.06250000 </v>
   <v>       0.44000000      -0.15789474       0.06250000 </v>
   <v>       0.48000000      -0.15789474       0.06250000 </v>
   <v>      -0.48000000      -0.15789474       0.06250000 </v>
   <v>      -0.44000000      -0.15789474       0.06250000 </v>
   <v>      -0.40000000      -0.15789474       0.06250000 </v>
   <v>      -0.36000000      -0.15789474       0.06250000 </v>
   <v>      -0.32000000      -0.15789474       0.06250000 </v>
   <v>      -0.28000000      -0.15789474       0.06250000 </v>
   <v>      -0.24000000      -0.15789474       0.06250000 </v>
   <v>      -0.20000000      -0.15789474       0.06250000 </v>
   <v>      -0.16000000      -0.15789474       0.06250000 </v>
   <v>      -0.12000000      -0.15789474       0.06250000 </v>
   <v>      -0.08000000      -0.15789474       0.06250000 </v>
   <v>      -0.04000000      -0.15789474       0.06250000 </v>
   <v>       0.00000000      -0.10526316       0.06250000 </v>
   <v>       0.04000000      -0.10526316       0.06250000 </v>
   <v>       0.08000000      -0.10526316       0.06250000 </v>
   <v>       0.12000000      -0.10526316       0.06250000 </v>
   <v>       0.16000000      -0.10526316       0.06250000 </v>
   <v>       0.20000000      -0.10526316       0.06250000 </v>
   <v>       0.24000000      -0.10526316       0.06250000 </v>
   <v>       0.28000000      -0.10526316       0.06250000 </v>
   <v>       0.32000000      -0.10526316       0.06250000 </v>
   <v>       0.36000000      -0.10526316       0.06250000 </v>
   <v>       0.40000000      -0.10526316       0.06250000 </v>
   <v>       0.44000000      -0.10526316       0.06250000 </v>
   <v>       0.48000000      -0.10526316       0.06250000 </v>
   <v>      -0.48000000      -0.10526316       0.06250000 </v>
   <v>      -0.44000000      -0.10526316       0.06250000 </v>
   <v>      -0.40000000      -0.10526316       0.06250000 </v>
   <v>      -0.36000000      -0.10526316       0.06250000 </v>
   <v>      -0.32000000      -0.10526316       0.06250000 </v>
   <v>      -0.28000000      -0.10526316       0.06250000 </v>
   <v>      -0.24000000      -0.10526316       0.06250000 </v>
   <v>      -0.20000000      -0.10526316       0.06250000 </v>
   <v>      -0.16000000      -0.10526316       0.06250000 </v>
   <v>      -0.12000000      -0.10526316       0.06250000 </v>
   <v>      -0.08000000      -0.10526316       0.06250000 </v>
   <v>      -0.04000000      -0.10526316       0.06250000 </v>
   <v>       0.00000000      -0.05263158       0.06250000 </v>
   <v>       0.04000000      -0.05263158       0.06250000 </v>
   <v>       0.08000000      -0.05263158       0.06250000 </v>
   <v>       0.12000000      -0.05263158       0.06250000 </v>
   <v>       0.16000000      -0.05263158       0.06250000 </v>
   <v>       0.20000000      -0.05263158       0.06250000 </v>
   <v>       0.24000000      -0.05263158       0.06250000 </v>
   <v>       0.28000000      -0.05263158       0.06250000 </v>
   <v>       0.32000000      -0.05263158       0.06250000 </v>
   <v>       0.36000000      -0.05263158       0.06250000 </v>
   <v>       0.40000000      -0.05263158       0.06250000 </v>
   <v>       0.44000000      -0.05263158       0.06250000 </v>
   <v>       0.48000000      -0.05263158       0.06250000 </v>
   <v>      -0.48000000      -0.05263158       0.06250000 </v>
   <v>      -0.44000000      -0.05263158       0.06250000 </v>
   <v>      -0.40000000      -0.05263158       0.06250000 </v>
   <v>      -0.36000000      -0.05263158       0.06250000 </v>
   <v>      -0.32000000      -0.05263158       0.06250000 </v>
   <v>      -0.28000000      -0.05263158       0.06250000 </v>
   <v>      -0.24000000      -0.05263158       0.06250000 </v>
   <v>      -0.20000000      -0.05263158       0.06250000 </v>
   <v>      -0.16000000      -0.05263158       0.06250000 </v>
   <v>      -0.12000000      -0.05263158       0.06250000 </v>
   <v>      -0.08000000      -0.05263158       0.06250000 </v>
   <v>      -0.04000000      -0.05263158       0.06250000 </v>
   <v>       0.00000000       0.00000000       0.12500000 </v>
   <v>       0.04000000       0.00000000       0.12500000 </v>
   <v>       0.08000000       0.00000000       0.12500000 </v>
   <v>       0.12000000       0.00000000       0.12500000 </v>
   <v>       0.16000000       0.00000000       0.12500000 </v>
   <v>       0.20000000       0.00000000       0.12500000 </v>
   <v>       0.24000000       0.00000000       0.12500000 </v>
   <v>       0.28000000       0.00000000       0.12500000 </v>
   <v>       0.32000000       0.00000000       0.12500000 </v>
   <v>       0.36000000       0.00000000       0.12500000 </v>
   <v>       0.40000000       0.00000000       0.12500000 </v>
   <v>       0.44000000       0.00000000       0.12500000 </v>
   <v>       0.48000000       0.00000000       0.12500000 </v>
   <v>      -0.48000000       0.00000000       0.12500000 </v>
   <v>      -0.44000000       0.00000000       0.12500000 </v>
   <v>      -0.40000000       0.00000000       0.12500000 </v>
   <v>      -0.36000000       0.00000000       0.12500000 </v>
   <v>      -0.32000000       0.00000000       0.12500000 </v>
   <v>      -0.28000000       0.00000000       0.12500000 </v>
   <v>      -0.24000000       0.00000000       0.12500000 </v>
   <v>      -0.20000000       0.00000000       0.12500000 </v>
   <v>      -0.16000000       0.00000000       0.12500000 </v>
   <v>      -0.12000000       0.00000000       0.12500000 </v>
   <v>      -0.08000000       0.00000000       0.12500000 </v>
   <v>      -0.04000000       0.00000000       0.12500000 </v>
   <v>       0.00000000       0.05263158       0.12500000 </v>
   <v>       0.04000000       0.05263158       0.12500000 </v>
   <v>       0.08000000       0.05263158       0.12500000 </v>
   <v>       0.12000000       0.05263158       0.12500000 </v>
   <v>       0.16000000       0.05263158       0.12500000 </v>
   <v>       0.20000000       0.05263158       0.12500000 </v>
   <v>       0.24000000       0.05263158       0.12500000 </v>
   <v>       0.28000000       0.05263158       0.12500000 </v>
   <v>       0.32000000       0.05263158       0.12500000 </v>
   <v>       0.36000000       0.05263158       0.12500000 </v>
   <v>       0.40000000       0.05263158       0.12500000 </v>
   <v>       0.44000000       0.05263158       0.12500000 </v>
   <v>       0.48000000       0.05263158       0.12500000 </v>
   <v>      -0.48000000       0.05263158       0.12500000 </v>
   <v>      -0.44000000       0.05263158       0.12500000 </v>
   <v>      -0.40000000       0.05263158       0.12500000 </v>
   <v>      -0.36000000       0.05263158       0.12500000 </v>
   <v>      -0.32000000       0.05263158       0.12500000 </v>
   <v>      -0.28000000       0.05263158       0.12500000 </v>
   <v>      -0.24000000       0.05263158       0.12500000 </v>
   <v>      -0.20000000       0.05263158       0.12500000 </v>
   <v>      -0.16000000       0.05263158       0.12500000 </v>
   <v>      -0.12000000       0.05263158       0.12500000 </v>
   <v>      -0.08000000       0.05263158       0.12500000 </v>
   <v>      -0.04000000       0.05263158       0.12500000 </v>
   <v>       0.00000000       0.10526316       0.12500000 </v>
   <v>       0.04000000       0.10526316       0.12500000 </v>
   <v>       0.08000000       0.10526316       0.12500000 </v>
   <v>       0.12000000       0.10526316       0.12500000 </v>
   <v>       0.16000000       0.10526316       0.12500000 </v>
   <v>       0.20000000       0.10526316       0.12500000 </v>
   <v>       0.24000000       0.10526316       0.12500000 </v>
   <v>       0.28000000       0.10526316       0.12500000 </v>
   <v>       0.32000000       0.10526316       0.12500000 </v>
   <v>       0.36000000       0.10526316       0.12500000 </v>
   <v>       0.40000000       0.10526316       0.12500000 </v>
   <v>       0.44000000       0.10526316       0.12500000 </v>
   <v>       0.48000000       0.10526316       0.12500000 </v>
   <v>      -0.48000000       0.10526316       0.12500000 </v>
   <v>      -0.44000000       0.10526316       0.12500000 </v>
   <v>      -0.40000000       0.10526316       0.12500000 </v>
   <v>      -0.36000000       0.10526316       0.12500000 </v>
   <v>      -0.32000000       0.10526316       0.12500000 </v>
   <v>      -0.28000000       0.10526316       0.12500000 </v>
   <v>      -0.24000000       0.10526316       0.12500000 </v>
   <v>      -0.20000000       0.10526316       0.12500000 </v>
   <v>      -0.16000000       0.10526316       0.12500000 </v>
   <v>      -0.12000000       0.10526316       0.12500000 </v>
   <v>      -0.08000000       0.10526316       0.12500000 </v>
   <v>      -0.04000000       0.10526316       0.12500000 </v>
   <v>       0.00000000       0.15789474       0.12500000 </v>
   <v>       0.04000000       0.15789474       0.12500000 </v>
   <v>       0.08000000       0.15789474       0.12500000 </v>
   <v>       0.12000000       0.15789474       0.12500000 </v>
   <v>       0.16000000       0.15789474       0.12500000 </v>
   <v>       0.20000000       0.15789474       0.12500000 </v>
   <v>       0.24000000       0.15789474       0.12500000 </v>
   <v>       0.28000000       0.15789474       0.12500000 </v>
   <v>       0.32000000       0.15789474       0.12500000 </v>
   <v>       0.36000000       0.15789474       0.12500000 </v>
   <v>       0.40000000       0.15789474       0.12500000 </v>
   <v>       0.44000000       0.15789474       0.12500000 </v>
   <v>       0.48000000       0.15789474       0.12500000 </v>
   <v>      -0.48000000       0.15789474       0.12500000 </v>
   <v>      -0.44000000       0.15789474       0.12500000 </v>
   <v>      -0.40000000       0.15789474       0.12500000 </v>
   <v>      -0.36000000       0.15789474       0.12500000 </v>
   <v>      -0.32000000       0.15789474       0.12500000 </v>
   <v>      -0.28000000       0.15789474       0.12500000 </v>
   <v>      -0.24000000       0.15789474       0.12500000 </v>
   <v>      -0.20000000       0.15789474       0.12500000 </v>
   <v>      -0.16000000       0.15789474       0.12500000 </v>
   <v>      -0.12000000       0.15789474       0.12500000 </v>
   <v>      -0.08000000       0.15789474       0.12500000 </v>
   <v>      -0.04000000       0.15789474       0.12500000 </v>
   <v>       0.00000000       0.21052632       0.12500000 </v>
   <v>       0.04000000       0.21052632       0.12500000 </v>
   <v>       0.08000000       0.21052632       0.12500000 </v>
   <v>       0.12000000       0.21052632       0.12500000 </v>
   <v>       0.16000000       0.21052632       0.12500000 </v>
   <v>       0.20000000       0.21052632       0.12500000 </v>
   <v>       0.24000000       0.21052632       0.12500000 </v>
   <v>       0.28000000       0.21052632       0.12500000 </v>
   <v>       0.32000000       0.21052632       0.12500000 </v>
   <v>       0.36000000       0.21052632       0.12500000 </v>
   <v>       0.40000000       0.21052632       0.12500000 </v>
   <v>       0.44000000       0.21052632       0.12500000 </v>
   <v>       0.48000000       0.21052632       0.12500000 </v>
   <v>      -0.48000000       0.21052632       0.12500000 </v>
   <v>      -0.44000000       0.21052632       0.12500000 </v>
   <v>      -0.40000000       0.21052632       0.12500000 </v>
   <v>      -0.36000000       0.21052632       0.12500000 </v>
   <v>      -0.32000000       0.21052632       0.12500000 </v>
   <v>      -0.28000000       0.21052632       0.12500000 </v>
   <v>      -0.24000000       0.21052632       0.12500000 </v>
   <v>      -0.20000000       0.21052632       0.12500000 </v>
   <v>      -0.16000000       0.21052632       0.12500000 </v>
   <v>      -0.12000000       0.21052632       0.12500000 </v>
   <v>      -0.08000000       0.21052632       0.12500000 </v>
   <v>      -0.04000000       0.21052632       0.12500000 </v>
   <v>       0.00000000       0.26315789       0.12500000 </v>
   <v>       0.04000000       0.26315789       0.12500000 </v>
   <v>       0.08000000       0.26315789       0.12500000 </v>
   <v>       0.12000000       0.26315789       0.12500000 </v>
   <v>       0.16000000       0.26315789       0.12500000 </v>
   <v>       0.20000000       0.26315789       0.12500000 </v>
   <v>       0.24000000       0.26315789       0.12500000 </v>
   <v>       0.28000000       0.26315789       0.12500000 </v>
   <v>       0.32000000       0.26315789       0.12500000 </v>
   <v>       0.36000000       0.26315789       0.12500000 </v>
   <v>       0.40000000       0.26315789       0.12500000 </v>
   <v>       0.44000000       0.26315789       0.12500000 </v>
   <v>       0.48000000       0.26315789       0.12500000 </v>
   <v>      -0.48000000       0.26315789       0.12500000 </v>
   <v>      -0.44000000       0.26315789       0.12500000 </v>
   <v>      -0.40000000       0.26315789       0.12500000 </v>
   <v>      -0.36000000       0.26315789       0.12500000 </v>
   <v>      -0.32000000       0.26315789       0.12500000 </v>
   <v>      -0.28000000       0.26315789       0.12500000 </v>
   <v>      -0.24000000       0.26315789       0.12500000 </v>
   <v>      -0.20000000       0.26315789       0.12500000 </v>
   <v>      -0.16000000       0.26315789       0.12500000 </v>
   <v>      -0.12000000       0.26315789       0.12500000 </v>
   <v>      -0.08000000       0.26315789       0.12500000 </v>
   <v>      -0.04000000       0.26315789       0.12500000 </v>
   <v>       0.00000000       0.31578947       0.12500000 </v>
   <v>       0.04000000       0.31578947       0.12500000 </v>
   <v>       0.08000000       0.31578947       0.12500000 </v>
   <v>       0.12000000       0.31578947       0.12500000 </v>
   <v>       0.16000000       0.31578947       0.12500000 </v>
   <v>       0.20000000       0.31578947       0.12500000 </v>
   <v>       0.24000000       0.31578947       0.12500000 </v>
   <v>       0.28000000       0.31578947       0.12500000 </v>
   <v>       0.32000000       0.31578947       0.12500000 </v>
   <v>       0.36000000       0.31578947       0.12500000 </v>
   <v>       0.40000000       0.31578947       0.12500000 </v>
   <v>       0.44000000       0.31578947       0.12500000 </v>
   <v>       0.48000000       0.31578947       0.12500000 </v>
   <v>      -0.48000000       0.31578947       0.12500000 </v>
   <v>      -0.44000000       0.31578947       0.12500000 </v>
   <v>      -0.40000000       0.31578947       0.12500000 </v>
   <v>      -0.36000000       0.31578947       0.12500000 </v>
   <v>      -0.32000000       0.31578947       0.12500000 </v>
   <v>      -0.28000000       0.31578947       0.12500000 </v>
   <v>      -0.24000000       0.31578947       0.12500000 </v>
   <v>      -0.20000000       0.31578947       0.12500000 </v>
   <v>      -0.16000000       0.31578947       0.12500000 </v>
   <v>      -0.12000000       0.31578947       0.12500000 </v>
   <v>      -0.08000000       0.31578947       0.12500000 </v>
   <v>      -0.04000000       0.31578947       0.12500000 </v>
   <v>       0.00000000       0.36842105       0.12500000 </v>
   <v>       0.04000000       0.36842105       0.12500000 </v>
   <v>       0.08000000       0.36842105       0.12500000 </v>
   <v>       0.12000000       0.36842105       0.12500000 </v>
   <v>       0.16000000       0.36842105       0.12500000 </v>
   <v>       0.20000000       0.36842105       0.12500000 </v>
   <v>       0.24000000       0.36842105       0.12500000 </v>
   <v>       0.28000000       0.36842105       0.12500000 </v>
   <v>       0.32000000       0.36842105       0.12500000 </v>
   <v>       0.36000000       0.36842105       0.12500000 </v>
   <v>       0.40000000       0.36842105       0.12500000 </v>
   <v>       0.44000000       0.36842105       0.12500000 </v>
   <v>       0.48000000       0.36842105       0.12500000 </v>
   <v>      -0.48000000       0.36842105       0.12500000 </v>
   <v>      -0.44000000       0.36842105       0.12500000 </v>
   <v>      -0.40000000       0.36842105       0.12500000 </v>
   <v>      -0.36000000       0.36842105       0.12500000 </v>
   <v>      -0.32000000       0.36842105       0.12500000 </v>
   <v>      -0.28000000       0.36842105       0.12500000 </v>
   <v>      -0.24000000       0.36842105       0.12500000 </v>
   <v>      -0.20000000       0.36842105       0.12500000 </v>
   <v>      -0.16000000       0.36842105       0.12500000 </v>
   <v>      -0.12000000       0.36842105       0.12500000 </v>
   <v>      -0.08000000       0.36842105       0.12500000 </v>
   <v>      -0.04000000       0.36842105       0.12500000 </v>
   <v>       0.00000000       0.42105263       0.12500000 </v>
   <v>       0.04000000       0.42105263       0.12500000 </v>
   <v>       0.08000000       0.42105263       0.12500000 </v>
   <v>       0.12000000       0.42105263       0.12500000 </v>
   <v>       0.16000000       0.42105263       0.12500000 </v>
   <v>       0.20000000       0.42105263       0.12500000 </v>
   <v>       0.24000000       0.42105263       0.12500000 </v>
   <v>       0.28000000       0.42105263       0.12500000 </v>
   <v>       0.32000000       0.42105263       0.12500000 </v>
   <v>       0.36000000       0.42105263       0.12500000 </v>
   <v>       0.40000000       0.42105263       0.12500000 </v>
   <v>       0.44000000       0.42105263       0.12500000 </v>
   <v>       0.48000000       0.42105263       0.12500000 </v>
   <v>      -0.48000000       0.42105263       0.12500000 </v>
   <v>      -0.44000000       0.42105263       0.12500000 </v>
   <v>      -0.40000000       0.42105263       0.12500000 </v>
   <v>      -0.36000000       0.42105263       0.12500000 </v>
   <v>      -0.32000000       0.42105263       0.12500000 </v>
   <v>      -0.28000000       0.42105263       0.12500000 </v>
   <v>      -0.24000000       0.42105263       0.12500000 </v>
   <v>      -0.20000000       0.42105263       0.12500000 </v>
   <v>      -0.16000000       0.42105263       0.12500000 </v>
   <v>      -0.12000000       0.42105263       0.12500000 </v>
   <v>      -0.08000000       0.42105263       0.12500000 </v>
   <v>      -0.04000000       0.42105263       0.12500000 </v>
   <v>       0.00000000       0.47368421       0.12500000 </v>
   <v>       0.04000000       0.47368421       0.12500000 </v>
   <v>       0.08000000       0.47368421       0.12500000 </v>
   <v>       0.12000000       0.47368421       0.12500000 </v>
   <v>       0.16000000       0.47368421       0.12500000 </v>
   <v>       0.20000000       0.47368421       0.12500000 </v>
   <v>       0.24000000       0.47368421       0.12500000 </v>
   <v>       0.28000000       0.47368421       0.12500000 </v>
   <v>       0.32000000       0.47368421       0.12500000 </v>
   <v>       0.36000000       0.47368421       0.12500000 </v>
   <v>       0.40000000       0.47368421       0.12500000 </v>
   <v>       0.44000000       0.47368421       0.12500000 </v>
   <v>       0.48000000       0.47368421       0.12500000 </v>
   <v>      -0.48000000       0.47368421       0.12500000 </v>
   <v>      -0.44000000       0.47368421       0.12500000 </v>
   <v>      -0.40000000       0.47368421       0.12500000 </v>
   <v>      -0.36000000       0.47368421       0.12500000 </v>
   <v>      -0.32000000       0.47368421       0.12500000 </v>
   <v>      -0.28000000       0.47368421       0.12500000 </v>
   <v>      -0.24000000       0.47368421       0.12500000 </v>
   <v>      -0.20000000       0.47368421       0.12500000 </v>
   <v>      -0.16000000       0.47368421       0.12500000 </v>
   <v>      -0.12000000       0.47368421       0.12500000 </v>
   <v>      -0.08000000       0.47368421       0.12500000 </v>
   <v>      -0.04000000       0.47368421       0.12500000 </v>
   <v>       0.00000000      -0.47368421       0.12500000 </v>
   <v>       0.04000000      -0.47368421       0.12500000 </v>
   <v>       0.08000000      -0.47368421       0.12500000 </v>
   <v>       0.12000000      -0.47368421       0.12500000 </v>
   <v>       0.16000000      -0.47368421       0.12500000 </v>
   <v>       0.20000000      -0.47368421       0.12500000 </v>
   <v>       0.24000000      -0.47368421       0.12500000 </v>
   <v>       0.28000000      -0.47368421       0.12500000 </v>
   <v>       0.32000000      -0.47368421       0.12500000 </v>
   <v>       0.36000000      -0.47368421       0.12500000 </v>
   <v>       0.40000000      -0.47368421       0.12500000 </v>
   <v>       0.44000000      -0.47368421       0.12500000 </v>
   <v>       0.48000000      -0.47368421       0.12500000 </v>
   <v>      -0.48000000      -0.47368421       0.12500000 </v>
   <v>      -0.44000000      -0.47368421       0.12500000 </v>
   <v>      -0.40000000      -0.47368421       0.12500000 </v>
   <v>      -0.36000000      -0.47368421       0.12500000 </v>
   <v>      -0.32000000      -0.47368421       0.12500000 </v>
   <v>      -0.28000000      -0.47368421       0.12500000 </v>
   <v>      -0.24000000      -0.47368421       0.12500000 </v>
   <v>      -0.20000000      -0.47368421       0.12500000 </v>
   <v>      -0.16000000      -0.47368421       0.12500000 </v>
   <v>      -0.12000000      -0.47368421       0.12500000 </v>
   <v>      -0.08000000      -0.47368421       0.12500000 </v>
   <v>      -0.04000000      -0.47368421       0.12500000 </v>
   <v>       0.00000000      -0.42105263       0.12500000 </v>
   <v>       0.04000000      -0.42105263       0.12500000 </v>
   <v>       0.08000000      -0.42105263       0.12500000 </v>
   <v>       0.12000000      -0.42105263       0.12500000 </v>
   <v>       0.16000000      -0.42105263       0.12500000 </v>
   <v>       0.20000000      -0.42105263       0.12500000 </v>
   <v>       0.24000000      -0.42105263       0.12500000 </v>
   <v>       0.28000000      -0.42105263       0.12500000 </v>
   <v>       0.32000000      -0.42105263       0.12500000 </v>
   <v>       0.36000000      -0.42105263       0.12500000 </v>
   <v>       0.40000000      -0.42105263       0.12500000 </v>
   <v>       0.44000000      -0.42105263       0.12500000 </v>
   <v>       0.48000000      -0.42105263       0.12500000 </v>
   <v>      -0.48000000      -0.42105263       0.12500000 </v>
   <v>      -0.44000000      -0.42105263       0.12500000 </v>
   <v>      -0.40000000      -0.42105263       0.12500000 </v>
   <v>      -0.36000000      -0.42105263       0.12500000 </v>
   <v>      -0.32000000      -0.42105263       0.12500000 </v>
   <v>      -0.28000000      -0.42105263       0.12500000 </v>
   <v>      -0.24000000      -0.42105263       0.12500000 </v>
   <v>      -0.20000000      -0.42105263       0.12500000 </v>
   <v>      -0.16000000      -0.42105263       0.12500000 </v>
   <v>      -0.12000000      -0.42105263       0.12500000 </v>
   <v>      -0.08000000      -0.42105263       0.12500000 </v>
   <v>      -0.04000000      -0.42105263       0.12500000 </v>
   <v>       0.00000000      -0.36842105       0.12500000 </v>
   <v>       0.04000000      -0.36842105       0.12500000 </v>
   <v>       0.08000000      -0.36842105       0.12500000 </v>
   <v>       0.12000000      -0.36842105       0.12500000 </v>
   <v>       0.16000000      -0.36842105       0.12500000 </v>
   <v>       0.20000000      -0.36842105       0.12500000 </v>
   <v>       0.24000000      -0.36842105       0.12500000 </v>
   <v>       0.28000000      -0.36842105       0.12500000 </v>
   <v>       0.32000000      -0.36842105       0.12500000 </v>
   <v>       0.36000000      -0.36842105       0.12500000 </v>
   <v>       0.40000000      -0.36842105       0.12500000 </v>
   <v>       0.44000000      -0.36842105       0.12500000 </v>
   <v>       0.48000000      -0.36842105       0.12500000 </v>
   <v>      -0.48000000      -0.36842105       0.12500000 </v>
   <v>      -0.44000000      -0.36842105       0.12500000 </v>
   <v>      -0.40000000      -0.36842105       0.12500000 </v>
   <v>      -0.36000000      -0.36842105       0.12500000 </v>
   <v>      -0.32000000      -0.36842105       0.12500000 </v>
   <v>      -0.28000000      -0.36842105       0.12500000 </v>
   <v>      -0.24000000      -0.36842105       0.12500000 </v>
   <v>      -0.20000000      -0.36842105       0.12500000 </v>
   <v>      -0.16000000      -0.36842105       0.12500000 </v>
   <v>      -0.12000000      -0.36842105       0.12500000 </v>
   <v>      -0.08000000      -0.36842105       0.12500000 </v>
   <v>      -0.04000000      -0.36842105       0.12500000 </v>
   <v>       0.00000000      -0.31578947       0.12500000 </v>
   <v>       0.04000000      -0.31578947       0.12500000 </v>
   <v>       0.08000000      -0.31578947       0.12500000 </v>
   <v>       0.12000000      -0.31578947       0.12500000 </v>
   <v>       0.16000000      -0.31578947       0.12500000 </v>
   <v>       0.20000000      -0.31578947       0.12500000 </v>
   <v>       0.24000000      -0.31578947       0.12500000 </v>
   <v>       0.28000000      -0.31578947       0.12500000 </v>
   <v>       0.32000000      -0.31578947       0.12500000 </v>
   <v>       0.36000000      -0.31578947       0.12500000 </v>
   <v>       0.40000000      -0.31578947       0.12500000 </v>
   <v>       0.44000000      -0.31578947       0.12500000 </v>
   <v>       0.48000000      -0.31578947       0.12500000 </v>
   <v>      -0.48000000      -0.31578947       0.12500000 </v>
   <v>      -0.44000000      -0.31578947       0.12500000 </v>
   <v>      -0.40000000      -0.31578947       0.12500000 </v>
   <v>      -0.36000000      -0.31578947       0.12500000 </v>
   <v>      -0.32000000      -0.31578947       0.12500000 </v>
   <v>      -0.28000000      -0.31578947       0.12500000 </v>
   <v>      -0.24000000      -0.31578947       0.12500000 </v>
   <v>      -0.20000000      -0.31578947       0.12500000 </v>
   <v>      -0.16000000      -0.31578947       0.12500000 </v>
   <v>      -0.12000000      -0.31578947       0.12500000 </v>
   <v>      -0.08000000      -0.31578947       0.12500000 </v>
   <v>      -0.04000000      -0.31578947       0.12500000 </v>
   <v>       0.00000000      -0.26315789       0.12500000 </v>
   <v>       0.04000000      -0.26315789       0.12500000 </v>
   <v>       0.08000000      -0.26315789       0.12500000 </v>
   <v>       0.12000000      -0.26315789       0.12500000 </v>
   <v>       0.16000000      -0.26315789       0.12500000 </v>
   <v>       0.20000000      -0.26315789       0.12500000 </v>
   <v>       0.24000000      -0.26315789       0.12500000 </v>
   <v>       0.28000000      -0.26315789       0.12500000 </v>
   <v>       0.32000000      -0.26315789       0.12500000 </v>
   <v>       0.36000000      -0.26315789       0.12500000 </v>
   <v>       0.40000000      -0.26315789       0.12500000 </v>
   <v>       0.44000000      -0.26315789       0.12500000 </v>
   <v>       0.48000000      -0.26315789       0.12500000 </v>
   <v>      -0.48000000      -0.26315789       0.12500000 </v>
   <v>      -0.44000000      -0.26315789       0.12500000 </v>
   <v>      -0.40000000      -0.26315789       0.12500000 </v>
   <v>      -0.36000000      -0.26315789       0.12500000 </v>
   <v>      -0.32000000      -0.26315789       0.12500000 </v>
   <v>      -0.28000000      -0.26315789       0.12500000 </v>
   <v>      -0.24000000      -0.26315789       0.12500000 </v>
   <v>      -0.20000000      -0.26315789       0.12500000 </v>
   <v>      -0.16000000      -0.26315789       0.12500000 </v>
   <v>      -0.12000000      -0.26315789       0.12500000 </v>
   <v>      -0.08000000      -0.26315789       0.12500000 </v>
   <v>      -0.04000000      -0.26315789       0.12500000 </v>
   <v>       0.00000000      -0.21052632       0.12500000 </v>
   <v>       0.04000000      -0.21052632       0.12500000 </v>
   <v>       0.08000000      -0.21052632       0.12500000 </v>
   <v>       0.12000000      -0.21052632       0.12500000 </v>
   <v>       0.16000000      -0.21052632       0.12500000 </v>
   <v>       0.20000000      -0.21052632       0.12500000 </v>
   <v>       0.24000000      -0.21052632       0.12500000 </v>
   <v>       0.28000000      -0.21052632       0.12500000 </v>
   <v>       0.32000000      -0.21052632       0.12500000 </v>
   <v>       0.36000000      -0.21052632       0.12500000 </v>
   <v>       0.40000000      -0.21052632       0.12500000 </v>
   <v>       0.44000000      -0.21052632       0.12500000 </v>
   <v>       0.48000000      -0.21052632       0.12500000 </v>
   <v>      -0.48000000      -0.21052632       0.12500000 </v>
   <v>      -0.44000000      -0.21052632       0.12500000 </v>
   <v>      -0.40000000      -0.21052632       0.12500000 </v>
   <v>      -0.36000000      -0.21052632       0.12500000 </v>
   <v>      -0.32000000      -0.21052632       0.12500000 </v>
   <v>      -0.28000000      -0.21052632       0.12500000 </v>
   <v>      -0.24000000      -0.21052632       0.12500000 </v>
   <v>      -0.20000000      -0.21052632       0.12500000 </v>
   <v>      -0.16000000      -0.21052632       0.12500000 </v>
   <v>      -0.12000000      -0.21052632       0.12500000 </v>
   <v>      -0.08000000      -0.21052632       0.12500000 </v>
   <v>      -0.04000000      -0.21052632       0.12500000 </v>
   <v>       0.00000000      -0.15789474       0.12500000 </v>
   <v>       0.04000000      -0.15789474       0.12500000 </v>
   <v>       0.08000000      -0.15789474       0.12500000 </v>
   <v>       0.12000000      -0.15789474       0.12500000 </v>
   <v>       0.16000000      -0.15789474       0.12500000 </v>
   <v>       0.20000000      -0.15789474       0.12500000 </v>
   <v>       0.24000000      -0.15789474       0.12500000 </v>
   <v>       0.28000000      -0.15789474       0.12500000 </v>
   <v>       0.32000000      -0.15789474       0.12500000 </v>
   <v>       0.36000000      -0.15789474       0.12500000 </v>
   <v>       0.40000000      -0.15789474       0.12500000 </v>
   <v>       0.44000000      -0.15789474       0.12500000 </v>
   <v>       0.48000000      -0.15789474       0.12500000 </v>
   <v>      -0.48000000      -0.15789474       0.12500000 </v>
   <v>      -0.44000000      -0.15789474       0.12500000 </v>
   <v>      -0.40000000      -0.15789474       0.12500000 </v>
   <v>      -0.36000000      -0.15789474       0.12500000 </v>
   <v>      -0.32000000      -0.15789474       0.12500000 </v>
   <v>      -0.28000000      -0.15789474       0.12500000 </v>
   <v>      -0.24000000      -0.15789474       0.12500000 </v>
   <v>      -0.20000000      -0.15789474       0.12500000 </v>
   <v>      -0.16000000      -0.15789474       0.12500000 </v>
   <v>      -0.12000000      -0.15789474       0.12500000 </v>
   <v>      -0.08000000      -0.15789474       0.12500000 </v>
   <v>      -0.04000000      -0.15789474       0.12500000 </v>
   <v>       0.00000000      -0.10526316       0.12500000 </v>
   <v>       0.04000000      -0.10526316       0.12500000 </v>
   <v>       0.08000000      -0.10526316       0.12500000 </v>
   <v>       0.12000000      -0.10526316       0.12500000 </v>
   <v>       0.16000000      -0.10526316       0.12500000 </v>
   <v>       0.20000000      -0.10526316       0.12500000 </v>
   <v>       0.24000000      -0.10526316       0.12500000 </v>
   <v>       0.28000000      -0.10526316       0.12500000 </v>
   <v>       0.32000000      -0.10526316       0.12500000 </v>
   <v>       0.36000000      -0.10526316       0.12500000 </v>
   <v>       0.40000000      -0.10526316       0.12500000 </v>
   <v>       0.44000000      -0.10526316       0.12500000 </v>
   <v>       0.48000000      -0.10526316       0.12500000 </v>
   <v>      -0.48000000      -0.10526316       0.12500000 </v>
   <v>      -0.44000000      -0.10526316       0.12500000 </v>
   <v>      -0.40000000      -0.10526316       0.12500000 </v>
   <v>      -0.36000000      -0.10526316       0.12500000 </v>
   <v>      -0.32000000      -0.10526316       0.12500000 </v>
   <v>      -0.28000000      -0.10526316       0.12500000 </v>
   <v>      -0.24000000      -0.10526316       0.12500000 </v>
   <v>      -0.20000000      -0.10526316       0.12500000 </v>
   <v>      -0.16000000      -0.10526316       0.12500000 </v>
   <v>      -0.12000000      -0.10526316       0.12500000 </v>
   <v>      -0.08000000      -0.10526316       0.12500000 </v>
   <v>      -0.04000000      -0.10526316       0.12500000 </v>
   <v>       0.00000000      -0.05263158       0.12500000 </v>
   <v>       0.04000000      -0.05263158       0.12500000 </v>
   <v>       0.08000000      -0.05263158       0.12500000 </v>
   <v>       0.12000000      -0.05263158       0.12500000 </v>
   <v>       0.16000000      -0.05263158       0.12500000 </v>
   <v>       0.20000000      -0.05263158       0.12500000 </v>
   <v>       0.24000000      -0.05263158       0.12500000 </v>
   <v>       0.28000000      -0.05263158       0.12500000 </v>
   <v>       0.32000000      -0.05263158       0.12500000 </v>
   <v>       0.36000000      -0.05263158       0.12500000 </v>
   <v>       0.40000000      -0.05263158       0.12500000 </v>
   <v>       0.44000000      -0.05263158       0.12500000 </v>
   <v>       0.48000000      -0.05263158       0.12500000 </v>
   <v>      -0.48000000      -0.05263158       0.12500000 </v>
   <v>      -0.44000000      -0.05263158       0.12500000 </v>
   <v>      -0.40000000      -0.05263158       0.12500000 </v>
   <v>      -0.36000000      -0.05263158       0.12500000 </v>
   <v>      -0.32000000      -0.05263158       0.12500000 </v>
   <v>      -0.28000000      -0.05263158       0.12500000 </v>
   <v>      -0.24000000      -0.05263158       0.12500000 </v>
   <v>      -0.20000000      -0.05263158       0.12500000 </v>
   <v>      -0.16000000      -0.05263158       0.12500000 </v>
   <v>      -0.12000000      -0.05263158       0.12500000 </v>
   <v>      -0.08000000      -0.05263158       0.12500000 </v>
   <v>      -0.04000000      -0.05263158       0.12500000 </v>
   <v>       0.00000000       0.00000000       0.18750000 </v>
   <v>       0.04000000       0.00000000       0.18750000 </v>
   <v>       0.08000000       0.00000000       0.18750000 </v>
   <v>       0.12000000       0.00000000       0.18750000 </v>
   <v>       0.16000000       0.00000000       0.18750000 </v>
   <v>       0.20000000       0.00000000       0.18750000 </v>
   <v>       0.24000000       0.00000000       0.18750000 </v>
   <v>       0.28000000       0.00000000       0.18750000 </v>
   <v>       0.32000000       0.00000000       0.18750000 </v>
   <v>       0.36000000       0.00000000       0.18750000 </v>
   <v>       0.40000000       0.00000000       0.18750000 </v>
   <v>       0.44000000       0.00000000       0.18750000 </v>
   <v>       0.48000000       0.00000000       0.18750000 </v>
   <v>      -0.48000000       0.00000000       0.18750000 </v>
   <v>      -0.44000000       0.00000000       0.18750000 </v>
   <v>      -0.40000000       0.00000000       0.18750000 </v>
   <v>      -0.36000000       0.00000000       0.18750000 </v>
   <v>      -0.32000000       0.00000000       0.18750000 </v>
   <v>      -0.28000000       0.00000000       0.18750000 </v>
   <v>      -0.24000000       0.00000000       0.18750000 </v>
   <v>      -0.20000000       0.00000000       0.18750000 </v>
   <v>      -0.16000000       0.00000000       0.18750000 </v>
   <v>      -0.12000000       0.00000000       0.18750000 </v>
   <v>      -0.08000000       0.00000000       0.18750000 </v>
   <v>      -0.04000000       0.00000000       0.18750000 </v>
   <v>       0.00000000       0.05263158       0.18750000 </v>
   <v>       0.04000000       0.05263158       0.18750000 </v>
   <v>       0.08000000       0.05263158       0.18750000 </v>
   <v>       0.12000000       0.05263158       0.18750000 </v>
   <v>       0.16000000       0.05263158       0.18750000 </v>
   <v>       0.20000000       0.05263158       0.18750000 </v>
   <v>       0.24000000       0.05263158       0.18750000 </v>
   <v>       0.28000000       0.05263158       0.18750000 </v>
   <v>       0.32000000       0.05263158       0.18750000 </v>
   <v>       0.36000000       0.05263158       0.18750000 </v>
   <v>       0.40000000       0.05263158       0.18750000 </v>
   <v>       0.44000000       0.05263158       0.18750000 </v>
   <v>       0.48000000       0.05263158       0.18750000 </v>
   <v>      -0.48000000       0.05263158       0.18750000 </v>
   <v>      -0.44000000       0.05263158       0.18750000 </v>
   <v>      -0.40000000       0.05263158       0.18750000 </v>
   <v>      -0.36000000       0.05263158       0.18750000 </v>
   <v>      -0.32000000       0.05263158       0.18750000 </v>
   <v>      -0.28000000       0.05263158       0.18750000 </v>
   <v>      -0.24000000       0.05263158       0.18750000 </v>
   <v>      -0.20000000       0.05263158       0.18750000 </v>
   <v>      -0.16000000       0.05263158       0.18750000 </v>
   <v>      -0.12000000       0.05263158       0.18750000 </v>
   <v>      -0.08000000       0.05263158       0.18750000 </v>
   <v>      -0.04000000       0.05263158       0.18750000 </v>
   <v>       0.00000000       0.10526316       0.18750000 </v>
   <v>       0.04000000       0.10526316       0.18750000 </v>
   <v>       0.08000000       0.10526316       0.18750000 </v>
   <v>       0.12000000       0.10526316       0.18750000 </v>
[...]
      </set>
      <set comment="kpoint 3797">
       <r>    2.1228    1.0000 </r>
       <r>    2.4860    1.0000 </r>
       <r>    2.7557    1.0000 </r>
       <r>    3.1781    1.0000 </r>
       <r>    3.2523    1.0000 </r>
       <r>    3.2862    1.0000 </r>
       <r>    3.5003    1.0000 </r>
       <r>    3.6172    1.0000 </r>
       <r>    3.9131    1.0000 </r>
       <r>    4.1051    1.0000 </r>
       <r>    4.2505    1.0000 </r>
       <r>    4.2829    1.0000 </r>
       <r>    4.5409    1.0000 </r>
       <r>    5.0006    1.0000 </r>
       <r>    5.3636    1.0000 </r>
       <r>    6.1756    1.0000 </r>
       <r>    6.9558    1.0000 </r>
       <r>    8.8203   -0.0029 </r>
       <r>   12.6680    0.0000 </r>
       <r>   17.0397    0.0000 </r>
      </set>
      <set comment="kpoint 3798">
       <r>    1.9536    1.0000 </r>
       <r>    2.4297    1.0000 </r>
       <r>    2.6853    1.0000 </r>
       <r>    2.9551    1.0000 </r>
       <r>    3.2715    1.0000 </r>
       <r>    3.3798    1.0000 </r>
       <r>    3.5306    1.0000 </r>
       <r>    3.6195    1.0000 </r>
       <r>    3.7755    1.0000 </r>
       <r>    4.1375    1.0000 </r>
       <r>    4.4202    1.0000 </r>
       <r>    4.4750    1.0000 </r>
       <r>    4.5813    1.0000 </r>
       <r>    4.9030    1.0000 </r>
       <r>    5.4105    1.0000 </r>
       <r>    6.0202    1.0000 </r>
       <r>    6.5897    1.0000 </r>
       <r>    8.5199   -0.0350 </r>
       <r>   12.2345    0.0000 </r>
       <r>   17.2741    0.0000 </r>
      </set>
      <set comment="kpoint 3799">
       <r>    1.7750    1.0000 </r>
       <r>    2.3049    1.0000 </r>
       <r>    2.6529    1.0000 </r>
       <r>    2.8194    1.0000 </r>
       <r>    3.3073    1.0000 </r>
       <r>    3.4633    1.0000 </r>
       <r>    3.5389    1.0000 </r>
       <r>    3.6233    1.0000 </r>
       <r>    3.6750    1.0000 </r>
       <r>    4.1273    1.0000 </r>
       <r>    4.5082    1.0000 </r>
       <r>    4.6148    1.0000 </r>
       <r>    4.7423    1.0000 </r>
       <r>    4.9826    1.0000 </r>
       <r>    5.4525    1.0000 </r>
       <r>    5.8672    1.0000 </r>
       <r>    6.2571    1.0000 </r>
       <r>    8.2028    0.3174 </r>
       <r>   11.9011    0.0000 </r>
       <r>   17.4700    0.0000 </r>
      </set>
      <set comment="kpoint 3800">
       <r>    1.6278    1.0000 </r>
       <r>    2.1860    1.0000 </r>
       <r>    2.5426    1.0000 </r>
       <r>    2.8476    1.0000 </r>
       <r>    3.2999    1.0000 </r>
       <r>    3.5272    1.0000 </r>
       <r>    3.5316    1.0000 </r>
       <r>    3.5751    1.0000 </r>
       <r>    3.7103    1.0000 </r>
       <r>    4.0989    1.0000 </r>
       <r>    4.4370    1.0000 </r>
       <r>    4.7562    1.0000 </r>
       <r>    4.9441    1.0000 </r>
       <r>    5.2457    1.0000 </r>
       <r>    5.4838    1.0000 </r>
       <r>    5.7119    1.0000 </r>
       <r>    5.9626    1.0000 </r>
       <r>    7.8990    0.9877 </r>
       <r>   11.6587    0.0000 </r>
       <r>   17.7012    0.0000 </r>
      </set>
      <set comment="kpoint 3801">
       <r>    1.5319    1.0000 </r>
       <r>    2.1082    1.0000 </r>
       <r>    2.4578    1.0000 </r>
       <r>    2.9138    1.0000 </r>
       <r>    3.2476    1.0000 </r>
       <r>    3.4843    1.0000 </r>
       <r>    3.5677    1.0000 </r>
       <r>    3.6081    1.0000 </r>
       <r>    3.7551    1.0000 </r>
       <r>    4.0611    1.0000 </r>
       <r>    4.3523    1.0000 </r>
       <r>    4.8921    1.0000 </r>
       <r>    5.1600    1.0000 </r>
       <r>    5.4761    1.0000 </r>
       <r>    5.4997    1.0000 </r>
       <r>    5.5736    1.0000 </r>
       <r>    5.7232    1.0000 </r>
       <r>    7.6745    1.0259 </r>
       <r>   11.4924    0.0000 </r>
       <r>   17.9672    0.0000 </r>
      </set>
     </set>
    </set>
   </array>
  </eigenvalues>
  <separator name="orbital magnetization" >
   <v name="MAGDIPOLOUT">      0.00000000      0.00000000      0.00000000</v>
  </separator>
  <dos>
   <i name="efermi">      8.13630738 </i>
   <total>
    <array>
     <dimension dim="1">gridpoints</dimension>
     <dimension dim="2">spin</dimension>
     <field>energy</field>
     <field>total</field>
     <field>integrated</field>
     <set>
      <set comment="spin 1">
       <r>    -3.0495     0.0000     0.0000 </r>
       <r>    -2.9675     0.0000     0.0000 </r>
       <r>    -2.8854     0.0000     0.0000 </r>
       <r>    -2.8034     0.0000     0.0000 </r>
       <r>    -2.7214     0.0000     0.0000 </r>
       <r>    -2.6394     0.0000     0.0000 </r>
       <r>    -2.5574     0.0000     0.0000 </r>
       <r>    -2.4754     0.0000     0.0000 </r>
       <r>    -2.3934     0.0000     0.0000 </r>
       <r>    -2.3114     0.0000     0.0000 </r>
       <r>    -2.2294     0.0000     0.0000 </r>
       <r>    -2.1474     0.0000     0.0000 </r>
       <r>    -2.0654     0.0000     0.0000 </r>
       <r>    -1.9834     0.0000     0.0000 </r>
       <r>    -1.9014     0.0000     0.0000 </r>
       <r>    -1.8194     0.0000     0.0000 </r>
       <r>    -1.7374     0.0000     0.0000 </r>
       <r>    -1.6554     0.0000     0.0000 </r>
       <r>    -1.5734     0.0000     0.0000 </r>
       <r>    -1.4914     0.0000     0.0000 </r>
       <r>    -1.4094     0.0000     0.0000 </r>
       <r>    -1.3273     0.0000     0.0000 </r>
       <r>    -1.2453     0.0000     0.0000 </r>
       <r>    -1.1633     0.0000     0.0000 </r>
       <r>    -1.0813     0.0000     0.0000 </r>
       <r>    -0.9993     0.0000     0.0000 </r>
       <r>    -0.9173     0.0000     0.0000 </r>
       <r>    -0.8353     0.0000     0.0000 </r>
       <r>    -0.7533    -0.0001     0.0000 </r>
       <r>    -0.6713    -0.0003     0.0000 </r>
       <r>    -0.5893    -0.0008    -0.0001 </r>
       <r>    -0.5073    -0.0017    -0.0002 </r>
       <r>    -0.4253    -0.0031    -0.0005 </r>
       <r>    -0.3433    -0.0044    -0.0009 </r>
       <r>    -0.2613    -0.0036    -0.0012 </r>
       <r>    -0.1793     0.0021    -0.0010 </r>
       <r>    -0.0973     0.0158     0.0003 </r>
       <r>    -0.0153     0.0387     0.0035 </r>
       <r>     0.0667     0.0693     0.0092 </r>
       <r>     0.1487     0.1037     0.0177 </r>
       <r>     0.2308     0.1375     0.0290 </r>
       <r>     0.3128     0.1683     0.0428 </r>
       <r>     0.3948     0.1954     0.0588 </r>
       <r>     0.4768     0.2200     0.0768 </r>
       <r>     0.5588     0.2433     0.0968 </r>
       <r>     0.6408     0.2663     0.1186 </r>
       <r>     0.7228     0.2897     0.1424 </r>
       <r>     0.8048     0.3139     0.1681 </r>
       <r>     0.8868     0.3399     0.1960 </r>
       <r>     0.9688     0.3704     0.2264 </r>
       <r>     1.0508     0.4107     0.2600 </r>
       <r>     1.1328     0.4681     0.2984 </r>
       <r>     1.2148     0.5471     0.3433 </r>
       <r>     1.2968     0.6425     0.3960 </r>
       <r>     1.3788     0.7359     0.4563 </r>
       <r>     1.4608     0.8035     0.5222 </r>
       <r>     1.5428     0.8394     0.5910 </r>
       <r>     1.6248     0.8799     0.6632 </r>
       <r>     1.7068     1.0085     0.7459 </r>
       <r>     1.7889     1.3257     0.8546 </r>
       <r>     1.8709     1.8998     1.0104 </r>
       <r>     1.9529     2.7306     1.2343 </r>
       <r>     2.0349     3.7538     1.5422 </r>
       <r>     2.1169     4.8749     1.9419 </r>
       <r>     2.1989     5.9985     2.4338 </r>
       <r>     2.2809     7.0267     3.0101 </r>
       <r>     2.3629     7.8444     3.6534 </r>
       <r>     2.4449     8.3310     4.3366 </r>
       <r>     2.5269     8.4112     5.0263 </r>
       <r>     2.6089     8.1072     5.6911 </r>
       <r>     2.6909     7.5510     6.3104 </r>
       <r>     2.7729     6.9491     6.8802 </r>
       <r>     2.8549     6.5125     7.4143 </r>
       <r>     2.9369     6.3783     7.9373 </r>
       <r>     3.0189     6.5521     8.4746 </r>
       <r>     3.1009     6.9125     9.0415 </r>
       <r>     3.1829     7.2890     9.6392 </r>
       <r>     3.2649     7.5724    10.2602 </r>
       <r>     3.3470     7.7892    10.8990 </r>
       <r>     3.4290     8.0841    11.5619 </r>
       <r>     3.5110     8.6148    12.2684 </r>
       <r>     3.5930     9.4095    13.0400 </r>
       <r>     3.6750    10.2811    13.8831 </r>
       <r>     3.7570    10.8834    14.7756 </r>
       <r>     3.8390    10.9107    15.6703 </r>
       <r>     3.9210    10.3107    16.5159 </r>
       <r>     4.0030     9.3387    17.2817 </r>
       <r>     4.0850     8.4031    17.9708 </r>
       <r>     4.1670     7.8284    18.6128 </r>
       <r>     4.2490     7.7112    19.2451 </r>
       <r>     4.3310     7.9336    19.8957 </r>
       <r>     4.4130     8.2758    20.5744 </r>
       <r>     4.4950     8.5326    21.2741 </r>
       <r>     4.5770     8.5835    21.9780 </r>
       <r>     4.6590     8.4035    22.6671 </r>
       <r>     4.7410     8.0302    23.3257 </r>
       <r>     4.8230     7.5243    23.9427 </r>
       <r>     4.9051     6.9617    24.5136 </r>
       <r>     4.9871     6.4607    25.0434 </r>
       <r>     5.0691     6.1950    25.5514 </r>
       <r>     5.1511     6.3450    26.0718 </r>
       <r>     5.2331     6.9849    26.6446 </r>
       <r>     5.3151     7.9719    27.2983 </r>
       <r>     5.3971     8.9326    28.0308 </r>
       <r>     5.4791     9.4000    28.8017 </r>
       <r>     5.5611     9.0429    29.5432 </r>
       <r>     5.6431     7.8418    30.1863 </r>
       <r>     5.7251     6.0907    30.6858 </r>
       <r>     5.8071     4.2338    31.0330 </r>
       <r>     5.8891     2.6586    31.2510 </r>
       <r>     5.9711     1.5645    31.3793 </r>
       <r>     6.0531     0.9518    31.4573 </r>
       <r>     6.1351     0.6954    31.5144 </r>
       <r>     6.2171     0.6381    31.5667 </r>
       <r>     6.2991     0.6549    31.6204 </r>
       <r>     6.3811     0.6772    31.6759 </r>
       <r>     6.4632     0.6850    31.7321 </r>
       <r>     6.5452     0.6868    31.7884 </r>
       <r>     6.6272     0.6971    31.8456 </r>
       <r>     6.7092     0.7201    31.9047 </r>
       <r>     6.7912     0.7460    31.9658 </r>
       <r>     6.8732     0.7596    32.0281 </r>
       <r>     6.9552     0.7528    32.0899 </r>
       <r>     7.0372     0.7313    32.1498 </r>
       <r>     7.1192     0.7101    32.2081 </r>
       <r>     7.2012     0.7037    32.2658 </r>
       <r>     7.2832     0.7183    32.3247 </r>
       <r>     7.3652     0.7488    32.3861 </r>
       <r>     7.4472     0.7824    32.4502 </r>
       <r>     7.5292     0.8052    32.5163 </r>
       <r>     7.6112     0.8103    32.5827 </r>
       <r>     7.6932     0.8012    32.6484 </r>
       <r>     7.7752     0.7872    32.7130 </r>
       <r>     7.8572     0.7782    32.7768 </r>
       <r>     7.9392     0.7803    32.8408 </r>
       <r>     8.0213     0.7942    32.9059 </r>
       <r>     8.1033     0.8142    32.9727 </r>
       <r>     8.1853     0.8308    33.0408 </r>
       <r>     8.2673     0.8371    33.1094 </r>
       <r>     8.3493     0.8334    33.1778 </r>
       <r>     8.4313     0.8251    33.2455 </r>
       <r>     8.5133     0.8153    33.3123 </r>
       <r>     8.5953     0.8031    33.3782 </r>
       <r>     8.6773     0.7894    33.4429 </r>
       <r>     8.7593     0.7815    33.5070 </r>
       <r>     8.8413     0.7878    33.5716 </r>
       <r>     8.9233     0.8084    33.6379 </r>
       <r>     9.0053     0.8323    33.7061 </r>
       <r>     9.0873     0.8461    33.7755 </r>
       <r>     9.1693     0.8433    33.8447 </r>
       <r>     9.2513     0.8266    33.9125 </r>
       <r>     9.3333     0.8037    33.9784 </r>
       <r>     9.4153     0.7830    34.0426 </r>
       <r>     9.4974     0.7727    34.1060 </r>
       <r>     9.5794     0.7771    34.1697 </r>
       <r>     9.6614     0.7937    34.2348 </r>
       <r>     9.7434     0.8133    34.3015 </r>
       <r>     9.8254     0.8247    34.3691 </r>
       <r>     9.9074     0.8214    34.4365 </r>
       <r>     9.9894     0.8041    34.5024 </r>
       <r>    10.0714     0.7796    34.5663 </r>
       <r>    10.1534     0.7566    34.6284 </r>
       <r>    10.2354     0.7405    34.6891 </r>
       <r>    10.3174     0.7306    34.7490 </r>
       <r>    10.3994     0.7227    34.8083 </r>
       <r>    10.4814     0.7135    34.8668 </r>
       <r>    10.5634     0.7040    34.9245 </r>
       <r>    10.6454     0.6979    34.9817 </r>
       <r>    10.7274     0.6973    35.0389 </r>
       <r>    10.8094     0.7003    35.0963 </r>
       <r>    10.8914     0.7025    35.1540 </r>
       <r>    10.9734     0.6997    35.2113 </r>
       <r>    11.0555     0.6922    35.2681 </r>
       <r>    11.1375     0.6868    35.3244 </r>
       <r>    11.2195     0.6963    35.3815 </r>
       <r>    11.3015     0.7332    35.4416 </r>
       <r>    11.3835     0.7988    35.5071 </r>
       <r>    11.4655     0.8780    35.5791 </r>
       <r>    11.5475     0.9462    35.6567 </r>
       <r>    11.6295     0.9844    35.7375 </r>
       <r>    11.7115     0.9926    35.8189 </r>
       <r>    11.7935     0.9871    35.8998 </r>
       <r>    11.8755     0.9867    35.9807 </r>
       <r>    11.9575     0.9970    36.0625 </r>
       <r>    12.0395     1.0073    36.1451 </r>
       <r>    12.1215     1.0006    36.2271 </r>
       <r>    12.2035     0.9699    36.3067 </r>
       <r>    12.2855     0.9263    36.3826 </r>
       <r>    12.3675     0.8910    36.4557 </r>
       <r>    12.4495     0.8808    36.5279 </r>
       <r>    12.5315     0.8966    36.6015 </r>
       <r>    12.6136     0.9235    36.6772 </r>
       <r>    12.6956     0.9417    36.7544 </r>
       <r>    12.7776     0.9391    36.8314 </r>
       <r>    12.8596     0.9179    36.9067 </r>
       <r>    12.9416     0.8917    36.9798 </r>
       <r>    13.0236     0.8743    37.0515 </r>
       <r>    13.1056     0.8709    37.1229 </r>
       <r>    13.1876     0.8754    37.1947 </r>
       <r>    13.2696     0.8781    37.2667 </r>
       <r>    13.3516     0.8740    37.3384 </r>
       <r>    13.4336     0.8651    37.4093 </r>
       <r>    13.5156     0.8563    37.4796 </r>
       <r>    13.5976     0.8508    37.5493 </r>
       <r>    13.6796     0.8490    37.6189 </r>
       <r>    13.7616     0.8498    37.6886 </r>
       <r>    13.8436     0.8528    37.7586 </r>
       <r>    13.9256     0.8587    37.8290 </r>
       <r>    14.0076     0.8689    37.9002 </r>
       <r>    14.0896     0.8842    37.9727 </r>
       <r>    14.1717     0.9028    38.0468 </r>
       <r>    14.2537     0.9182    38.1221 </r>
       <r>    14.3357     0.9204    38.1976 </r>
       <r>    14.4177     0.9002    38.2714 </r>
       <r>    14.4997     0.8565    38.3416 </r>
       <r>    14.5817     0.8009    38.4073 </r>
       <r>    14.6637     0.7531    38.4690 </r>
       <r>    14.7457     0.7293    38.5289 </r>
       <r>    14.8277     0.7320    38.5889 </r>
       <r>    14.9097     0.7491    38.6503 </r>
       <r>    14.9917     0.7633    38.7129 </r>
       <r>    15.0737     0.7630    38.7755 </r>
       <r>    15.1557     0.7477    38.8368 </r>
       <r>    15.2377     0.7243    38.8962 </r>
       <r>    15.3197     0.6988    38.9535 </r>
       <r>    15.4017     0.6721    39.0086 </r>
       <r>    15.4837     0.6426    39.0613 </r>
       <r>    15.5657     0.6103    39.1113 </r>
       <r>    15.6477     0.5787    39.1588 </r>
       <r>    15.7298     0.5521    39.2041 </r>
       <r>    15.8118     0.5337    39.2478 </r>
       <r>    15.8938     0.5240    39.2908 </r>
       <r>    15.9758     0.5212    39.3336 </r>
       <r>    16.0578     0.5216    39.3763 </r>
       <r>    16.1398     0.5202    39.4190 </r>
       <r>    16.2218     0.5119    39.4610 </r>
       <r>    16.3038     0.4926    39.5014 </r>
       <r>    16.3858     0.4612    39.5392 </r>
       <r>    16.4678     0.4211    39.5737 </r>
       <r>    16.5498     0.3808    39.6049 </r>
       <r>    16.6318     0.3500    39.6336 </r>
       <r>    16.7138     0.3345    39.6611 </r>
       <r>    16.7958     0.3315    39.6883 </r>
       <r>    16.8778     0.3326    39.7155 </r>
       <r>    16.9598     0.3291    39.7425 </r>
       <r>    17.0418     0.3179    39.7686 </r>
       <r>    17.1238     0.3004    39.7932 </r>
       <r>    17.2058     0.2791    39.8161 </r>
       <r>    17.2879     0.2561    39.8371 </r>
       <r>    17.3699     0.2331    39.8562 </r>
       <r>    17.4519     0.2118    39.8736 </r>
       <r>    17.5339     0.1936    39.8895 </r>
       <r>    17.6159     0.1792    39.9042 </r>
       <r>    17.6979     0.1681    39.9180 </r>
       <r>    17.7799     0.1594    39.9310 </r>
       <r>    17.8619     0.1510    39.9434 </r>
       <r>    17.9439     0.1400    39.9549 </r>
       <r>    18.0259     0.1253    39.9652 </r>
       <r>    18.1079     0.1076    39.9740 </r>
       <r>    18.1899     0.0895    39.9813 </r>
       <r>    18.2719     0.0730    39.9873 </r>
       <r>    18.3539     0.0582    39.9921 </r>
       <r>    18.4359     0.0442    39.9957 </r>
       <r>    18.5179     0.0304    39.9982 </r>
       <r>    18.5999     0.0179    39.9997 </r>
       <r>    18.6819     0.0080    40.0003 </r>
       <r>    18.7639     0.0017    40.0005 </r>
       <r>    18.8460    -0.0012    40.0004 </r>
       <r>    18.9280    -0.0018    40.0002 </r>
       <r>    19.0100    -0.0014    40.0001 </r>
       <r>    19.0920    -0.0008    40.0000 </r>
       <r>    19.1740    -0.0004    40.0000 </r>
       <r>    19.2560    -0.0001    40.0000 </r>
       <r>    19.3380     0.0000    40.0000 </r>
       <r>    19.4200     0.0000    40.0000 </r>
       <r>    19.5020     0.0000    40.0000 </r>
       <r>    19.5840     0.0000    40.0000 </r>
       <r>    19.6660     0.0000    40.0000 </r>
       <r>    19.7480     0.0000    40.0000 </r>
       <r>    19.8300     0.0000    40.0000 </r>
       <r>    19.9120     0.0000    40.0000 </r>
       <r>    19.9940     0.0000    40.0000 </r>
       <r>    20.0760     0.0000    40.0000 </r>
       <r>    20.1580     0.0000    40.0000 </r>
       <r>    20.2400     0.0000    40.0000 </r>
       <r>    20.3220     0.0000    40.0000 </r>
       <r>    20.4041     0.0000    40.0000 </r>
       <r>    20.4861     0.0000    40.0000 </r>
       <r>    20.5681     0.0000    40.0000 </r>
       <r>    20.6501     0.0000    40.0000 </r>
       <r>    20.7321     0.0000    40.0000 </r>
       <r>    20.8141     0.0000    40.0000 </r>
       <r>    20.8961     0.0000    40.0000 </r>
       <r>    20.9781     0.0000    40.0000 </r>
       <r>    21.0601     0.0000    40.0000 </r>
       <r>    21.1421     0.0000    40.0000 </r>
       <r>    21.2241     0.0000    40.0000 </r>
       <r>    21.3061     0.0000    40.0000 </r>
       <r>    21.3881     0.0000    40.0000 </r>
       <r>    21.4701     0.0000    40.0000 </r>
       <r>    21.5521     0.0000    40.0000 </r>
      </set>
     </set>
    </array>
   </total>
  </dos>
 </calculation>
 <structure name="finalpos" >
  <crystal>
   <varray name="basis" >
    <v>       0.00000000       2.05659711       2.05659711 </v>
    <v>       4.17238331       0.00000000       0.00000000 </v>
    <v>      -2.08619165       2.08580765      -4.14240476 </v>
   </varray>
   <i name="volume">     53.44373909 </i>
   <varray name="rec_basis" >
    <v>       0.00000000       0.32339991       0.16284020 </v>
    <v>       0.23967117       0.08027986      -0.08027986 </v>
    <v>       0.00000000       0.16055971      -0.16055971 </v>
   </varray>
  </crystal>
  <varray name="positions" >
   <v>       0.66652681       0.66652681       0.33305363 </v>
   <v>       0.33347319       0.33347319       0.66694637 </v>
   <v>       0.00000000       0.00000000       0.00000000 </v>
  </varray>
 </structure>
</modeling>
