<?xml version="1.0" encoding="ISO-8859-1"?>
<modeling>
 <generator>
  <i name="program" type="string">vasp </i>
  <i name="version" type="string">5.3.5  </i>
  <i name="subversion" type="string">31Mar14 (build Jun 20 2014 13:15:13) complex                          parallel </i>
  <i name="platform" type="string">LinuxIFC </i>
  <i name="date" type="string">2025 12 12 </i>
  <i name="time" type="string">11:26:07 </i>
 </generator>
 <incar>
  <i type="string" name="PREC">accurate</i>
  <i type="int" name="IALGO">    38</i>
  <i type="logical" name="ADDGRID"> T  </i>
  <i type="int" name="ISPIN">     2</i>
  <i type="int" name="NELM">   100</i>
  <i type="int" name="NELMIN">     4</i>
  <i name="EDIFF">      0.00000100</i>
  <i name="ENCUT">    500.00000000</i>
  <i type="logical" name="LREAL"> F  </i>
  <i type="int" name="ISMEAR">     0</i>
  <i name="SIGMA">      0.05000000</i>
  <i type="logical" name="LWAVE"> F  </i>
  <i type="logical" name="LCHARG"> F  </i>
  <i type="int" name="NELM">   100</i>
  <i type="logical" name="LDAU"> T  </i>
  <v name="LDAUU">      0.00000000      4.00000000      0.00000000</v>
  <v name="LDAUJ">      0.00000000      0.00000000      0.00000000</v>
 </incar>
 <kpoints>
  <generation param="Auto">
   <i name="subdivisionlength">     20.00000000 </i>
   <v type="int" name="divisions">       5        5        2 </v>
   <v name="usershift">      0.00000000       0.00000000       0.00000000 </v>
   <v name="genvec1">      0.20000000       0.00000000       0.00000000 </v>
   <v name="genvec2">      0.00000000       0.20000000       0.00000000 </v>
   <v name="genvec3">      0.00000000       0.00000000       0.50000000 </v>
   <v name="shift">      0.00000000       0.00000000       0.00000000 </v>
  </generation>
  <varray name="kpointlist" >
   <v>       0.00000000       0.00000000       0.00000000 </v>
   <v>       0.20000000       0.00000000       0.00000000 </v>
   <v>       0.40000000       0.00000000       0.00000000 </v>
   <v>       0.20000000       0.20000000       0.00000000 </v>
   <v>       0.40000000       0.20000000       0.00000000 </v>
   <v>       0.40000000       0.40000000       0.00000000 </v>
   <v>       0.00000000       0.00000000       0.50000000 </v>
   <v>       0.20000000       0.00000000       0.50000000 </v>
   <v>       0.40000000       0.00000000       0.50000000 </v>
   <v>       0.20000000       0.20000000       0.50000000 </v>
   <v>       0.40000000       0.20000000       0.50000000 </v>
   <v>       0.40000000       0.40000000       0.50000000 </v>
  </varray>
  <varray name="weights" >
   <v>       0.02000000 </v>
   <v>       0.08000000 </v>
   <v>       0.08000000 </v>
   <v>       0.08000000 </v>
   <v>       0.16000000 </v>
   <v>       0.08000000 </v>
   <v>       0.02000000 </v>
   <v>       0.08000000 </v>
   <v>       0.08000000 </v>
   <v>       0.08000000 </v>
   <v>       0.16000000 </v>
   <v>       0.08000000 </v>
  </varray>
 </kpoints>
 <parameters>
  <separator name="general" >
   <i type="string" name="SYSTEM">unknown system</i>
   <i type="logical" name="LCOMPAT"> F  </i>
  </separator>
  <separator name="electronic" >
   <i type="string" name="PREC">accura</i>
   <i name="ENMAX">    500.00000000</i>
   <i name="ENAUG">    586.98000000</i>
   <i name="EDIFF">      0.00000100</i>
   <i type="int" name="IALGO">    38</i>
   <i type="int" name="IWAVPR">    10</i>
   <i type="int" name="NBANDS">    72</i>
   <i name="NELECT">    105.00000000</i>
   <i type="int" name="TURBO">     0</i>
   <i type="int" name="IRESTART">     0</i>
   <i type="int" name="NREBOOT">     0</i>
   <i type="int" name="NMIN">     0</i>
   <i name="EREF">      0.00000000</i>
   <separator name="electronic smearing" >
    <i type="int" name="ISMEAR">     0</i>
    <i name="SIGMA">      0.05000000</i>
    <i name="KSPACING">      0.50000000</i>
    <i type="logical" name="KGAMMA"> T  </i>
   </separator>
   <separator name="electronic projectors" >
    <i type="logical" name="LREAL"> F  </i>
    <v name="ROPT">      0.00000000      0.00000000      0.00000000</v>
    <i type="int" name="LMAXPAW">  -100</i>
    <i type="int" name="LMAXMIX">     2</i>
    <i type="logical" name="NLSPLINE"> F  </i>
   </separator>
   <separator name="electronic startup" >
    <i type="int" name="ISTART">     0</i>
    <i type="int" name="ICHARG">     2</i>
    <i type="int" name="INIWAV">     1</i>
   </separator>
   <separator name="electronic spin" >
    <i type="int" name="ISPIN">     2</i>
    <i type="logical" name="LNONCOLLINEAR"> F  </i>
    <v name="MAGMOM">      1.00000000      1.00000000      1.00000000      1.00000000      1.00000000      1.00000000      1.00000000      1.00000000      1.00000000      1.00000000      1.00000000      1.00000000      1.00000000</v>
    <i name="NUPDOWN">     -1.00000000</i>
    <i type="logical" name="LSORBIT"> F  </i>
    <v name="SAXIS">      0.00000000      0.00000000      1.00000000</v>
    <i type="logical" name="LSPIRAL"> F  </i>
    <v name="QSPIRAL">      0.00000000      0.00000000      0.00000000</v>
    <i type="logical" name="LZEROZ"> F  </i>
   </separator>
   <separator name="electronic exchange-correlation" >
    <i type="logical" name="LASPH"> F  </i>
    <i type="logical" name="LMETAGGA"> F  </i>
   </separator>
   <separator name="electronic convergence" >
    <i type="int" name="NELM">   100</i>
    <i type="int" name="NELMDL">    -5</i>
    <i type="int" name="NELMIN">     4</i>
    <i name="ENINI">    500.00000000</i>
    <separator name="electronic convergence detail" >
     <i type="logical" name="LDIAG"> T  </i>
     <i type="logical" name="LSUBROT"> F  </i>
     <i name="WEIMIN">      0.00000000</i>
     <i name="EBREAK">      0.00000000</i>
     <i name="DEPER">      0.30000000</i>
     <i type="int" name="NRMM">     4</i>
     <i name="TIME">      0.40000000</i>
    </separator>
   </separator>
   <separator name="electronic mixer" >
    <i name="AMIX">      0.40000000</i>
    <i name="BMIX">      1.00000000</i>
    <i name="AMIN">      0.10000000</i>
    <i name="AMIX_MAG">      1.60000000</i>
    <i name="BMIX_MAG">      1.00000000</i>
    <separator name="electronic mixer details" >
     <i type="int" name="IMIX">     4</i>
     <i type="int" name="MAXMIX">   -45</i>
     <i name="WC">    100.00000000</i>
     <i type="int" name="INIMIX">     1</i>
     <i type="int" name="MIXPRE">     1</i>
     <i type="int" name="MREMOVE">     5</i>
    </separator>
   </separator>
   <separator name="electronic dipolcorrection" >
    <i type="logical" name="LDIPOL"> F  </i>
    <i type="logical" name="LMONO"> F  </i>
    <i type="int" name="IDIPOL">     0</i>
    <i name="EPSILON">      1.00000000</i>
    <v name="DIPOL">   -100.00000000   -100.00000000   -100.00000000</v>
    <i name="EFIELD">      0.00000000</i>
   </separator>
  </separator>
  <separator name="grids" >
   <i type="int" name="NGX">    30</i>
   <i type="int" name="NGY">    30</i>
   <i type="int" name="NGZ">    90</i>
   <i type="int" name="NGXF">    60</i>
   <i type="int" name="NGYF">    60</i>
   <i type="int" name="NGZF">   180</i>
   <i type="logical" name="ADDGRID"> T  </i>
  </separator>
  <separator name="ionic" >
   <i type="int" name="NSW">     0</i>
   <i type="int" name="IBRION">    -1</i>
   <i type="int" name="ISIF">     2</i>
   <i name="PSTRESS">      0.00000000</i>
   <i name="EDIFFG">      0.00001000</i>
   <i type="int" name="NFREE">     0</i>
   <i name="POTIM">      0.50000000</i>
   <i name="SMASS">     -3.00000000</i>
   <i name="SCALEE">      1.00000000</i>
  </separator>
  <separator name="ionic md" >
   <i name="TEBEG">      0.00010000</i>
   <i name="TEEND">      0.00010000</i>
   <i type="int" name="NBLOCK">     1</i>
   <i type="int" name="KBLOCK">     1</i>
   <i type="int" name="NPACO">   256</i>
   <i name="APACO">     16.00000000</i>
  </separator>
  <separator name="symmetry" >
   <i type="int" name="ISYM">     2</i>
   <i name="SYMPREC">      0.00001000</i>
  </separator>
  <separator name="dos" >
   <i type="logical" name="LORBIT"> F  </i>
   <v name="RWIGS">     -1.00000000     -1.00000000     -1.00000000</v>
   <i type="int" name="NEDOS">   301</i>
   <i name="EMIN">     10.00000000</i>
   <i name="EMAX">    -10.00000000</i>
   <i name="EFERMI">      0.00000000</i>
  </separator>
  <separator name="writing" >
   <i type="int" name="NWRITE">     2</i>
   <i type="logical" name="LWAVE"> F  </i>
   <i type="logical" name="LCHARG"> F  </i>
   <i type="logical" name="LPARD"> F  </i>
   <i type="logical" name="LVTOT"> F  </i>
   <i type="logical" name="LVHAR"> F  </i>
   <i type="logical" name="LELF"> F  </i>
   <i type="logical" name="LOPTICS"> F  </i>
   <v name="STM">      0.00000000      0.00000000      0.00000000      0.00000000      0.00000000      0.00000000      0.00000000</v>
  </separator>
  <separator name="performance" >
   <i type="int" name="NPAR">     4</i>
   <i type="int" name="NSIM">     4</i>
   <i type="int" name="NBLK">    -1</i>
   <i type="logical" name="LPLANE"> T  </i>
   <i type="logical" name="LSCALAPACK"> T  </i>
   <i type="logical" name="LSCAAWARE"> F  </i>
   <i type="logical" name="LSCALU"> F  </i>
   <i type="logical" name="LASYNC"> F  </i>
   <i type="logical" name="LORBITALREAL"> F  </i>
  </separator>
  <separator name="miscellaneous" >
   <i type="int" name="IDIOT">     3</i>
   <i type="logical" name="LMUSIC"> F  </i>
   <v name="POMASS">     87.62000000     63.54600000     16.00000000</v>
   <v name="DARWINR">      0.00000000      0.00000000      0.00000000</v>
   <v name="DARWINV">      1.00000000      1.00000000      1.00000000</v>
   <i type="logical" name="LCORR"> T  </i>
  </separator>
  <i type="logical" name="GGA_COMPAT"> T  </i>
  <i type="logical" name="LBERRY"> F  </i>
  <i type="int" name="ICORELEVEL">     0</i>
  <i type="logical" name="LDAU"> T  </i>
  <v type="int" name="LDAUTYPE">     2</v>
  <v type="int" name="LDAUL">     2</v>
  <v name="LDAUU">      0.00000000</v>
  <v name="LDAUJ">      0.00000000</v>
  <i type="int" name="LDAUPRINT">     0</i>
  <i type="int" name="I_CONSTRAINED_M">     0</i>
  <separator name="electronic exchange-correlation" >
   <i type="string" name="GGA">--</i>
   <i type="int" name="VOSKOWN">     0</i>
   <i type="logical" name="LHFCALC"> F  </i>
   <i type="string" name="PRECFOCK"></i>
   <i type="logical" name="LSYMGRAD"> F  </i>
   <i type="logical" name="LHFONE"> F  </i>
   <i type="logical" name="LRHFCALC"> F  </i>
   <i type="logical" name="LTHOMAS"> F  </i>
   <i type="logical" name="LMODELHF"> F  </i>
   <i name="ENCUT4O">     -1.00000000</i>
   <i type="int" name="EXXOEP">     0</i>
   <i type="int" name="FOURORBIT">     0</i>
   <i name="AEXX">      0.00000000</i>
   <i name="HFALPHA">      0.00000000</i>
   <i name="MCALPHA">      0.00000000</i>
   <i name="ALDAX">      1.00000000</i>
   <i name="AGGAX">      1.00000000</i>
   <i name="ALDAC">      1.00000000</i>
   <i name="AGGAC">      1.00000000</i>
   <i type="int" name="NKREDX">     1</i>
   <i type="int" name="NKREDY">     1</i>
   <i type="int" name="NKREDZ">     1</i>
   <i type="logical" name="SHIFTRED"> F  </i>
   <i type="logical" name="ODDONLY"> F  </i>
   <i type="logical" name="EVENONLY"> F  </i>
   <i type="int" name="LMAXFOCK">     0</i>
   <i type="int" name="NMAXFOCKAE">     0</i>
   <i type="logical" name="LFOCKAEDFT"> F  </i>
   <i name="HFSCREEN">      0.00000000</i>
   <i name="HFSCREENC">      0.00000000</i>
   <i type="int" name="NBANDSGWLOW">     0</i>
  </separator>
  <separator name="vdW DFT" >
   <i type="logical" name="LUSE_VDW"> F  </i>
   <i name="Zab_VDW">     -0.84910000</i>
   <i name="PARAM1">      0.12340000</i>
   <i name="PARAM2">      1.00000000</i>
   <i name="PARAM3">      0.00000000</i>
  </separator>
  <separator name="model GW" >
   <i type="int" name="MODEL_GW">     0</i>
   <i name="MODEL_EPS0">      8.86153846</i>
   <i name="MODEL_ALPHA">      1.00000000</i>
  </separator>
  <separator name="linear response parameters" >
   <i type="logical" name="LEPSILON"> F  </i>
   <i type="logical" name="LRPA"> F  </i>
   <i type="logical" name="LNABLA"> F  </i>
   <i type="logical" name="LVEL"> F  </i>
   <i type="int" name="KINTER">     0</i>
   <i name="CSHIFT">      0.10000000</i>
   <i name="OMEGAMAX">     -1.00000000</i>
   <i name="DEG_THRESHOLD">      0.00200000</i>
  </separator>
  <separator name="orbital magnetization" >
   <i type="logical" name="NUCIND"> F  </i>
   <v name="MAGPOS">      0.00000000      0.00000000      0.00000000</v>
   <i type="logical" name="LNICSALL"> T  </i>
   <i type="logical" name="ORBITALMAG"> F  </i>
   <i type="logical" name="LMAGBLOCH"> F  </i>
   <i type="logical" name="LCHIMAG"> F  </i>
   <i type="logical" name="LGAUGE"> T  </i>
   <i type="int" name="MAGATOM">     0</i>
   <v name="MAGDIPOL">      0.00000000      0.00000000      0.00000000</v>
   <v name="AVECCONST">      0.00000000      0.00000000      0.00000000</v>
  </separator>
  <separator name="response functions" >
   <i type="logical" name="LADDER"> F  </i>
   <i type="logical" name="LFXC"> F  </i>
   <i type="logical" name="LHARTREE"> T  </i>
   <i type="int" name="IBSE">     0</i>
   <i type="logical" name="LTCTE"> F  </i>
   <i type="logical" name="LTETE"> F  </i>
   <i type="logical" name="LTRIPLET"> F  </i>
   <i type="logical" name="LFXCEPS"> F  </i>
   <i type="logical" name="LFXHEG"> F  </i>
   <i type="logical" name="L2ORDER"> F  </i>
   <i type="logical" name="LUSEW"> F  </i>
   <i name="ENCUTGW">     -2.00000000</i>
   <i name="ENCUTGWSOFT">     -2.00000000</i>
   <i name="ENCUTLF">     -1.00000000</i>
   <i type="int" name="LMAXMP2">    -1</i>
   <i name="SCISSOR">      0.00000000</i>
   <i type="int" name="NOMEGA">     0</i>
   <i type="int" name="NOMEGAR">     0</i>
   <i type="int" name="NBANDSGW">    -1</i>
   <i type="int" name="NBANDSO">    -1</i>
   <i type="int" name="NBANDSV">    -1</i>
   <i type="int" name="NELM">   100</i>
   <i type="int" name="DIM">     3</i>
   <i type="int" name="ANTIRES">     0</i>
   <i name="OMEGAMAX">    -30.00000000</i>
   <i name="OMEGAMIN">    -30.00000000</i>
   <i name="OMEGATL">   -200.00000000</i>
   <i type="int" name="OMEGAGRID">     0</i>
   <i name="CSHIFT">     -0.10000000</i>
   <i type="logical" name="SELFENERGY"> F  </i>
   <i type="logical" name="LSPECTRAL"> F  </i>
   <i type="logical" name="ODDONLYGW"> F  </i>
   <i type="logical" name="EVENONLYGW"> F  </i>
   <i type="int" name="NKREDLFX">     1</i>
   <i type="int" name="NKREDLFY">     1</i>
   <i type="int" name="NKREDLFZ">     1</i>
   <i type="int" name="MAXMEM">  1800</i>
   <i type="int" name="TELESCOPE">     0</i>
   <i type="int" name="TAUPAR">     1</i>
  </separator>
  <separator name="External order field" >
   <i name="OFIELD_KAPPA">      0.00000000</i>
   <v name="OFIELD_K">      0.00000000      0.00000000      0.00000000</v>
   <i name="OFIELD_Q6_NEAR">      0.00000000</i>
   <i name="OFIELD_Q6_FAR">      0.00000000</i>
   <i name="OFIELD_A">      0.00000000</i>
  </separator>
 </parameters>
 <atominfo>
  <atoms>      13 </atoms>
  <types>       3 </types>
  <array name="atoms" >
   <dimension dim="1">ion</dimension>
   <field type="string">element</field>
   <field type="int">atomtype</field>
   <set>
    <rc><c>Sr</c><c>   1</c></rc>
    <rc><c>Sr</c><c>   1</c></rc>
    <rc><c>Sr</c><c>   1</c></rc>
    <rc><c>Cu</c><c>   2</c></rc>
    <rc><c>Cu</c><c>   2</c></rc>
    <rc><c>Cu</c><c>   2</c></rc>
    <rc><c>O </c><c>   3</c></rc>
    <rc><c>O </c><c>   3</c></rc>
    <rc><c>O </c><c>   3</c></rc>
    <rc><c>O </c><c>   3</c></rc>
    <rc><c>O </c><c>   3</c></rc>
    <rc><c>O </c><c>   3</c></rc>
    <rc><c>O </c><c>   3</c></rc>
   </set>
  </array>
  <array name="atomtypes" >
   <dimension dim="1">type</dimension>
   <field type="int">atomspertype</field>
   <field type="string">element</field>
   <field>mass</field>
   <field>valence</field>
   <field type="string">pseudopotential</field>
   <set>
    <rc><c>   3</c><c>Sr</c><c>     87.62000000</c><c>     10.00000000</c><c>  PAW_PBE Sr_sv 07Sep2000               </c></rc>
    <rc><c>   3</c><c>Cu</c><c>     63.54600000</c><c>     11.00000000</c><c>  PAW_PBE Cu 22Jun2005                  </c></rc>
    <rc><c>   7</c><c>O </c><c>     16.00000000</c><c>      6.00000000</c><c>  PAW_PBE O_s 07Sep2000                 </c></rc>
   </set>
  </array>
 </atominfo>
 <structure name="initialpos" >
  <crystal>
   <varray name="basis" >
    <v>       4.00000000       0.00000000       0.00000000 </v>
    <v>       0.00000000       4.00000000       0.00000000 </v>
    <v>       0.00000000       0.00000000      12.00000000 </v>
   </varray>
   <i name="volume">    192.00000000 </i>
   <varray name="rec_basis" >
    <v>       0.25000000       0.00000000       0.00000000 </v>
    <v>       0.00000000       0.25000000       0.00000000 </v>
    <v>       0.00000000       0.00000000       0.08333333 </v>
   </varray>
  </crystal>
  <varray name="positions" >
   <v>       0.00000000       0.00000000       0.83333333 </v>
   <v>       0.00000000       0.00000000       0.16666667 </v>
   <v>       0.00000000       0.00000000       0.50000000 </v>
   <v>       0.50000000       0.50000000       0.00000000 </v>
   <v>       0.50000000       0.50000000       0.33333333 </v>
   <v>       0.50000000       0.50000000       0.66666667 </v>
   <v>       0.50000000       0.50000000       0.50000000 </v>
   <v>       0.00000000       0.50000000       0.00000000 </v>
   <v>       0.00000000       0.50000000       0.33333333 </v>
   <v>       0.00000000       0.50000000       0.66666667 </v>
   <v>       0.50000000       0.00000000       0.00000000 </v>
   <v>       0.50000000       0.00000000       0.33333333 </v>
   <v>       0.50000000       0.00000000       0.66666667 </v>
  </varray>
 </structure>
 <calculation>
  <scstep>
   <time name="dav">    1.25    1.25</time>
   <time name="total">    1.41    1.42</time>
   <energy>
    <i name="alphaZ">    486.12755352 </i>
    <i name="ewald">  -6908.73331807 </i>
    <i name="hartreedc">  -2917.24912174 </i>
    <i name="XCdc">    435.41476008 </i>
    <i name="pawpsdc">   7985.74573805 </i>
    <i name="pawaedc">  -8236.49949308 </i>
    <i name="eentropy">     -0.00553567 </i>
    <i name="bandstr">    706.43892433 </i>
    <i name="atom">   9728.62774250 </i>
    <i name="e_fr_energy">   1279.86724991 </i>
    <i name="e_wo_entrp">   1279.87278558 </i>
    <i name="e_0_energy">   1279.87001774 </i>
   </energy>
  </scstep>
  <scstep>
   <time name="dav">    1.25    1.25</time>
   <time name="total">    1.26    1.27</time>
   <energy>
    <i name="e_fr_energy">     94.28523411 </i>
    <i name="e_wo_entrp">     94.28945138 </i>
    <i name="e_0_energy">     94.28734275 </i>
   </energy>
  </scstep>
  <scstep>
   <time name="dav">    1.60    1.60</time>
   <time name="total">    1.60    1.62</time>
   <energy>
    <i name="e_fr_energy">    -70.34436494 </i>
    <i name="e_wo_entrp">    -70.33325192 </i>
    <i name="e_0_energy">    -70.33880843 </i>
   </energy>
  </scstep>
  <scstep>
   <time name="dav">    1.87    1.87</time>
   <time name="total">    1.87    1.89</time>
   <energy>
    <i name="e_fr_energy">    -82.29448551 </i>
    <i name="e_wo_entrp">    -82.28022620 </i>
    <i name="e_0_energy">    -82.28735586 </i>
   </energy>
  </scstep>
  <scstep>
   <time name="dav">    2.24    2.24</time>
   <time name="total">    2.47    2.48</time>
   <energy>
    <i name="e_fr_energy">    -82.80057211 </i>
    <i name="e_wo_entrp">    -82.78605930 </i>
    <i name="e_0_energy">    -82.79331571 </i>
   </energy>
  </scstep>
  <scstep>
   <time name="dav">    1.70    1.70</time>
   <time name="total">    2.07    2.09</time>
   <energy>
    <i name="e_fr_energy">    -76.67359887 </i>
    <i name="e_wo_entrp">    -76.66474499 </i>
    <i name="e_0_energy">    -76.66917193 </i>
   </energy>
  </scstep>
  <scstep>
   <time name="dav">    1.66    1.66</time>
   <time name="total">    2.03    2.05</time>
   <energy>
    <i name="e_fr_energy">    -67.26813269 </i>
    <i name="e_wo_entrp">    -67.25899992 </i>
    <i name="e_0_energy">    -67.26356630 </i>
   </energy>
  </scstep>
  <scstep>
   <time name="dav">    1.82    1.82</time>
   <time name="total">    2.19    2.44</time>
   <energy>
    <i name="e_fr_energy">    -67.87368301 </i>
    <i name="e_wo_entrp">    -67.86547493 </i>
    <i name="e_0_energy">    -67.86957897 </i>
   </energy>
  </scstep>
  <scstep>
   <time name="dav">    1.62    1.62</time>
   <time name="total">    1.99    2.01</time>
   <energy>
    <i name="e_fr_energy">    -69.58882160 </i>
    <i name="e_wo_entrp">    -69.57880878 </i>
    <i name="e_0_energy">    -69.58381519 </i>
   </energy>
  </scstep>
  <scstep>
   <time name="dav">    2.00    2.00</time>
   <time name="total">    2.37    2.39</time>
   <energy>
    <i name="e_fr_energy">    -66.15485039 </i>
    <i name="e_wo_entrp">    -66.14798962 </i>
    <i name="e_0_energy">    -66.15142001 </i>
   </energy>
  </scstep>
  <scstep>
   <time name="dav">    1.81    1.81</time>
   <time name="total">    2.18    2.19</time>
   <energy>
    <i name="e_fr_energy">    -65.52562064 </i>
    <i name="e_wo_entrp">    -65.51300936 </i>
    <i name="e_0_energy">    -65.51931500 </i>
   </energy>
  </scstep>
  <scstep>
   <time name="dav">    1.91    1.91</time>
   <time name="total">    2.29    2.30</time>
   <energy>
    <i name="e_fr_energy">    -65.58708789 </i>
    <i name="e_wo_entrp">    -65.57569278 </i>
    <i name="e_0_energy">    -65.58139034 </i>
   </energy>
  </scstep>
  <scstep>
   <time name="dav">    1.72    1.72</time>
   <time name="total">    2.09    2.11</time>
   <energy>
    <i name="e_fr_energy">    -65.43211766 </i>
    <i name="e_wo_entrp">    -65.42378806 </i>
    <i name="e_0_energy">    -65.42795286 </i>
   </energy>
  </scstep>
  <scstep>
   <time name="dav">    1.90    1.90</time>
   <time name="total">    2.28    2.29</time>
   <energy>
    <i name="e_fr_energy">    -65.19490906 </i>
    <i name="e_wo_entrp">    -65.18965544 </i>
    <i name="e_0_energy">    -65.19228225 </i>
   </energy>
  </scstep>
  <scstep>
   <time name="dav">    1.94    1.94</time>
   <time name="total">    2.31    2.33</time>
   <energy>
    <i name="e_fr_energy">    -65.17785099 </i>
    <i name="e_wo_entrp">    -65.16431630 </i>
    <i name="e_0_energy">    -65.17108364 </i>
   </energy>
  </scstep>
  <scstep>
   <time name="dav">    1.71    1.71</time>
   <time name="total">    2.08    2.09</time>
   <energy>
    <i name="e_fr_energy">    -65.20309881 </i>
    <i name="e_wo_entrp">    -65.19212648 </i>
    <i name="e_0_energy">    -65.19761264 </i>
   </energy>
  </scstep>
  <scstep>
   <time name="dav">    1.72    1.72</time>
   <time name="total">    2.33    2.35</time>
   <energy>
    <i name="e_fr_energy">    -65.21291008 </i>
    <i name="e_wo_entrp">    -65.20737613 </i>
    <i name="e_0_energy">    -65.21014311 </i>
   </energy>
  </scstep>
  <scstep>
   <time name="dav">    1.74    1.74</time>
   <time name="total">    2.12    2.14</time>
   <energy>
    <i name="e_fr_energy">    -65.21806654 </i>
    <i name="e_wo_entrp">    -65.21247539 </i>
    <i name="e_0_energy">    -65.21527096 </i>
   </energy>
  </scstep>
  <scstep>
   <time name="dav">    1.93    1.93</time>
   <time name="total">    2.31    2.32</time>
   <energy>
    <i name="e_fr_energy">    -65.22308225 </i>
    <i name="e_wo_entrp">    -65.21799045 </i>
    <i name="e_0_energy">    -65.22053635 </i>
   </energy>
  </scstep>
  <scstep>
   <time name="dav">    1.68    1.68</time>
   <time name="total">    2.06    2.07</time>
   <energy>
    <i name="e_fr_energy">    -65.23528748 </i>
    <i name="e_wo_entrp">    -65.23004816 </i>
    <i name="e_0_energy">    -65.23266782 </i>
   </energy>
  </scstep>
  <scstep>
   <time name="dav">    1.94    1.94</time>
   <time name="total">    2.32    2.33</time>
   <energy>
    <i name="e_fr_energy">    -65.24638734 </i>
    <i name="e_wo_entrp">    -65.24038519 </i>
    <i name="e_0_energy">    -65.24338626 </i>
   </energy>
  </scstep>
  <scstep>
   <time name="dav">    1.91    1.91</time>
   <time name="total">    2.28    2.30</time>
   <energy>
    <i name="e_fr_energy">    -65.24745800 </i>
    <i name="e_wo_entrp">    -65.24172224 </i>
    <i name="e_0_energy">    -65.24459012 </i>
   </energy>
  </scstep>
  <scstep>
   <time name="dav">    2.01    2.01</time>
   <time name="total">    2.39    2.40</time>
   <energy>
    <i name="e_fr_energy">    -65.24690823 </i>
    <i name="e_wo_entrp">    -65.24114737 </i>
    <i name="e_0_energy">    -65.24402780 </i>
   </energy>
  </scstep>
  <scstep>
   <time name="dav">    1.81    1.81</time>
   <time name="total">    2.18    2.20</time>
   <energy>
    <i name="e_fr_energy">    -65.24375958 </i>
    <i name="e_wo_entrp">    -65.23710232 </i>
    <i name="e_0_energy">    -65.24043095 </i>
   </energy>
  </scstep>
  <scstep>
   <time name="dav">    1.70    1.70</time>
   <time name="total">    2.07    2.08</time>
   <energy>
    <i name="e_fr_energy">    -65.24373266 </i>
    <i name="e_wo_entrp">    -65.23580859 </i>
    <i name="e_0_energy">    -65.23977062 </i>
   </energy>
  </scstep>
  <scstep>
   <time name="dav">    1.70    1.70</time>
   <time name="total">    2.26    2.27</time>
   <energy>
    <i name="e_fr_energy">    -65.24512633 </i>
    <i name="e_wo_entrp">    -65.23674183 </i>
    <i name="e_0_energy">    -65.24093408 </i>
   </energy>
  </scstep>
  <scstep>
   <time name="dav">    1.76    1.76</time>
   <time name="total">    2.14    2.15</time>
   <energy>
    <i name="e_fr_energy">    -65.24543238 </i>
    <i name="e_wo_entrp">    -65.23722159 </i>
    <i name="e_0_energy">    -65.24132699 </i>
   </energy>
  </scstep>
  <scstep>
   <time name="dav">    1.93    1.93</time>
   <time name="total">    2.31    2.33</time>
   <energy>
    <i name="e_fr_energy">    -65.24598176 </i>
    <i name="e_wo_entrp">    -65.23804145 </i>
    <i name="e_0_energy">    -65.24201161 </i>
   </energy>
  </scstep>
  <scstep>
   <time name="dav">    1.91    1.91</time>
   <time name="total">    2.29    2.31</time>
   <energy>
    <i name="e_fr_energy">    -65.24624067 </i>
    <i name="e_wo_entrp">    -65.23780981 </i>
    <i name="e_0_energy">    -65.24202524 </i>
   </energy>
  </scstep>
  <scstep>
   <time name="dav">    2.04    2.04</time>
   <time name="total">    2.41    2.42</time>
   <energy>
    <i name="e_fr_energy">    -65.24643038 </i>
    <i name="e_wo_entrp">    -65.23788723 </i>
    <i name="e_0_energy">    -65.24215881 </i>
   </energy>
  </scstep>
  <scstep>
   <time name="dav">    1.76    1.76</time>
   <time name="total">    2.13    2.15</time>
   <energy>
    <i name="e_fr_energy">    -65.24647083 </i>
    <i name="e_wo_entrp">    -65.23785465 </i>
    <i name="e_0_energy">    -65.24216274 </i>
   </energy>
  </scstep>
  <scstep>
   <time name="dav">    1.96    1.96</time>
   <time name="total">    2.34    2.35</time>
   <energy>
    <i name="e_fr_energy">    -65.24648796 </i>
    <i name="e_wo_entrp">    -65.23768572 </i>
    <i name="e_0_energy">    -65.24208684 </i>
   </energy>
  </scstep>
  <scstep>
   <time name="dav">    1.73    1.73</time>
   <time name="total">    2.10    2.12</time>
   <energy>
    <i name="e_fr_energy">    -65.24648709 </i>
    <i name="e_wo_entrp">    -65.23765721 </i>
    <i name="e_0_energy">    -65.24207215 </i>
   </energy>
  </scstep>
  <scstep>
   <time name="dav">    1.70    1.70</time>
   <time name="total">    2.31    2.33</time>
   <energy>
    <i name="e_fr_energy">    -65.24651979 </i>
    <i name="e_wo_entrp">    -65.23765315 </i>
    <i name="e_0_energy">    -65.24208647 </i>
   </energy>
  </scstep>
  <scstep>
   <time name="dav">    1.77    1.77</time>
   <time name="total">    2.14    2.16</time>
   <energy>
    <i name="e_fr_energy">    -65.24652464 </i>
    <i name="e_wo_entrp">    -65.23755116 </i>
    <i name="e_0_energy">    -65.24203790 </i>
   </energy>
  </scstep>
  <scstep>
   <time name="dav">    1.69    1.69</time>
   <time name="total">    2.07    2.08</time>
   <energy>
    <i name="e_fr_energy">    -65.24652720 </i>
    <i name="e_wo_entrp">    -65.23754545 </i>
    <i name="e_0_energy">    -65.24203632 </i>
   </energy>
  </scstep>
  <scstep>
   <time name="dav">    1.66    1.66</time>
   <time name="total">    2.04    2.05</time>
   <energy>
    <i name="e_fr_energy">    -65.24653014 </i>
    <i name="e_wo_entrp">    -65.23758477 </i>
    <i name="e_0_energy">    -65.24205746 </i>
   </energy>
  </scstep>
  <scstep>
   <time name="dav">    1.32    1.32</time>
   <time name="total">    1.47    1.48</time>
   <energy>
    <i name="alphaZ">    486.12755352 </i>
    <i name="ewald">  -6908.73331807 </i>
    <i name="hartreedc">  -2903.72668736 </i>
    <i name="XCdc">    435.42733195 </i>
    <i name="pawpsdc">  12429.42389674 </i>
    <i name="pawaedc"> -12709.26385706 </i>
    <i name="eentropy">     -0.00897515 </i>
    <i name="bandstr">   -623.12021623 </i>
    <i name="atom">   9728.62774250 </i>
    <i name="e_fr_energy">    -65.24652917 </i>
    <i name="e_wo_entrp">    -65.23755403 </i>
    <i name="e_0_energy">    -65.24204160 </i>
   </energy>
  </scstep>
  <structure>
   <crystal>
    <varray name="basis" >
     <v>       4.00000000       0.00000000       0.00000000 </v>
     <v>       0.00000000       4.00000000       0.00000000 </v>
     <v>       0.00000000       0.00000000      12.00000000 </v>
    </varray>
    <i name="volume">    192.00000000 </i>
    <varray name="rec_basis" >
     <v>       0.25000000       0.00000000       0.00000000 </v>
     <v>       0.00000000       0.25000000       0.00000000 </v>
     <v>       0.00000000       0.00000000       0.08333333 </v>
    </varray>
   </crystal>
   <varray name="positions" >
    <v>       0.00000000       0.00000000       0.83333333 </v>
    <v>       0.00000000       0.00000000       0.16666667 </v>
    <v>       0.00000000       0.00000000       0.50000000 </v>
    <v>       0.50000000       0.50000000       0.00000000 </v>
    <v>       0.50000000       0.50000000       0.33333333 </v>
    <v>       0.50000000       0.50000000       0.66666667 </v>
    <v>       0.50000000       0.50000000       0.50000000 </v>
    <v>       0.00000000       0.50000000       0.00000000 </v>
    <v>       0.00000000       0.50000000       0.33333333 </v>
    <v>       0.00000000       0.50000000       0.66666667 </v>
    <v>       0.50000000       0.00000000       0.00000000 </v>
    <v>       0.50000000       0.00000000       0.33333333 </v>
    <v>       0.50000000       0.00000000       0.66666667 </v>
   </varray>
  </structure>
  <varray name="forces" >
   <v>       0.00000000       0.00000000      -0.20706220 </v>
   <v>       0.00000000       0.00000000       0.20706220 </v>
   <v>       0.00000000       0.00000000       0.00000000 </v>
   <v>       0.00000000       0.00000000       0.00000000 </v>
   <v>       0.00000000       0.00000000       1.15816572 </v>
   <v>       0.00000000       0.00000000      -1.15816572 </v>
   <v>       0.00000000       0.00000000       0.00000000 </v>
   <v>       0.00000000       0.00000000       0.00000000 </v>
   <v>       0.00000000       0.00000000      -1.26957416 </v>
   <v>       0.00000000       0.00000000       1.26957416 </v>
   <v>       0.00000000       0.00000000       0.00000000 </v>
   <v>       0.00000000       0.00000000      -1.26957416 </v>
   <v>       0.00000000       0.00000000       1.26957416 </v>
  </varray>
  <varray name="stress" >
   <v>     -80.86250025       0.00000000       0.00000000 </v>
   <v>       0.00000000     -80.86250025       0.00000000 </v>
   <v>       0.00000000       0.00000000    -128.93945247 </v>
  </varray>
  <energy>
   <i name="e_fr_energy">    -65.24652917 </i>
   <i name="e_wo_entrp">    -65.24204160 </i>
   <i name="e_0_energy">     -0.00897515 </i>
  </energy>
  <time name="totalsc">   84.92   85.75</time>
  <eigenvalues>
   <array>
    <dimension dim="1">band</dimension>
    <dimension dim="2">kpoint</dimension>
    <dimension dim="3">spin</dimension>
    <field>eigene</field>
    <field>occ</field>
    <set>
     <set comment="spin 1">
      <set comment="kpoint 1">
       <r>  -31.4346    1.0000 </r>
       <r>  -31.4275    1.0000 </r>
       <r>  -29.9051    1.0000 </r>
       <r>  -15.1447    1.0000 </r>
       <r>  -14.8452    1.0000 </r>
       <r>  -14.7045    1.0000 </r>
       <r>  -13.8089    1.0000 </r>
       <r>  -13.5990    1.0000 </r>
       <r>  -13.5669    1.0000 </r>
       <r>  -13.5538    1.0000 </r>
       <r>  -13.4440    1.0000 </r>
       <r>  -13.4440    1.0000 </r>
       <r>  -13.4264    1.0000 </r>
       <r>  -13.4264    1.0000 </r>
       <r>  -13.0456    1.0000 </r>
       <r>  -12.7095    1.0000 </r>
       <r>  -11.8395    1.0000 </r>
       <r>  -11.8395    1.0000 </r>
       <r>  -11.6764    1.0000 </r>
       <r>   -2.2396    1.0000 </r>
       <r>   -1.1671    1.0000 </r>
       <r>   -1.1671    1.0000 </r>
       <r>   -1.0937    1.0000 </r>
       <r>   -1.0937    1.0000 </r>
       <r>   -1.0219    1.0000 </r>
       <r>   -1.0165    1.0000 </r>
       <r>   -1.0022    1.0000 </r>
       <r>   -0.9813    1.0000 </r>
       <r>   -0.9520    1.0000 </r>
       <r>   -0.9520    1.0000 </r>
       <r>   -0.9268    1.0000 </r>
       <r>   -0.8568    1.0000 </r>
       <r>   -0.8568    1.0000 </r>
       <r>   -0.8371    1.0000 </r>
       <r>   -0.8371    1.0000 </r>
       <r>   -0.8274    1.0000 </r>
       <r>   -0.8274    1.0000 </r>
       <r>   -0.4682    1.0000 </r>
       <r>    0.1018    1.0000 </r>
       <r>    0.1021    1.0000 </r>
       <r>    0.1512    1.0000 </r>
       <r>    0.2115    1.0000 </r>
       <r>    0.2424    1.0000 </r>
       <r>    0.6093    1.0000 </r>
       <r>    0.9767    1.0000 </r>
       <r>    1.4203    1.0000 </r>
       <r>    1.5351    1.0000 </r>
       <r>    1.5351    1.0000 </r>
       <r>    1.7616    1.0000 </r>
       <r>    1.7616    1.0000 </r>
       <r>    1.8021    1.0000 </r>
       <r>    1.8021    1.0000 </r>
       <r>    2.0232    1.0000 </r>
       <r>    2.2202    1.0000 </r>
       <r>    2.2202    1.0000 </r>
       <r>    3.8662    0.0000 </r>
       <r>    5.1759    0.0000 </r>
       <r>    7.2714    0.0000 </r>
       <r>    7.5153    0.0000 </r>
       <r>    7.7950    0.0000 </r>
       <r>    8.2978    0.0000 </r>
       <r>    9.0930    0.0000 </r>
       <r>    9.4562    0.0000 </r>
       <r>    9.4636    0.0000 </r>
       <r>    9.5359    0.0000 </r>
       <r>    9.6379    0.0000 </r>
       <r>    9.7760    0.0000 </r>
       <r>    9.7760    0.0000 </r>
       <r>   10.5804    0.0000 </r>
       <r>   10.5804    0.0000 </r>
       <r>   10.9253    0.0000 </r>
       <r>   10.9838    0.0000 </r>
      </set>
      <set comment="kpoint 2">
       <r>  -31.4301    1.0000 </r>
       <r>  -31.4232    1.0000 </r>
       <r>  -29.9000    1.0000 </r>
       <r>  -15.0108    1.0000 </r>
       <r>  -14.7186    1.0000 </r>
       <r>  -14.6879    1.0000 </r>
       <r>  -13.9930    1.0000 </r>
       <r>  -13.7493    1.0000 </r>
       <r>  -13.7364    1.0000 </r>
       <r>  -13.6319    1.0000 </r>
       <r>  -13.4368    1.0000 </r>
       <r>  -13.4193    1.0000 </r>
       <r>  -13.3566    1.0000 </r>
       <r>  -13.2388    1.0000 </r>
       <r>  -13.0397    1.0000 </r>
       <r>  -12.7575    1.0000 </r>
       <r>  -11.8261    1.0000 </r>
       <r>  -11.7266    1.0000 </r>
       <r>  -11.7053    1.0000 </r>
       <r>   -2.2416    1.0000 </r>
       <r>   -1.9330    1.0000 </r>
       <r>   -1.8214    1.0000 </r>
       <r>   -1.7862    1.0000 </r>
       <r>   -1.4836    1.0000 </r>
       <r>   -1.3695    1.0000 </r>
       <r>   -1.3459    1.0000 </r>
       <r>   -1.2865    1.0000 </r>
       <r>   -1.2481    1.0000 </r>
       <r>   -1.1700    1.0000 </r>
       <r>   -1.1006    1.0000 </r>
       <r>   -0.9421    1.0000 </r>
       <r>   -0.8528    1.0000 </r>
       <r>   -0.7393    1.0000 </r>
       <r>   -0.7374    1.0000 </r>
       <r>   -0.6512    1.0000 </r>
       <r>   -0.5465    1.0000 </r>
       <r>   -0.4178    1.0000 </r>
       <r>   -0.3986    1.0000 </r>
       <r>    0.2992    1.0000 </r>
       <r>    0.3242    1.0000 </r>
       <r>    0.5319    1.0000 </r>
       <r>    0.5998    1.0000 </r>
       <r>    0.7230    1.0000 </r>
       <r>    0.8376    1.0000 </r>
       <r>    1.0884    1.0000 </r>
       <r>    1.4106    1.0000 </r>
       <r>    1.4930    1.0000 </r>
       <r>    1.5083    1.0000 </r>
       <r>    1.5281    1.0000 </r>
       <r>    1.7231    1.0000 </r>
       <r>    1.7348    1.0000 </r>
       <r>    1.8017    1.0000 </r>
       <r>    2.0221    1.0000 </r>
       <r>    2.1279    1.0000 </r>
       <r>    2.6285    0.0045 </r>
       <r>    4.6084    0.0000 </r>
       <r>    5.4742    0.0000 </r>
       <r>    7.4877    0.0000 </r>
       <r>    8.0945    0.0000 </r>
       <r>    8.3521    0.0000 </r>
       <r>    8.3592    0.0000 </r>
       <r>    8.9603    0.0000 </r>
       <r>    8.9682    0.0000 </r>
       <r>    9.2256    0.0000 </r>
       <r>    9.6867    0.0000 </r>
       <r>    9.8359    0.0000 </r>
       <r>   10.0025    0.0000 </r>
       <r>   10.0594    0.0000 </r>
       <r>   10.5724    0.0000 </r>
       <r>   10.5983    0.0000 </r>
       <r>   10.9867    0.0000 </r>
       <r>   11.0057    0.0000 </r>
      </set>
      <set comment="kpoint 3">
       <r>  -31.4226    1.0000 </r>
       <r>  -31.4161    1.0000 </r>
       <r>  -29.8918    1.0000 </r>
       <r>  -14.7524    1.0000 </r>
       <r>  -14.6327    1.0000 </r>
       <r>  -14.4185    1.0000 </r>
       <r>  -14.2667    1.0000 </r>
       <r>  -14.0466    1.0000 </r>
       <r>  -13.9161    1.0000 </r>
       <r>  -13.6696    1.0000 </r>
       <r>  -13.4251    1.0000 </r>
       <r>  -13.4079    1.0000 </r>
       <r>  -13.3613    1.0000 </r>
       <r>  -13.0940    1.0000 </r>
       <r>  -13.0273    1.0000 </r>
       <r>  -12.8132    1.0000 </r>
       <r>  -11.8041    1.0000 </r>
       <r>  -11.7463    1.0000 </r>
       <r>  -11.5775    1.0000 </r>
       <r>   -2.7846    1.0000 </r>
       <r>   -2.6807    1.0000 </r>
       <r>   -2.6419    1.0000 </r>
       <r>   -2.2284    1.0000 </r>
       <r>   -1.8616    1.0000 </r>
       <r>   -1.6443    1.0000 </r>
       <r>   -1.5262    1.0000 </r>
       <r>   -1.4853    1.0000 </r>
       <r>   -1.4183    1.0000 </r>
       <r>   -1.3472    1.0000 </r>
       <r>   -1.2230    1.0000 </r>
       <r>   -0.9470    1.0000 </r>
       <r>   -0.8536    1.0000 </r>
       <r>   -0.6416    1.0000 </r>
       <r>   -0.5978    1.0000 </r>
       <r>   -0.4888    1.0000 </r>
       <r>   -0.3654    1.0000 </r>
       <r>   -0.2980    1.0000 </r>
       <r>    0.0726    1.0000 </r>
       <r>    0.2460    1.0000 </r>
       <r>    0.4956    1.0000 </r>
       <r>    0.6341    1.0000 </r>
       <r>    0.9162    1.0000 </r>
       <r>    0.9727    1.0000 </r>
       <r>    1.0785    1.0000 </r>
       <r>    1.1078    1.0000 </r>
       <r>    1.1983    1.0000 </r>
       <r>    1.5189    1.0000 </r>
       <r>    1.5193    1.0000 </r>
       <r>    1.6866    1.0000 </r>
       <r>    1.7152    1.0000 </r>
       <r>    1.8416    1.0000 </r>
       <r>    1.8942    1.0000 </r>
       <r>    1.9620    1.0000 </r>
       <r>    1.9957    1.0000 </r>
       <r>    2.9920    0.0000 </r>
       <r>    5.9862    0.0000 </r>
       <r>    6.2502    0.0000 </r>
       <r>    7.1942    0.0000 </r>
       <r>    7.8428    0.0000 </r>
       <r>    8.2613    0.0000 </r>
       <r>    8.3506    0.0000 </r>
       <r>    8.7636    0.0000 </r>
       <r>    9.2232    0.0000 </r>
       <r>    9.3182    0.0000 </r>
       <r>    9.9311    0.0000 </r>
       <r>   10.4078    0.0000 </r>
       <r>   10.4176    0.0000 </r>
       <r>   10.6174    0.0000 </r>
       <r>   11.0203    0.0000 </r>
       <r>   11.1387    0.0000 </r>
       <r>   11.3919    0.0000 </r>
       <r>   11.4971    0.0000 </r>
      </set>
      <set comment="kpoint 4">
       <r>  -31.4255    1.0000 </r>
       <r>  -31.4189    1.0000 </r>
       <r>  -29.8951    1.0000 </r>
       <r>  -14.8874    1.0000 </r>
       <r>  -14.6387    1.0000 </r>
       <r>  -14.6037    1.0000 </r>
       <r>  -14.1413    1.0000 </r>
       <r>  -13.8323    1.0000 </r>
       <r>  -13.7636    1.0000 </r>
       <r>  -13.7323    1.0000 </r>
       <r>  -13.4731    1.0000 </r>
       <r>  -13.3058    1.0000 </r>
       <r>  -13.3048    1.0000 </r>
       <r>  -13.1979    1.0000 </r>
       <r>  -13.0389    1.0000 </r>
       <r>  -12.8314    1.0000 </r>
       <r>  -11.8312    1.0000 </r>
       <r>  -11.7436    1.0000 </r>
       <r>  -11.6833    1.0000 </r>
       <r>   -2.2398    1.0000 </r>
       <r>   -2.0044    1.0000 </r>
       <r>   -1.9047    1.0000 </r>
       <r>   -1.8469    1.0000 </r>
       <r>   -1.8310    1.0000 </r>
       <r>   -1.7528    1.0000 </r>
       <r>   -1.7330    1.0000 </r>
       <r>   -1.5064    1.0000 </r>
       <r>   -1.3724    1.0000 </r>
       <r>   -1.3630    1.0000 </r>
       <r>   -1.3629    1.0000 </r>
       <r>   -1.3400    1.0000 </r>
       <r>   -1.2975    1.0000 </r>
       <r>   -1.1695    1.0000 </r>
       <r>   -1.1233    1.0000 </r>
       <r>   -1.1105    1.0000 </r>
       <r>   -0.5736    1.0000 </r>
       <r>   -0.1095    1.0000 </r>
       <r>    0.0172    1.0000 </r>
       <r>    0.5997    1.0000 </r>
       <r>    0.7430    1.0000 </r>
       <r>    0.9249    1.0000 </r>
       <r>    0.9991    1.0000 </r>
       <r>    1.0852    1.0000 </r>
       <r>    1.1446    1.0000 </r>
       <r>    1.2325    1.0000 </r>
       <r>    1.2424    1.0000 </r>
       <r>    1.2634    1.0000 </r>
       <r>    1.3010    1.0000 </r>
       <r>    1.4523    1.0000 </r>
       <r>    1.7220    1.0000 </r>
       <r>    2.0355    1.0000 </r>
       <r>    2.3891    1.0000 </r>
       <r>    2.5261    0.6122 </r>
       <r>    2.5578    0.2707 </r>
       <r>    2.7061    0.0000 </r>
       <r>    5.0797    0.0000 </r>
       <r>    5.5699    0.0000 </r>
       <r>    7.8606    0.0000 </r>
       <r>    8.1376    0.0000 </r>
       <r>    8.1722    0.0000 </r>
       <r>    8.4314    0.0000 </r>
       <r>    8.6143    0.0000 </r>
       <r>    8.8830    0.0000 </r>
       <r>    9.1990    0.0000 </r>
       <r>    9.8344    0.0000 </r>
       <r>   10.1404    0.0000 </r>
       <r>   10.1688    0.0000 </r>
       <r>   10.3362    0.0000 </r>
       <r>   10.6710    0.0000 </r>
       <r>   10.8754    0.0000 </r>
       <r>   11.2441    0.0000 </r>
       <r>   11.3788    0.0000 </r>
      </set>
      <set comment="kpoint 5">
       <r>  -31.4182    1.0000 </r>
       <r>  -31.4119    1.0000 </r>
       <r>  -29.8872    1.0000 </r>
       <r>  -14.6808    1.0000 </r>
       <r>  -14.5180    1.0000 </r>
       <r>  -14.3423    1.0000 </r>
       <r>  -14.2878    1.0000 </r>
       <r>  -14.0468    1.0000 </r>
       <r>  -14.0312    1.0000 </r>
       <r>  -13.6794    1.0000 </r>
       <r>  -13.4496    1.0000 </r>
       <r>  -13.3227    1.0000 </r>
       <r>  -13.2609    1.0000 </r>
       <r>  -13.0862    1.0000 </r>
       <r>  -13.0391    1.0000 </r>
       <r>  -12.9389    1.0000 </r>
       <r>  -11.8163    1.0000 </r>
       <r>  -11.8021    1.0000 </r>
       <r>  -11.6540    1.0000 </r>
       <r>   -2.8356    1.0000 </r>
       <r>   -2.7129    1.0000 </r>
       <r>   -2.6751    1.0000 </r>
       <r>   -2.2152    1.0000 </r>
       <r>   -1.8895    1.0000 </r>
       <r>   -1.8363    1.0000 </r>
       <r>   -1.7656    1.0000 </r>
       <r>   -1.7510    1.0000 </r>
       <r>   -1.7126    1.0000 </r>
       <r>   -1.6406    1.0000 </r>
       <r>   -1.6039    1.0000 </r>
       <r>   -1.5377    1.0000 </r>
       <r>   -1.3886    1.0000 </r>
       <r>   -1.3866    1.0000 </r>
       <r>   -1.1846    1.0000 </r>
       <r>   -1.1551    1.0000 </r>
       <r>   -0.5197    1.0000 </r>
       <r>    0.0386    1.0000 </r>
       <r>    0.5190    1.0000 </r>
       <r>    0.7221    1.0000 </r>
       <r>    0.7346    1.0000 </r>
       <r>    0.9630    1.0000 </r>
       <r>    1.1111    1.0000 </r>
       <r>    1.1797    1.0000 </r>
       <r>    1.2332    1.0000 </r>
       <r>    1.2409    1.0000 </r>
       <r>    1.6075    1.0000 </r>
       <r>    1.6317    1.0000 </r>
       <r>    1.6728    1.0000 </r>
       <r>    1.8509    1.0000 </r>
       <r>    1.9251    1.0000 </r>
       <r>    2.1254    1.0000 </r>
       <r>    2.3367    1.0000 </r>
       <r>    2.7708    0.0000 </r>
       <r>    3.0418    0.0000 </r>
       <r>    3.0990    0.0000 </r>
       <r>    5.6193    0.0000 </r>
       <r>    6.0746    0.0000 </r>
       <r>    7.3824    0.0000 </r>
       <r>    8.0218    0.0000 </r>
       <r>    8.4931    0.0000 </r>
       <r>    8.8956    0.0000 </r>
       <r>    9.0219    0.0000 </r>
       <r>    9.5387    0.0000 </r>
       <r>    9.6188    0.0000 </r>
       <r>    9.9176    0.0000 </r>
       <r>   10.1155    0.0000 </r>
       <r>   10.6060    0.0000 </r>
       <r>   10.7882    0.0000 </r>
       <r>   11.1743    0.0000 </r>
       <r>   11.1752    0.0000 </r>
       <r>   11.3071    0.0000 </r>
       <r>   11.3628    0.0000 </r>
      </set>
      <set comment="kpoint 6">
       <r>  -31.4110    1.0000 </r>
       <r>  -31.4050    1.0000 </r>
       <r>  -29.8797    1.0000 </r>
       <r>  -14.5670    1.0000 </r>
       <r>  -14.4869    1.0000 </r>
       <r>  -14.2117    1.0000 </r>
       <r>  -14.2001    1.0000 </r>
       <r>  -14.1005    1.0000 </r>
       <r>  -13.9737    1.0000 </r>
       <r>  -13.7200    1.0000 </r>
       <r>  -13.3936    1.0000 </r>
       <r>  -13.2831    1.0000 </r>
       <r>  -13.2214    1.0000 </r>
       <r>  -13.1134    1.0000 </r>
       <r>  -13.0799    1.0000 </r>
       <r>  -13.0733    1.0000 </r>
       <r>  -11.8965    1.0000 </r>
       <r>  -11.8289    1.0000 </r>
       <r>  -11.7811    1.0000 </r>
       <r>   -3.1969    1.0000 </r>
       <r>   -3.0258    1.0000 </r>
       <r>   -2.9356    1.0000 </r>
       <r>   -2.5139    1.0000 </r>
       <r>   -2.4308    1.0000 </r>
       <r>   -2.4257    1.0000 </r>
       <r>   -2.2455    1.0000 </r>
       <r>   -2.1850    1.0000 </r>
       <r>   -2.0197    1.0000 </r>
       <r>   -1.9624    1.0000 </r>
       <r>   -1.6784    1.0000 </r>
       <r>   -1.6494    1.0000 </r>
       <r>   -1.5012    1.0000 </r>
       <r>   -1.4830    1.0000 </r>
       <r>   -1.4426    1.0000 </r>
       <r>   -1.4415    1.0000 </r>
       <r>   -0.5380    1.0000 </r>
       <r>    0.1521    1.0000 </r>
       <r>    0.8253    1.0000 </r>
       <r>    1.1026    1.0000 </r>
       <r>    1.1094    1.0000 </r>
       <r>    1.2441    1.0000 </r>
       <r>    1.2723    1.0000 </r>
       <r>    1.3071    1.0000 </r>
       <r>    1.3576    1.0000 </r>
       <r>    1.3834    1.0000 </r>
       <r>    1.5365    1.0000 </r>
       <r>    2.0084    1.0000 </r>
       <r>    2.0638    1.0000 </r>
       <r>    2.1822    1.0000 </r>
       <r>    2.2649    1.0000 </r>
       <r>    2.3984    1.0000 </r>
       <r>    2.4161    0.9997 </r>
       <r>    3.8857    0.0000 </r>
       <r>    3.9685    0.0000 </r>
       <r>    3.9951    0.0000 </r>
       <r>    4.9024    0.0000 </r>
       <r>    5.8421    0.0000 </r>
       <r>    8.5087    0.0000 </r>
       <r>    8.9622    0.0000 </r>
       <r>    8.9803    0.0000 </r>
       <r>    9.2538    0.0000 </r>
       <r>    9.3475    0.0000 </r>
       <r>    9.7287    0.0000 </r>
       <r>    9.9949    0.0000 </r>
       <r>   10.1859    0.0000 </r>
       <r>   10.3718    0.0000 </r>
       <r>   10.4566    0.0000 </r>
       <r>   10.7989    0.0000 </r>
       <r>   11.3649    0.0000 </r>
       <r>   11.3886    0.0000 </r>
       <r>   11.5231    0.0000 </r>
       <r>   11.6935    0.0000 </r>
      </set>
      <set comment="kpoint 7">
       <r>  -31.4346    1.0000 </r>
       <r>  -31.4275    1.0000 </r>
       <r>  -29.9051    1.0000 </r>
       <r>  -15.1546    1.0000 </r>
       <r>  -14.8200    1.0000 </r>
       <r>  -14.7132    1.0000 </r>
       <r>  -13.8088    1.0000 </r>
       <r>  -13.6356    1.0000 </r>
       <r>  -13.5676    1.0000 </r>
       <r>  -13.5531    1.0000 </r>
       <r>  -13.4439    1.0000 </r>
       <r>  -13.4439    1.0000 </r>
       <r>  -13.4264    1.0000 </r>
       <r>  -13.4264    1.0000 </r>
       <r>  -12.9557    1.0000 </r>
       <r>  -12.7722    1.0000 </r>
       <r>  -11.8395    1.0000 </r>
       <r>  -11.8395    1.0000 </r>
       <r>  -11.6735    1.0000 </r>
       <r>   -2.2397    1.0000 </r>
       <r>   -1.1656    1.0000 </r>
       <r>   -1.1656    1.0000 </r>
       <r>   -1.1237    1.0000 </r>
       <r>   -1.0996    1.0000 </r>
       <r>   -1.0996    1.0000 </r>
       <r>   -1.0214    1.0000 </r>
       <r>   -1.0170    1.0000 </r>
       <r>   -0.9812    1.0000 </r>
       <r>   -0.9462    1.0000 </r>
       <r>   -0.9462    1.0000 </r>
       <r>   -0.8544    1.0000 </r>
       <r>   -0.8544    1.0000 </r>
       <r>   -0.8506    1.0000 </r>
       <r>   -0.8506    1.0000 </r>
       <r>   -0.8174    1.0000 </r>
       <r>   -0.8174    1.0000 </r>
       <r>   -0.8056    1.0000 </r>
       <r>   -0.3036    1.0000 </r>
       <r>   -0.1129    1.0000 </r>
       <r>    0.1014    1.0000 </r>
       <r>    0.1026    1.0000 </r>
       <r>    0.1513    1.0000 </r>
       <r>    0.4126    1.0000 </r>
       <r>    0.5585    1.0000 </r>
       <r>    1.1724    1.0000 </r>
       <r>    1.2685    1.0000 </r>
       <r>    1.5393    1.0000 </r>
       <r>    1.5393    1.0000 </r>
       <r>    1.7672    1.0000 </r>
       <r>    1.7672    1.0000 </r>
       <r>    1.7923    1.0000 </r>
       <r>    1.7923    1.0000 </r>
       <r>    1.9735    1.0000 </r>
       <r>    2.2192    1.0000 </r>
       <r>    2.2192    1.0000 </r>
       <r>    4.0320    0.0000 </r>
       <r>    4.9661    0.0000 </r>
       <r>    7.4408    0.0000 </r>
       <r>    7.7281    0.0000 </r>
       <r>    8.0345    0.0000 </r>
       <r>    8.2870    0.0000 </r>
       <r>    8.3493    0.0000 </r>
       <r>    9.2004    0.0000 </r>
       <r>    9.5384    0.0000 </r>
       <r>    9.5698    0.0000 </r>
       <r>    9.6351    0.0000 </r>
       <r>    9.8910    0.0000 </r>
       <r>    9.8910    0.0000 </r>
       <r>   10.3696    0.0000 </r>
       <r>   10.3696    0.0000 </r>
       <r>   10.7249    0.0000 </r>
       <r>   10.9849    0.0000 </r>
      </set>
      <set comment="kpoint 8">
       <r>  -31.4300    1.0000 </r>
       <r>  -31.4232    1.0000 </r>
       <r>  -29.9000    1.0000 </r>
       <r>  -15.0137    1.0000 </r>
       <r>  -14.7483    1.0000 </r>
       <r>  -14.6481    1.0000 </r>
       <r>  -13.9860    1.0000 </r>
       <r>  -13.7885    1.0000 </r>
       <r>  -13.6895    1.0000 </r>
       <r>  -13.6701    1.0000 </r>
       <r>  -13.4367    1.0000 </r>
       <r>  -13.4194    1.0000 </r>
       <r>  -13.3535    1.0000 </r>
       <r>  -13.2573    1.0000 </r>
       <r>  -12.9631    1.0000 </r>
       <r>  -12.8034    1.0000 </r>
       <r>  -11.8261    1.0000 </r>
       <r>  -11.7266    1.0000 </r>
       <r>  -11.7043    1.0000 </r>
       <r>   -2.2425    1.0000 </r>
       <r>   -1.9312    1.0000 </r>
       <r>   -1.8238    1.0000 </r>
       <r>   -1.7819    1.0000 </r>
       <r>   -1.5547    1.0000 </r>
       <r>   -1.3538    1.0000 </r>
       <r>   -1.2642    1.0000 </r>
       <r>   -1.2615    1.0000 </r>
       <r>   -1.2294    1.0000 </r>
       <r>   -1.1763    1.0000 </r>
       <r>   -1.1712    1.0000 </r>
       <r>   -0.9398    1.0000 </r>
       <r>   -0.8565    1.0000 </r>
       <r>   -0.7385    1.0000 </r>
       <r>   -0.6621    1.0000 </r>
       <r>   -0.6506    1.0000 </r>
       <r>   -0.6057    1.0000 </r>
       <r>   -0.5464    1.0000 </r>
       <r>   -0.1442    1.0000 </r>
       <r>    0.0312    1.0000 </r>
       <r>    0.4073    1.0000 </r>
       <r>    0.5077    1.0000 </r>
       <r>    0.6231    1.0000 </r>
       <r>    0.7881    1.0000 </r>
       <r>    0.8080    1.0000 </r>
       <r>    1.2095    1.0000 </r>
       <r>    1.3303    1.0000 </r>
       <r>    1.3702    1.0000 </r>
       <r>    1.5292    1.0000 </r>
       <r>    1.5672    1.0000 </r>
       <r>    1.7326    1.0000 </r>
       <r>    1.7592    1.0000 </r>
       <r>    1.7776    1.0000 </r>
       <r>    2.0484    1.0000 </r>
       <r>    2.1255    1.0000 </r>
       <r>    2.6283    0.0046 </r>
       <r>    4.6352    0.0000 </r>
       <r>    5.4233    0.0000 </r>
       <r>    7.5785    0.0000 </r>
       <r>    8.1847    0.0000 </r>
       <r>    8.2192    0.0000 </r>
       <r>    8.7229    0.0000 </r>
       <r>    8.7328    0.0000 </r>
       <r>    8.9610    0.0000 </r>
       <r>    8.9656    0.0000 </r>
       <r>    9.5704    0.0000 </r>
       <r>    9.8045    0.0000 </r>
       <r>    9.9453    0.0000 </r>
       <r>   10.2916    0.0000 </r>
       <r>   10.4112    0.0000 </r>
       <r>   10.4189    0.0000 </r>
       <r>   11.0747    0.0000 </r>
       <r>   11.0749    0.0000 </r>
      </set>
      <set comment="kpoint 9">
       <r>  -31.4226    1.0000 </r>
       <r>  -31.4162    1.0000 </r>
       <r>  -29.8918    1.0000 </r>
       <r>  -14.7340    1.0000 </r>
       <r>  -14.6278    1.0000 </r>
       <r>  -14.5231    1.0000 </r>
       <r>  -14.1234    1.0000 </r>
       <r>  -14.0159    1.0000 </r>
       <r>  -13.9308    1.0000 </r>
       <r>  -13.8050    1.0000 </r>
       <r>  -13.4250    1.0000 </r>
       <r>  -13.4080    1.0000 </r>
       <r>  -13.2883    1.0000 </r>
       <r>  -13.1241    1.0000 </r>
       <r>  -12.9905    1.0000 </r>
       <r>  -12.8352    1.0000 </r>
       <r>  -11.8041    1.0000 </r>
       <r>  -11.7458    1.0000 </r>
       <r>  -11.5778    1.0000 </r>
       <r>   -2.7853    1.0000 </r>
       <r>   -2.6805    1.0000 </r>
       <r>   -2.6420    1.0000 </r>
       <r>   -2.2283    1.0000 </r>
       <r>   -1.9072    1.0000 </r>
       <r>   -1.5406    1.0000 </r>
       <r>   -1.5192    1.0000 </r>
       <r>   -1.4509    1.0000 </r>
       <r>   -1.4382    1.0000 </r>
       <r>   -1.4269    1.0000 </r>
       <r>   -1.2231    1.0000 </r>
       <r>   -0.9418    1.0000 </r>
       <r>   -0.8634    1.0000 </r>
       <r>   -0.5916    1.0000 </r>
       <r>   -0.5732    1.0000 </r>
       <r>   -0.5124    1.0000 </r>
       <r>   -0.4351    1.0000 </r>
       <r>   -0.2943    1.0000 </r>
       <r>    0.1212    1.0000 </r>
       <r>    0.1909    1.0000 </r>
       <r>    0.5799    1.0000 </r>
       <r>    0.6221    1.0000 </r>
       <r>    0.8317    1.0000 </r>
       <r>    0.9932    1.0000 </r>
       <r>    1.0208    1.0000 </r>
       <r>    1.1765    1.0000 </r>
       <r>    1.2637    1.0000 </r>
       <r>    1.5004    1.0000 </r>
       <r>    1.5102    1.0000 </r>
       <r>    1.6063    1.0000 </r>
       <r>    1.7605    1.0000 </r>
       <r>    1.7935    1.0000 </r>
       <r>    1.8663    1.0000 </r>
       <r>    1.9539    1.0000 </r>
       <r>    2.0732    1.0000 </r>
       <r>    3.0100    0.0000 </r>
       <r>    5.9828    0.0000 </r>
       <r>    6.2402    0.0000 </r>
       <r>    7.2272    0.0000 </r>
       <r>    7.7990    0.0000 </r>
       <r>    8.2612    0.0000 </r>
       <r>    8.3505    0.0000 </r>
       <r>    8.7754    0.0000 </r>
       <r>    9.3028    0.0000 </r>
       <r>    9.4232    0.0000 </r>
       <r>    9.9361    0.0000 </r>
       <r>   10.0228    0.0000 </r>
       <r>   10.4570    0.0000 </r>
       <r>   10.4755    0.0000 </r>
       <r>   10.9685    0.0000 </r>
       <r>   10.9802    0.0000 </r>
       <r>   11.4056    0.0000 </r>
       <r>   11.6956    0.0000 </r>
      </set>
      <set comment="kpoint 10">
       <r>  -31.4255    1.0000 </r>
       <r>  -31.4189    1.0000 </r>
       <r>  -29.8951    1.0000 </r>
       <r>  -14.8864    1.0000 </r>
       <r>  -14.6688    1.0000 </r>
       <r>  -14.5720    1.0000 </r>
       <r>  -14.1368    1.0000 </r>
       <r>  -13.8733    1.0000 </r>
       <r>  -13.7259    1.0000 </r>
       <r>  -13.7157    1.0000 </r>
       <r>  -13.4585    1.0000 </r>
       <r>  -13.3641    1.0000 </r>
       <r>  -13.3320    1.0000 </r>
       <r>  -13.1820    1.0000 </r>
       <r>  -12.9748    1.0000 </r>
       <r>  -12.8604    1.0000 </r>
       <r>  -11.8313    1.0000 </r>
       <r>  -11.7440    1.0000 </r>
       <r>  -11.6834    1.0000 </r>
       <r>   -2.2426    1.0000 </r>
       <r>   -2.0011    1.0000 </r>
       <r>   -1.9053    1.0000 </r>
       <r>   -1.8469    1.0000 </r>
       <r>   -1.8205    1.0000 </r>
       <r>   -1.7540    1.0000 </r>
       <r>   -1.7320    1.0000 </r>
       <r>   -1.5663    1.0000 </r>
       <r>   -1.3735    1.0000 </r>
       <r>   -1.3686    1.0000 </r>
       <r>   -1.3429    1.0000 </r>
       <r>   -1.2961    1.0000 </r>
       <r>   -1.2437    1.0000 </r>
       <r>   -1.1769    1.0000 </r>
       <r>   -1.1475    1.0000 </r>
       <r>   -1.1441    1.0000 </r>
       <r>   -0.5026    1.0000 </r>
       <r>   -0.2747    1.0000 </r>
       <r>    0.2248    1.0000 </r>
       <r>    0.3665    1.0000 </r>
       <r>    0.8833    1.0000 </r>
       <r>    0.9237    1.0000 </r>
       <r>    1.0157    1.0000 </r>
       <r>    1.0630    1.0000 </r>
       <r>    1.1964    1.0000 </r>
       <r>    1.2059    1.0000 </r>
       <r>    1.2234    1.0000 </r>
       <r>    1.2522    1.0000 </r>
       <r>    1.2773    1.0000 </r>
       <r>    1.4518    1.0000 </r>
       <r>    1.7247    1.0000 </r>
       <r>    2.0573    1.0000 </r>
       <r>    2.3899    1.0000 </r>
       <r>    2.5253    0.6215 </r>
       <r>    2.5628    0.2256 </r>
       <r>    2.7048    0.0000 </r>
       <r>    5.0615    0.0000 </r>
       <r>    5.5861    0.0000 </r>
       <r>    7.8910    0.0000 </r>
       <r>    8.1094    0.0000 </r>
       <r>    8.1473    0.0000 </r>
       <r>    8.4983    0.0000 </r>
       <r>    8.5090    0.0000 </r>
       <r>    8.9066    0.0000 </r>
       <r>    9.1362    0.0000 </r>
       <r>    9.9630    0.0000 </r>
       <r>    9.9714    0.0000 </r>
       <r>   10.2365    0.0000 </r>
       <r>   10.4575    0.0000 </r>
       <r>   10.5225    0.0000 </r>
       <r>   10.7782    0.0000 </r>
       <r>   11.1566    0.0000 </r>
       <r>   11.3563    0.0000 </r>
      </set>
      <set comment="kpoint 11">
       <r>  -31.4182    1.0000 </r>
       <r>  -31.4119    1.0000 </r>
       <r>  -29.8872    1.0000 </r>
       <r>  -14.6637    1.0000 </r>
       <r>  -14.5211    1.0000 </r>
       <r>  -14.4285    1.0000 </r>
       <r>  -14.2305    1.0000 </r>
       <r>  -14.0643    1.0000 </r>
       <r>  -13.9190    1.0000 </r>
       <r>  -13.7839    1.0000 </r>
       <r>  -13.4315    1.0000 </r>
       <r>  -13.3002    1.0000 </r>
       <r>  -13.2848    1.0000 </r>
       <r>  -13.0918    1.0000 </r>
       <r>  -13.0262    1.0000 </r>
       <r>  -12.9379    1.0000 </r>
       <r>  -11.8163    1.0000 </r>
       <r>  -11.8021    1.0000 </r>
       <r>  -11.6543    1.0000 </r>
       <r>   -2.8389    1.0000 </r>
       <r>   -2.7093    1.0000 </r>
       <r>   -2.6763    1.0000 </r>
       <r>   -2.2156    1.0000 </r>
       <r>   -1.8772    1.0000 </r>
       <r>   -1.8403    1.0000 </r>
       <r>   -1.7737    1.0000 </r>
       <r>   -1.7487    1.0000 </r>
       <r>   -1.7200    1.0000 </r>
       <r>   -1.6731    1.0000 </r>
       <r>   -1.5791    1.0000 </r>
       <r>   -1.4916    1.0000 </r>
       <r>   -1.4193    1.0000 </r>
       <r>   -1.3888    1.0000 </r>
       <r>   -1.1787    1.0000 </r>
       <r>   -1.1624    1.0000 </r>
       <r>   -0.4478    1.0000 </r>
       <r>   -0.0905    1.0000 </r>
       <r>    0.5861    1.0000 </r>
       <r>    0.6510    1.0000 </r>
       <r>    0.8499    1.0000 </r>
       <r>    0.9174    1.0000 </r>
       <r>    1.0804    1.0000 </r>
       <r>    1.1983    1.0000 </r>
       <r>    1.2050    1.0000 </r>
       <r>    1.3078    1.0000 </r>
       <r>    1.5020    1.0000 </r>
       <r>    1.6728    1.0000 </r>
       <r>    1.6832    1.0000 </r>
       <r>    1.8791    1.0000 </r>
       <r>    1.8805    1.0000 </r>
       <r>    2.1593    1.0000 </r>
       <r>    2.3453    1.0000 </r>
       <r>    2.7663    0.0000 </r>
       <r>    3.0369    0.0000 </r>
       <r>    3.1250    0.0000 </r>
       <r>    5.5586    0.0000 </r>
       <r>    6.0925    0.0000 </r>
       <r>    7.3885    0.0000 </r>
       <r>    8.0320    0.0000 </r>
       <r>    8.5007    0.0000 </r>
       <r>    8.9573    0.0000 </r>
       <r>    8.9657    0.0000 </r>
       <r>    9.5305    0.0000 </r>
       <r>    9.5696    0.0000 </r>
       <r>   10.0033    0.0000 </r>
       <r>   10.0959    0.0000 </r>
       <r>   10.4505    0.0000 </r>
       <r>   10.9182    0.0000 </r>
       <r>   11.1807    0.0000 </r>
       <r>   11.2096    0.0000 </r>
       <r>   11.2886    0.0000 </r>
       <r>   11.2934    0.0000 </r>
      </set>
      <set comment="kpoint 12">
       <r>  -31.4109    1.0000 </r>
       <r>  -31.4050    1.0000 </r>
       <r>  -29.8797    1.0000 </r>
       <r>  -14.5548    1.0000 </r>
       <r>  -14.4758    1.0000 </r>
       <r>  -14.3121    1.0000 </r>
       <r>  -14.1747    1.0000 </r>
       <r>  -14.0893    1.0000 </r>
       <r>  -13.8801    1.0000 </r>
       <r>  -13.7514    1.0000 </r>
       <r>  -13.3846    1.0000 </r>
       <r>  -13.3550    1.0000 </r>
       <r>  -13.2076    1.0000 </r>
       <r>  -13.1293    1.0000 </r>
       <r>  -13.0715    1.0000 </r>
       <r>  -13.0371    1.0000 </r>
       <r>  -11.8959    1.0000 </r>
       <r>  -11.8303    1.0000 </r>
       <r>  -11.7812    1.0000 </r>
       <r>   -3.2081    1.0000 </r>
       <r>   -3.0035    1.0000 </r>
       <r>   -2.9466    1.0000 </r>
       <r>   -2.5139    1.0000 </r>
       <r>   -2.4309    1.0000 </r>
       <r>   -2.4256    1.0000 </r>
       <r>   -2.2073    1.0000 </r>
       <r>   -2.1842    1.0000 </r>
       <r>   -2.1053    1.0000 </r>
       <r>   -1.9114    1.0000 </r>
       <r>   -1.6846    1.0000 </r>
       <r>   -1.6495    1.0000 </r>
       <r>   -1.5004    1.0000 </r>
       <r>   -1.4822    1.0000 </r>
       <r>   -1.4422    1.0000 </r>
       <r>   -1.4418    1.0000 </r>
       <r>   -0.4529    1.0000 </r>
       <r>   -0.0021    1.0000 </r>
       <r>    0.8792    1.0000 </r>
       <r>    0.9578    1.0000 </r>
       <r>    1.2008    1.0000 </r>
       <r>    1.2815    1.0000 </r>
       <r>    1.3044    1.0000 </r>
       <r>    1.3069    1.0000 </r>
       <r>    1.3399    1.0000 </r>
       <r>    1.3911    1.0000 </r>
       <r>    1.5263    1.0000 </r>
       <r>    2.0022    1.0000 </r>
       <r>    2.1004    1.0000 </r>
       <r>    2.1547    1.0000 </r>
       <r>    2.3491    1.0000 </r>
       <r>    2.3918    1.0000 </r>
       <r>    2.4187    0.9996 </r>
       <r>    3.8857    0.0000 </r>
       <r>    3.9688    0.0000 </r>
       <r>    3.9949    0.0000 </r>
       <r>    4.6842    0.0000 </r>
       <r>    6.0170    0.0000 </r>
       <r>    8.5288    0.0000 </r>
       <r>    8.9631    0.0000 </r>
       <r>    9.0117    0.0000 </r>
       <r>    9.2980    0.0000 </r>
       <r>    9.3684    0.0000 </r>
       <r>    9.6949    0.0000 </r>
       <r>    9.8698    0.0000 </r>
       <r>   10.0598    0.0000 </r>
       <r>   10.3159    0.0000 </r>
       <r>   10.4831    0.0000 </r>
       <r>   10.9245    0.0000 </r>
       <r>   11.2592    0.0000 </r>
       <r>   11.4301    0.0000 </r>
       <r>   11.4766    0.0000 </r>
       <r>   11.6635    0.0000 </r>
      </set>
     </set>
     <set comment="spin 2">
      <set comment="kpoint 1">
       <r>  -31.4351    1.0000 </r>
       <r>  -31.4280    1.0000 </r>
       <r>  -29.9075    1.0000 </r>
       <r>  -15.0988    1.0000 </r>
       <r>  -14.7718    1.0000 </r>
       <r>  -14.6040    1.0000 </r>
       <r>  -13.7453    1.0000 </r>
       <r>  -13.4653    1.0000 </r>
       <r>  -13.4520    1.0000 </r>
       <r>  -13.4437    1.0000 </r>
       <r>  -13.4437    1.0000 </r>
       <r>  -13.4261    1.0000 </r>
       <r>  -13.4261    1.0000 </r>
       <r>  -13.3098    1.0000 </r>
       <r>  -13.0386    1.0000 </r>
       <r>  -12.6785    1.0000 </r>
       <r>  -11.8424    1.0000 </r>
       <r>  -11.8424    1.0000 </r>
       <r>  -11.6698    1.0000 </r>
       <r>   -1.7609    1.0000 </r>
       <r>   -1.0752    1.0000 </r>
       <r>   -1.0752    1.0000 </r>
       <r>   -1.0367    1.0000 </r>
       <r>   -1.0367    1.0000 </r>
       <r>   -0.9593    1.0000 </r>
       <r>   -0.9474    1.0000 </r>
       <r>   -0.9338    1.0000 </r>
       <r>   -0.9304    1.0000 </r>
       <r>   -0.8594    1.0000 </r>
       <r>   -0.8594    1.0000 </r>
       <r>   -0.8118    1.0000 </r>
       <r>   -0.8118    1.0000 </r>
       <r>   -0.8074    1.0000 </r>
       <r>   -0.7576    1.0000 </r>
       <r>   -0.7576    1.0000 </r>
       <r>   -0.7518    1.0000 </r>
       <r>   -0.7518    1.0000 </r>
       <r>   -0.2288    1.0000 </r>
       <r>    0.3739    1.0000 </r>
       <r>    0.4345    1.0000 </r>
       <r>    0.4388    1.0000 </r>
       <r>    0.4414    1.0000 </r>
       <r>    0.5076    1.0000 </r>
       <r>    0.6402    1.0000 </r>
       <r>    1.0429    1.0000 </r>
       <r>    1.4882    1.0000 </r>
       <r>    1.5959    1.0000 </r>
       <r>    1.5959    1.0000 </r>
       <r>    1.8549    1.0000 </r>
       <r>    1.8549    1.0000 </r>
       <r>    1.9000    1.0000 </r>
       <r>    1.9000    1.0000 </r>
       <r>    2.3559    1.0000 </r>
       <r>    2.3559    1.0000 </r>
       <r>    2.4649    0.9781 </r>
       <r>    3.9049    0.0000 </r>
       <r>    5.2331    0.0000 </r>
       <r>    7.2700    0.0000 </r>
       <r>    7.5491    0.0000 </r>
       <r>    7.8038    0.0000 </r>
       <r>    8.3036    0.0000 </r>
       <r>    9.1453    0.0000 </r>
       <r>    9.4691    0.0000 </r>
       <r>    9.4707    0.0000 </r>
       <r>    9.5412    0.0000 </r>
       <r>    9.6430    0.0000 </r>
       <r>    9.7788    0.0000 </r>
       <r>    9.7788    0.0000 </r>
       <r>   10.5926    0.0000 </r>
       <r>   10.5926    0.0000 </r>
       <r>   10.9471    0.0000 </r>
       <r>   10.9745    0.0000 </r>
      </set>
      <set comment="kpoint 2">
       <r>  -31.4305    1.0000 </r>
       <r>  -31.4236    1.0000 </r>
       <r>  -29.9024    1.0000 </r>
       <r>  -14.9654    1.0000 </r>
       <r>  -14.6456    1.0000 </r>
       <r>  -14.5894    1.0000 </r>
       <r>  -13.9358    1.0000 </r>
       <r>  -13.6904    1.0000 </r>
       <r>  -13.6210    1.0000 </r>
       <r>  -13.4365    1.0000 </r>
       <r>  -13.4305    1.0000 </r>
       <r>  -13.4191    1.0000 </r>
       <r>  -13.3154    1.0000 </r>
       <r>  -13.1784    1.0000 </r>
       <r>  -13.0316    1.0000 </r>
       <r>  -12.7293    1.0000 </r>
       <r>  -11.8290    1.0000 </r>
       <r>  -11.7061    1.0000 </r>
       <r>  -11.6992    1.0000 </r>
       <r>   -1.8081    1.0000 </r>
       <r>   -1.7828    1.0000 </r>
       <r>   -1.6542    1.0000 </r>
       <r>   -1.6014    1.0000 </r>
       <r>   -1.3786    1.0000 </r>
       <r>   -1.3222    1.0000 </r>
       <r>   -1.3013    1.0000 </r>
       <r>   -1.2052    1.0000 </r>
       <r>   -1.1703    1.0000 </r>
       <r>   -1.0754    1.0000 </r>
       <r>   -1.0211    1.0000 </r>
       <r>   -0.8514    1.0000 </r>
       <r>   -0.8061    1.0000 </r>
       <r>   -0.6867    1.0000 </r>
       <r>   -0.6309    1.0000 </r>
       <r>   -0.5674    1.0000 </r>
       <r>   -0.4652    1.0000 </r>
       <r>   -0.3651    1.0000 </r>
       <r>   -0.1031    1.0000 </r>
       <r>    0.4405    1.0000 </r>
       <r>    0.5139    1.0000 </r>
       <r>    0.7196    1.0000 </r>
       <r>    0.7764    1.0000 </r>
       <r>    0.8987    1.0000 </r>
       <r>    0.9041    1.0000 </r>
       <r>    1.1640    1.0000 </r>
       <r>    1.5391    1.0000 </r>
       <r>    1.5864    1.0000 </r>
       <r>    1.6257    1.0000 </r>
       <r>    1.6467    1.0000 </r>
       <r>    1.8269    1.0000 </r>
       <r>    1.8618    1.0000 </r>
       <r>    1.8988    1.0000 </r>
       <r>    2.1631    1.0000 </r>
       <r>    2.2580    1.0000 </r>
       <r>    3.0113    0.0000 </r>
       <r>    4.6567    0.0000 </r>
       <r>    5.5255    0.0000 </r>
       <r>    7.4901    0.0000 </r>
       <r>    8.1296    0.0000 </r>
       <r>    8.3677    0.0000 </r>
       <r>    8.3719    0.0000 </r>
       <r>    8.9686    0.0000 </r>
       <r>    8.9780    0.0000 </r>
       <r>    9.2582    0.0000 </r>
       <r>    9.6974    0.0000 </r>
       <r>    9.8384    0.0000 </r>
       <r>   10.0092    0.0000 </r>
       <r>   10.0710    0.0000 </r>
       <r>   10.5862    0.0000 </r>
       <r>   10.6096    0.0000 </r>
       <r>   11.0133    0.0000 </r>
       <r>   11.0241    0.0000 </r>
      </set>
      <set comment="kpoint 3">
       <r>  -31.4231    1.0000 </r>
       <r>  -31.4166    1.0000 </r>
       <r>  -29.8942    1.0000 </r>
       <r>  -14.7047    1.0000 </r>
       <r>  -14.5459    1.0000 </r>
       <r>  -14.3489    1.0000 </r>
       <r>  -14.1855    1.0000 </r>
       <r>  -13.9837    1.0000 </r>
       <r>  -13.8310    1.0000 </r>
       <r>  -13.4790    1.0000 </r>
       <r>  -13.4248    1.0000 </r>
       <r>  -13.4077    1.0000 </r>
       <r>  -13.3277    1.0000 </r>
       <r>  -13.0288    1.0000 </r>
       <r>  -13.0151    1.0000 </r>
       <r>  -12.7910    1.0000 </r>
       <r>  -11.8071    1.0000 </r>
       <r>  -11.7404    1.0000 </r>
       <r>  -11.5334    1.0000 </r>
       <r>   -2.6341    1.0000 </r>
       <r>   -2.4926    1.0000 </r>
       <r>   -2.4378    1.0000 </r>
       <r>   -1.7775    1.0000 </r>
       <r>   -1.7455    1.0000 </r>
       <r>   -1.6001    1.0000 </r>
       <r>   -1.4846    1.0000 </r>
       <r>   -1.4048    1.0000 </r>
       <r>   -1.3430    1.0000 </r>
       <r>   -1.2709    1.0000 </r>
       <r>   -1.1275    1.0000 </r>
       <r>   -0.8610    1.0000 </r>
       <r>   -0.8021    1.0000 </r>
       <r>   -0.5437    1.0000 </r>
       <r>   -0.5327    1.0000 </r>
       <r>   -0.4078    1.0000 </r>
       <r>   -0.2147    1.0000 </r>
       <r>    0.0116    1.0000 </r>
       <r>    0.1145    1.0000 </r>
       <r>    0.3945    1.0000 </r>
       <r>    0.5549    1.0000 </r>
       <r>    0.7476    1.0000 </r>
       <r>    1.0062    1.0000 </r>
       <r>    1.0773    1.0000 </r>
       <r>    1.1557    1.0000 </r>
       <r>    1.1975    1.0000 </r>
       <r>    1.4284    1.0000 </r>
       <r>    1.5717    1.0000 </r>
       <r>    1.7416    1.0000 </r>
       <r>    1.7764    1.0000 </r>
       <r>    1.7890    1.0000 </r>
       <r>    1.9384    1.0000 </r>
       <r>    2.0797    1.0000 </r>
       <r>    2.0846    1.0000 </r>
       <r>    2.1477    1.0000 </r>
       <r>    3.3759    0.0000 </r>
       <r>    6.0337    0.0000 </r>
       <r>    6.3120    0.0000 </r>
       <r>    7.2255    0.0000 </r>
       <r>    7.8574    0.0000 </r>
       <r>    8.2722    0.0000 </r>
       <r>    8.3641    0.0000 </r>
       <r>    8.8065    0.0000 </r>
       <r>    9.2335    0.0000 </r>
       <r>    9.3440    0.0000 </r>
       <r>    9.9329    0.0000 </r>
       <r>   10.4208    0.0000 </r>
       <r>   10.4295    0.0000 </r>
       <r>   10.6277    0.0000 </r>
       <r>   11.0332    0.0000 </r>
       <r>   11.1644    0.0000 </r>
       <r>   11.4010    0.0000 </r>
       <r>   11.5275    0.0000 </r>
      </set>
      <set comment="kpoint 4">
       <r>  -31.4260    1.0000 </r>
       <r>  -31.4193    1.0000 </r>
       <r>  -29.8975    1.0000 </r>
       <r>  -14.8437    1.0000 </r>
       <r>  -14.5394    1.0000 </r>
       <r>  -14.5316    1.0000 </r>
       <r>  -14.0977    1.0000 </r>
       <r>  -13.7738    1.0000 </r>
       <r>  -13.6809    1.0000 </r>
       <r>  -13.5258    1.0000 </r>
       <r>  -13.4718    1.0000 </r>
       <r>  -13.2650    1.0000 </r>
       <r>  -13.2421    1.0000 </r>
       <r>  -13.1707    1.0000 </r>
       <r>  -13.0299    1.0000 </r>
       <r>  -12.8022    1.0000 </r>
       <r>  -11.8299    1.0000 </r>
       <r>  -11.7386    1.0000 </r>
       <r>  -11.6589    1.0000 </r>
       <r>   -1.9540    1.0000 </r>
       <r>   -1.8274    1.0000 </r>
       <r>   -1.7801    1.0000 </r>
       <r>   -1.6585    1.0000 </r>
       <r>   -1.6535    1.0000 </r>
       <r>   -1.5516    1.0000 </r>
       <r>   -1.5272    1.0000 </r>
       <r>   -1.4055    1.0000 </r>
       <r>   -1.3208    1.0000 </r>
       <r>   -1.3177    1.0000 </r>
       <r>   -1.2780    1.0000 </r>
       <r>   -1.2240    1.0000 </r>
       <r>   -1.1984    1.0000 </r>
       <r>   -1.1172    1.0000 </r>
       <r>   -1.0473    1.0000 </r>
       <r>   -1.0284    1.0000 </r>
       <r>   -0.4945    1.0000 </r>
       <r>    0.0728    1.0000 </r>
       <r>    0.1458    1.0000 </r>
       <r>    0.7093    1.0000 </r>
       <r>    0.8727    1.0000 </r>
       <r>    0.9663    1.0000 </r>
       <r>    1.1080    1.0000 </r>
       <r>    1.1556    1.0000 </r>
       <r>    1.2691    1.0000 </r>
       <r>    1.3302    1.0000 </r>
       <r>    1.3500    1.0000 </r>
       <r>    1.3737    1.0000 </r>
       <r>    1.4246    1.0000 </r>
       <r>    1.5290    1.0000 </r>
       <r>    1.8493    1.0000 </r>
       <r>    2.1607    1.0000 </r>
       <r>    2.5566    0.2820 </r>
       <r>    2.6977    0.0000 </r>
       <r>    2.8766    0.0000 </r>
       <r>    2.9777    0.0000 </r>
       <r>    5.1265    0.0000 </r>
       <r>    5.6211    0.0000 </r>
       <r>    7.8622    0.0000 </r>
       <r>    8.1615    0.0000 </r>
       <r>    8.1856    0.0000 </r>
       <r>    8.4563    0.0000 </r>
       <r>    8.6194    0.0000 </r>
       <r>    8.9032    0.0000 </r>
       <r>    9.2243    0.0000 </r>
       <r>    9.8406    0.0000 </r>
       <r>   10.1466    0.0000 </r>
       <r>   10.1836    0.0000 </r>
       <r>   10.3479    0.0000 </r>
       <r>   10.6835    0.0000 </r>
       <r>   10.8864    0.0000 </r>
       <r>   11.2628    0.0000 </r>
       <r>   11.3923    0.0000 </r>
      </set>
      <set comment="kpoint 5">
       <r>  -31.4186    1.0000 </r>
       <r>  -31.4123    1.0000 </r>
       <r>  -29.8896    1.0000 </r>
       <r>  -14.6359    1.0000 </r>
       <r>  -14.4391    1.0000 </r>
       <r>  -14.2752    1.0000 </r>
       <r>  -14.2199    1.0000 </r>
       <r>  -13.9866    1.0000 </r>
       <r>  -13.9472    1.0000 </r>
       <r>  -13.4766    1.0000 </r>
       <r>  -13.4457    1.0000 </r>
       <r>  -13.2882    1.0000 </r>
       <r>  -13.2313    1.0000 </r>
       <r>  -13.0312    1.0000 </r>
       <r>  -13.0257    1.0000 </r>
       <r>  -12.9191    1.0000 </r>
       <r>  -11.8152    1.0000 </r>
       <r>  -11.7985    1.0000 </r>
       <r>  -11.6212    1.0000 </r>
       <r>   -2.7188    1.0000 </r>
       <r>   -2.5429    1.0000 </r>
       <r>   -2.4841    1.0000 </r>
       <r>   -1.8142    1.0000 </r>
       <r>   -1.7431    1.0000 </r>
       <r>   -1.7341    1.0000 </r>
       <r>   -1.6663    1.0000 </r>
       <r>   -1.6329    1.0000 </r>
       <r>   -1.5993    1.0000 </r>
       <r>   -1.5117    1.0000 </r>
       <r>   -1.5033    1.0000 </r>
       <r>   -1.4247    1.0000 </r>
       <r>   -1.3084    1.0000 </r>
       <r>   -1.2813    1.0000 </r>
       <r>   -1.1435    1.0000 </r>
       <r>   -1.0643    1.0000 </r>
       <r>   -0.4415    1.0000 </r>
       <r>    0.3433    1.0000 </r>
       <r>    0.5700    1.0000 </r>
       <r>    0.7908    1.0000 </r>
       <r>    0.8257    1.0000 </r>
       <r>    1.0565    1.0000 </r>
       <r>    1.1786    1.0000 </r>
       <r>    1.2717    1.0000 </r>
       <r>    1.2977    1.0000 </r>
       <r>    1.3216    1.0000 </r>
       <r>    1.6845    1.0000 </r>
       <r>    1.6989    1.0000 </r>
       <r>    1.8122    1.0000 </r>
       <r>    1.9569    1.0000 </r>
       <r>    2.0242    1.0000 </r>
       <r>    2.2369    1.0000 </r>
       <r>    2.6730    0.0001 </r>
       <r>    2.9729    0.0000 </r>
       <r>    3.2424    0.0000 </r>
       <r>    3.3719    0.0000 </r>
       <r>    5.6901    0.0000 </r>
       <r>    6.1354    0.0000 </r>
       <r>    7.3943    0.0000 </r>
       <r>    8.0337    0.0000 </r>
       <r>    8.5056    0.0000 </r>
       <r>    8.9224    0.0000 </r>
       <r>    9.0519    0.0000 </r>
       <r>    9.5530    0.0000 </r>
       <r>    9.6295    0.0000 </r>
       <r>    9.9294    0.0000 </r>
       <r>   10.1223    0.0000 </r>
       <r>   10.6110    0.0000 </r>
       <r>   10.8066    0.0000 </r>
       <r>   11.1916    0.0000 </r>
       <r>   11.1945    0.0000 </r>
       <r>   11.3297    0.0000 </r>
       <r>   11.3771    0.0000 </r>
      </set>
      <set comment="kpoint 6">
       <r>  -31.4114    1.0000 </r>
       <r>  -31.4054    1.0000 </r>
       <r>  -29.8821    1.0000 </r>
       <r>  -14.5273    1.0000 </r>
       <r>  -14.4490    1.0000 </r>
       <r>  -14.1409    1.0000 </r>
       <r>  -14.1222    1.0000 </r>
       <r>  -14.0465    1.0000 </r>
       <r>  -13.8979    1.0000 </r>
       <r>  -13.4577    1.0000 </r>
       <r>  -13.3775    1.0000 </r>
       <r>  -13.2444    1.0000 </r>
       <r>  -13.1860    1.0000 </r>
       <r>  -13.1001    1.0000 </r>
       <r>  -13.0561    1.0000 </r>
       <r>  -13.0452    1.0000 </r>
       <r>  -11.8970    1.0000 </r>
       <r>  -11.8229    1.0000 </r>
       <r>  -11.7679    1.0000 </r>
       <r>   -3.1457    1.0000 </r>
       <r>   -2.9032    1.0000 </r>
       <r>   -2.7818    1.0000 </r>
       <r>   -2.2741    1.0000 </r>
       <r>   -2.1997    1.0000 </r>
       <r>   -2.1914    1.0000 </r>
       <r>   -2.1857    1.0000 </r>
       <r>   -1.9586    1.0000 </r>
       <r>   -1.8885    1.0000 </r>
       <r>   -1.6957    1.0000 </r>
       <r>   -1.5921    1.0000 </r>
       <r>   -1.5627    1.0000 </r>
       <r>   -1.4655    1.0000 </r>
       <r>   -1.4476    1.0000 </r>
       <r>   -1.3570    1.0000 </r>
       <r>   -1.3512    1.0000 </r>
       <r>   -0.4584    1.0000 </r>
       <r>    0.4901    1.0000 </r>
       <r>    0.8843    1.0000 </r>
       <r>    1.1575    1.0000 </r>
       <r>    1.1805    1.0000 </r>
       <r>    1.3151    1.0000 </r>
       <r>    1.3400    1.0000 </r>
       <r>    1.3897    1.0000 </r>
       <r>    1.4543    1.0000 </r>
       <r>    1.4779    1.0000 </r>
       <r>    1.6163    1.0000 </r>
       <r>    2.1304    1.0000 </r>
       <r>    2.1584    1.0000 </r>
       <r>    2.2652    1.0000 </r>
       <r>    2.4955    0.8754 </r>
       <r>    2.5153    0.7227 </r>
       <r>    2.6333    0.0030 </r>
       <r>    4.0973    0.0000 </r>
       <r>    4.1842    0.0000 </r>
       <r>    4.2105    0.0000 </r>
       <r>    5.0128    0.0000 </r>
       <r>    5.9057    0.0000 </r>
       <r>    8.5129    0.0000 </r>
       <r>    8.9654    0.0000 </r>
       <r>    8.9993    0.0000 </r>
       <r>    9.2699    0.0000 </r>
       <r>    9.3576    0.0000 </r>
       <r>    9.7423    0.0000 </r>
       <r>   10.0019    0.0000 </r>
       <r>   10.2032    0.0000 </r>
       <r>   10.3971    0.0000 </r>
       <r>   10.4607    0.0000 </r>
       <r>   10.8308    0.0000 </r>
       <r>   11.3757    0.0000 </r>
       <r>   11.4209    0.0000 </r>
       <r>   11.5473    0.0000 </r>
       <r>   11.6946    0.0000 </r>
      </set>
      <set comment="kpoint 7">
       <r>  -31.4351    1.0000 </r>
       <r>  -31.4280    1.0000 </r>
       <r>  -29.9074    1.0000 </r>
       <r>  -15.1103    1.0000 </r>
       <r>  -14.7219    1.0000 </r>
[...]
       <r>     2.1576     6.8152    51.4772 </r>
       <r>     2.3158     3.1132    51.9697 </r>
       <r>     2.4740     4.9987    52.7604 </r>
       <r>     2.6322     2.5656    53.1663 </r>
       <r>     2.7904     2.9481    53.6326 </r>
       <r>     2.9486     0.6392    53.7337 </r>
       <r>     3.1067     3.7876    54.3329 </r>
       <r>     3.2649     1.1830    54.5200 </r>
       <r>     3.4231     0.0000    54.5200 </r>
       <r>     3.5813     0.0000    54.5200 </r>
       <r>     3.7395     0.0000    54.5200 </r>
       <r>     3.8977     0.7683    54.6415 </r>
       <r>     4.0559     2.4375    55.0271 </r>
       <r>     4.2140     0.0815    55.0400 </r>
       <r>     4.3722     0.0000    55.0400 </r>
       <r>     4.5304     0.0077    55.0412 </r>
       <r>     4.6886     1.2427    55.2378 </r>
       <r>     4.8468     0.2961    55.2846 </r>
       <r>     5.0050     0.6214    55.3829 </r>
       <r>     5.1632     1.0328    55.5463 </r>
       <r>     5.3213     0.0877    55.5602 </r>
       <r>     5.4795     0.7757    55.6829 </r>
       <r>     5.6377     2.9018    56.1419 </r>
       <r>     5.7959     0.4158    56.2077 </r>
       <r>     5.9541     0.6736    56.3142 </r>
       <r>     6.1123     2.8856    56.7707 </r>
       <r>     6.2704     1.2074    56.9617 </r>
       <r>     6.4286     0.2424    57.0000 </r>
       <r>     6.5868     0.0000    57.0000 </r>
       <r>     6.7450     0.0000    57.0000 </r>
       <r>     6.9032     0.0000    57.0000 </r>
       <r>     7.0614     0.0000    57.0000 </r>
       <r>     7.2196     0.6045    57.0956 </r>
       <r>     7.3777     1.3748    57.3131 </r>
       <r>     7.5359     1.9183    57.6166 </r>
       <r>     7.6941     0.5495    57.7035 </r>
       <r>     7.8523     1.2780    57.9056 </r>
       <r>     8.0105     1.6669    58.1693 </r>
       <r>     8.1687     3.6548    58.7475 </r>
       <r>     8.3269     3.0325    59.2271 </r>
       <r>     8.4850     3.4317    59.7700 </r>
       <r>     8.6432     3.2548    60.2849 </r>
       <r>     8.8014     1.9198    60.5885 </r>
       <r>     8.9596     4.7159    61.3345 </r>
       <r>     9.1178     4.8384    62.0999 </r>
       <r>     9.2760     2.6320    62.5162 </r>
       <r>     9.4341     2.7852    62.9568 </r>
       <r>     9.5923     4.0260    63.5937 </r>
       <r>     9.7505     2.9913    64.0668 </r>
       <r>     9.9087     3.2309    64.5779 </r>
       <r>    10.0669     6.2215    65.5621 </r>
       <r>    10.2251     3.8857    66.1767 </r>
       <r>    10.3833     2.7910    66.6182 </r>
       <r>    10.5414     5.9451    67.5586 </r>
       <r>    10.6996     3.2238    68.0686 </r>
       <r>    10.8578     2.3864    68.4461 </r>
       <r>    11.0160     4.0626    69.0887 </r>
       <r>    11.1742     4.0949    69.7365 </r>
       <r>    11.3324     6.7483    70.8040 </r>
       <r>    11.4905     5.1338    71.6160 </r>
       <r>    11.6487     1.1797    71.8027 </r>
       <r>    11.8069     1.2468    71.9999 </r>
       <r>    11.9651     0.0008    72.0000 </r>
       <r>    12.1233     0.0000    72.0000 </r>
       <r>    12.2815     0.0000    72.0000 </r>
       <r>    12.4397     0.0000    72.0000 </r>
       <r>    12.5978     0.0000    72.0000 </r>
       <r>    12.7560     0.0000    72.0000 </r>
       <r>    12.9142     0.0000    72.0000 </r>
       <r>    13.0724     0.0000    72.0000 </r>
       <r>    13.2306     0.0000    72.0000 </r>
       <r>    13.3888     0.0000    72.0000 </r>
       <r>    13.5470     0.0000    72.0000 </r>
       <r>    13.7051     0.0000    72.0000 </r>
       <r>    13.8633     0.0000    72.0000 </r>
      </set>
      <set comment="spin 2">
       <r>   -33.5922     0.0000     0.0000 </r>
       <r>   -33.4340     0.0000     0.0000 </r>
       <r>   -33.2758     0.0000     0.0000 </r>
       <r>   -33.1176     0.0000     0.0000 </r>
       <r>   -32.9594     0.0000     0.0000 </r>
       <r>   -32.8012     0.0000     0.0000 </r>
       <r>   -32.6430     0.0000     0.0000 </r>
       <r>   -32.4849     0.0000     0.0000 </r>
       <r>   -32.3267     0.0000     0.0000 </r>
       <r>   -32.1685     0.0000     0.0000 </r>
       <r>   -32.0103     0.0000     0.0000 </r>
       <r>   -31.8521     0.0000     0.0000 </r>
       <r>   -31.6939     0.0000     0.0000 </r>
       <r>   -31.5357     0.0074     0.0012 </r>
       <r>   -31.3776    11.0286     1.7457 </r>
       <r>   -31.2194     1.6074     2.0000 </r>
       <r>   -31.0612     0.0000     2.0000 </r>
       <r>   -30.9030     0.0000     2.0000 </r>
       <r>   -30.7448     0.0000     2.0000 </r>
       <r>   -30.5866     0.0000     2.0000 </r>
       <r>   -30.4285     0.0000     2.0000 </r>
       <r>   -30.2703     0.0000     2.0000 </r>
       <r>   -30.1121     0.0000     2.0000 </r>
       <r>   -29.9539     0.2908     2.0460 </r>
       <r>   -29.7957     6.0094     2.9966 </r>
       <r>   -29.6375     0.0215     3.0000 </r>
       <r>   -29.4793     0.0000     3.0000 </r>
       <r>   -29.3212     0.0000     3.0000 </r>
       <r>   -29.1630     0.0000     3.0000 </r>
       <r>   -29.0048     0.0000     3.0000 </r>
       <r>   -28.8466     0.0000     3.0000 </r>
       <r>   -28.6884     0.0000     3.0000 </r>
       <r>   -28.5302     0.0000     3.0000 </r>
       <r>   -28.3720     0.0000     3.0000 </r>
       <r>   -28.2139     0.0000     3.0000 </r>
       <r>   -28.0557     0.0000     3.0000 </r>
       <r>   -27.8975     0.0000     3.0000 </r>
       <r>   -27.7393     0.0000     3.0000 </r>
       <r>   -27.5811     0.0000     3.0000 </r>
       <r>   -27.4229     0.0000     3.0000 </r>
       <r>   -27.2648     0.0000     3.0000 </r>
       <r>   -27.1066     0.0000     3.0000 </r>
       <r>   -26.9484     0.0000     3.0000 </r>
       <r>   -26.7902     0.0000     3.0000 </r>
       <r>   -26.6320     0.0000     3.0000 </r>
       <r>   -26.4738     0.0000     3.0000 </r>
       <r>   -26.3156     0.0000     3.0000 </r>
       <r>   -26.1575     0.0000     3.0000 </r>
       <r>   -25.9993     0.0000     3.0000 </r>
       <r>   -25.8411     0.0000     3.0000 </r>
       <r>   -25.6829     0.0000     3.0000 </r>
       <r>   -25.5247     0.0000     3.0000 </r>
       <r>   -25.3665     0.0000     3.0000 </r>
       <r>   -25.2084     0.0000     3.0000 </r>
       <r>   -25.0502     0.0000     3.0000 </r>
       <r>   -24.8920     0.0000     3.0000 </r>
       <r>   -24.7338     0.0000     3.0000 </r>
       <r>   -24.5756     0.0000     3.0000 </r>
       <r>   -24.4174     0.0000     3.0000 </r>
       <r>   -24.2592     0.0000     3.0000 </r>
       <r>   -24.1011     0.0000     3.0000 </r>
       <r>   -23.9429     0.0000     3.0000 </r>
       <r>   -23.7847     0.0000     3.0000 </r>
       <r>   -23.6265     0.0000     3.0000 </r>
       <r>   -23.4683     0.0000     3.0000 </r>
       <r>   -23.3101     0.0000     3.0000 </r>
       <r>   -23.1519     0.0000     3.0000 </r>
       <r>   -22.9938     0.0000     3.0000 </r>
       <r>   -22.8356     0.0000     3.0000 </r>
       <r>   -22.6774     0.0000     3.0000 </r>
       <r>   -22.5192     0.0000     3.0000 </r>
       <r>   -22.3610     0.0000     3.0000 </r>
       <r>   -22.2028     0.0000     3.0000 </r>
       <r>   -22.0447     0.0000     3.0000 </r>
       <r>   -21.8865     0.0000     3.0000 </r>
       <r>   -21.7283     0.0000     3.0000 </r>
       <r>   -21.5701     0.0000     3.0000 </r>
       <r>   -21.4119     0.0000     3.0000 </r>
       <r>   -21.2537     0.0000     3.0000 </r>
       <r>   -21.0955     0.0000     3.0000 </r>
       <r>   -20.9374     0.0000     3.0000 </r>
       <r>   -20.7792     0.0000     3.0000 </r>
       <r>   -20.6210     0.0000     3.0000 </r>
       <r>   -20.4628     0.0000     3.0000 </r>
       <r>   -20.3046     0.0000     3.0000 </r>
       <r>   -20.1464     0.0000     3.0000 </r>
       <r>   -19.9882     0.0000     3.0000 </r>
       <r>   -19.8301     0.0000     3.0000 </r>
       <r>   -19.6719     0.0000     3.0000 </r>
       <r>   -19.5137     0.0000     3.0000 </r>
       <r>   -19.3555     0.0000     3.0000 </r>
       <r>   -19.1973     0.0000     3.0000 </r>
       <r>   -19.0391     0.0000     3.0000 </r>
       <r>   -18.8810     0.0000     3.0000 </r>
       <r>   -18.7228     0.0000     3.0000 </r>
       <r>   -18.5646     0.0000     3.0000 </r>
       <r>   -18.4064     0.0000     3.0000 </r>
       <r>   -18.2482     0.0000     3.0000 </r>
       <r>   -18.0900     0.0000     3.0000 </r>
       <r>   -17.9318     0.0000     3.0000 </r>
       <r>   -17.7737     0.0000     3.0000 </r>
       <r>   -17.6155     0.0000     3.0000 </r>
       <r>   -17.4573     0.0000     3.0000 </r>
       <r>   -17.2991     0.0000     3.0000 </r>
       <r>   -17.1409     0.0000     3.0000 </r>
       <r>   -16.9827     0.0000     3.0000 </r>
       <r>   -16.8246     0.0000     3.0000 </r>
       <r>   -16.6664     0.0000     3.0000 </r>
       <r>   -16.5082     0.0000     3.0000 </r>
       <r>   -16.3500     0.0000     3.0000 </r>
       <r>   -16.1918     0.0000     3.0000 </r>
       <r>   -16.0336     0.0000     3.0000 </r>
       <r>   -15.8754     0.0000     3.0000 </r>
       <r>   -15.7173     0.0000     3.0000 </r>
       <r>   -15.5591     0.0000     3.0000 </r>
       <r>   -15.4009     0.0000     3.0000 </r>
       <r>   -15.2427     0.0000     3.0000 </r>
       <r>   -15.0845     0.1805     3.0286 </r>
       <r>   -14.9263     0.9730     3.1825 </r>
       <r>   -14.7681     1.2148     3.3746 </r>
       <r>   -14.6100     3.9547     4.0002 </r>
       <r>   -14.4518     6.7786     5.0725 </r>
       <r>   -14.2936     4.1502     5.7290 </r>
       <r>   -14.1354     4.2798     6.4060 </r>
       <r>   -13.9772     5.4775     7.2724 </r>
       <r>   -13.8190     5.4591     8.1360 </r>
       <r>   -13.6609     3.6713     8.7167 </r>
       <r>   -13.5027     4.7936     9.4750 </r>
       <r>   -13.3445    12.5919    11.4669 </r>
       <r>   -13.1863     9.5929    12.9843 </r>
       <r>   -13.0281     8.2326    14.2866 </r>
       <r>   -12.8699     7.5000    15.4729 </r>
       <r>   -12.7117     3.0439    15.9544 </r>
       <r>   -12.5536     0.2880    16.0000 </r>
       <r>   -12.3954     0.0000    16.0000 </r>
       <r>   -12.2372     0.0000    16.0000 </r>
       <r>   -12.0790     0.0000    16.0000 </r>
       <r>   -11.9208     0.2742    16.0434 </r>
       <r>   -11.7626     9.8475    17.6011 </r>
       <r>   -11.6044     7.1376    18.7302 </r>
       <r>   -11.4463     1.6989    18.9989 </r>
       <r>   -11.2881     0.0069    19.0000 </r>
       <r>   -11.1299     0.0000    19.0000 </r>
       <r>   -10.9717     0.0000    19.0000 </r>
       <r>   -10.8135     0.0000    19.0000 </r>
       <r>   -10.6553     0.0000    19.0000 </r>
       <r>   -10.4972     0.0000    19.0000 </r>
       <r>   -10.3390     0.0000    19.0000 </r>
       <r>   -10.1808     0.0000    19.0000 </r>
       <r>   -10.0226     0.0000    19.0000 </r>
       <r>    -9.8644     0.0000    19.0000 </r>
       <r>    -9.7062     0.0000    19.0000 </r>
       <r>    -9.5480     0.0000    19.0000 </r>
       <r>    -9.3899     0.0000    19.0000 </r>
       <r>    -9.2317     0.0000    19.0000 </r>
       <r>    -9.0735     0.0000    19.0000 </r>
       <r>    -8.9153     0.0000    19.0000 </r>
       <r>    -8.7571     0.0000    19.0000 </r>
       <r>    -8.5989     0.0000    19.0000 </r>
       <r>    -8.4407     0.0000    19.0000 </r>
       <r>    -8.2826     0.0000    19.0000 </r>
       <r>    -8.1244     0.0000    19.0000 </r>
       <r>    -7.9662     0.0000    19.0000 </r>
       <r>    -7.8080     0.0000    19.0000 </r>
       <r>    -7.6498     0.0000    19.0000 </r>
       <r>    -7.4916     0.0000    19.0000 </r>
       <r>    -7.3335     0.0000    19.0000 </r>
       <r>    -7.1753     0.0000    19.0000 </r>
       <r>    -7.0171     0.0000    19.0000 </r>
       <r>    -6.8589     0.0000    19.0000 </r>
       <r>    -6.7007     0.0000    19.0000 </r>
       <r>    -6.5425     0.0000    19.0000 </r>
       <r>    -6.3843     0.0000    19.0000 </r>
       <r>    -6.2262     0.0000    19.0000 </r>
       <r>    -6.0680     0.0000    19.0000 </r>
       <r>    -5.9098     0.0000    19.0000 </r>
       <r>    -5.7516     0.0000    19.0000 </r>
       <r>    -5.5934     0.0000    19.0000 </r>
       <r>    -5.4352     0.0000    19.0000 </r>
       <r>    -5.2771     0.0000    19.0000 </r>
       <r>    -5.1189     0.0000    19.0000 </r>
       <r>    -4.9607     0.0000    19.0000 </r>
       <r>    -4.8025     0.0000    19.0000 </r>
       <r>    -4.6443     0.0000    19.0000 </r>
       <r>    -4.4861     0.0000    19.0000 </r>
       <r>    -4.3279     0.0000    19.0000 </r>
       <r>    -4.1698     0.0000    19.0000 </r>
       <r>    -4.0116     0.0000    19.0000 </r>
       <r>    -3.8534     0.0000    19.0000 </r>
       <r>    -3.6952     0.0000    19.0000 </r>
       <r>    -3.5370     0.0000    19.0000 </r>
       <r>    -3.3788     0.0000    19.0000 </r>
       <r>    -3.2206     0.0237    19.0037 </r>
       <r>    -3.0625     0.9807    19.1589 </r>
       <r>    -2.9043     0.4043    19.2228 </r>
       <r>    -2.7461     1.9661    19.5338 </r>
       <r>    -2.5879     2.7944    19.9759 </r>
       <r>    -2.4297     5.3931    20.8290 </r>
       <r>    -2.2715     1.1418    21.0096 </r>
       <r>    -2.1134     3.4158    21.5499 </r>
       <r>    -1.9552     1.3570    21.7646 </r>
       <r>    -1.7970     5.9481    22.7055 </r>
       <r>    -1.6388    14.4298    24.9881 </r>
       <r>    -1.4806    13.8187    27.1740 </r>
       <r>    -1.3224    13.6654    29.3356 </r>
       <r>    -1.1642    11.5102    31.1564 </r>
       <r>    -1.0061    10.9051    32.8814 </r>
       <r>    -0.8479     3.2938    33.4024 </r>
       <r>    -0.6897     4.9844    34.1909 </r>
       <r>    -0.5315     3.4767    34.7408 </r>
       <r>    -0.3733     7.3814    35.9085 </r>
       <r>    -0.2151     1.3950    36.1291 </r>
       <r>    -0.0569     1.5896    36.3806 </r>
       <r>     0.1012     2.1673    36.7234 </r>
       <r>     0.2594     2.9502    37.1901 </r>
       <r>     0.4176     3.4635    37.7380 </r>
       <r>     0.5758     4.1745    38.3983 </r>
       <r>     0.7340     4.6242    39.1298 </r>
       <r>     0.8922     6.3283    40.1308 </r>
       <r>     1.0503     7.0982    41.2537 </r>
       <r>     1.2085     8.3650    42.5769 </r>
       <r>     1.3667    12.6865    44.5837 </r>
       <r>     1.5249     8.2451    45.8879 </r>
       <r>     1.6831     8.0860    47.1670 </r>
       <r>     1.8413     8.0194    48.4356 </r>
       <r>     1.9995     7.8360    49.6751 </r>
       <r>     2.1576     5.7688    50.5876 </r>
       <r>     2.3158     6.7744    51.6592 </r>
       <r>     2.4740     1.2624    51.8589 </r>
       <r>     2.6322     3.1343    52.3547 </r>
       <r>     2.7904     3.4827    52.9056 </r>
       <r>     2.9486     1.8438    53.1973 </r>
       <r>     3.1067     3.3006    53.7194 </r>
       <r>     3.2649     1.5502    53.9646 </r>
       <r>     3.4231     2.9174    54.4261 </r>
       <r>     3.5813     0.5934    54.5200 </r>
       <r>     3.7395     0.0000    54.5200 </r>
       <r>     3.8977     0.0530    54.5284 </r>
       <r>     4.0559     0.2264    54.5642 </r>
       <r>     4.2140     2.3397    54.9343 </r>
       <r>     4.3722     0.6683    55.0400 </r>
       <r>     4.5304     0.0001    55.0400 </r>
       <r>     4.6886     0.7711    55.1620 </r>
       <r>     4.8468     0.7457    55.2800 </r>
       <r>     5.0050     0.2599    55.3211 </r>
       <r>     5.1632     1.2843    55.5242 </r>
       <r>     5.3213     0.2253    55.5599 </r>
       <r>     5.4795     0.3192    55.6104 </r>
       <r>     5.6377     2.1703    55.9537 </r>
       <r>     5.7959     1.5563    56.1999 </r>
       <r>     5.9541     0.4772    56.2753 </r>
       <r>     6.1123     1.5831    56.5258 </r>
       <r>     6.2704     2.1595    56.8674 </r>
       <r>     6.4286     0.8383    57.0000 </r>
       <r>     6.5868     0.0003    57.0000 </r>
       <r>     6.7450     0.0000    57.0000 </r>
       <r>     6.9032     0.0000    57.0000 </r>
       <r>     7.0614     0.0000    57.0000 </r>
       <r>     7.2196     0.2918    57.0462 </r>
       <r>     7.3777     1.4071    57.2687 </r>
       <r>     7.5359     2.1365    57.6067 </r>
       <r>     7.6941     0.5963    57.7010 </r>
       <r>     7.8523     1.1573    57.8841 </r>
       <r>     8.0105     1.5714    58.1327 </r>
       <r>     8.1687     3.4227    58.6741 </r>
       <r>     8.3269     3.2011    59.1805 </r>
       <r>     8.4850     3.2541    59.6952 </r>
       <r>     8.6432     3.6966    60.2799 </r>
       <r>     8.8014     1.4167    60.5041 </r>
       <r>     8.9596     4.1184    61.1555 </r>
       <r>     9.1178     5.7546    62.0658 </r>
       <r>     9.2760     2.3707    62.4408 </r>
       <r>     9.4341     3.1687    62.9421 </r>
       <r>     9.5923     3.7420    63.5340 </r>
       <r>     9.7505     3.2318    64.0452 </r>
       <r>     9.9087     3.0976    64.5352 </r>
       <r>    10.0669     6.1918    65.5146 </r>
       <r>    10.2251     4.0034    66.1479 </r>
       <r>    10.3833     2.5598    66.5528 </r>
       <r>    10.5414     6.1760    67.5298 </r>
       <r>    10.6996     3.3092    68.0533 </r>
       <r>    10.8578     2.2417    68.4079 </r>
       <r>    11.0160     3.8150    69.0113 </r>
       <r>    11.1742     3.6706    69.5920 </r>
       <r>    11.3324     6.8303    70.6724 </r>
       <r>    11.4905     5.3292    71.5154 </r>
       <r>    11.6487     1.6842    71.7818 </r>
       <r>    11.8069     1.3774    71.9997 </r>
       <r>    11.9651     0.0017    72.0000 </r>
       <r>    12.1233     0.0000    72.0000 </r>
       <r>    12.2815     0.0000    72.0000 </r>
       <r>    12.4397     0.0000    72.0000 </r>
       <r>    12.5978     0.0000    72.0000 </r>
       <r>    12.7560     0.0000    72.0000 </r>
       <r>    12.9142     0.0000    72.0000 </r>
       <r>    13.0724     0.0000    72.0000 </r>
       <r>    13.2306     0.0000    72.0000 </r>
       <r>    13.3888     0.0000    72.0000 </r>
       <r>    13.5470     0.0000    72.0000 </r>
       <r>    13.7051     0.0000    72.0000 </r>
       <r>    13.8633     0.0000    72.0000 </r>
      </set>
     </set>
    </array>
   </total>
  </dos>
 </calculation>
 <structure name="finalpos" >
  <crystal>
   <varray name="basis" >
    <v>       4.00000000       0.00000000       0.00000000 </v>
    <v>       0.00000000       4.00000000       0.00000000 </v>
    <v>       0.00000000       0.00000000      12.00000000 </v>
   </varray>
   <i name="volume">    192.00000000 </i>
   <varray name="rec_basis" >
    <v>       0.25000000       0.00000000       0.00000000 </v>
    <v>       0.00000000       0.25000000       0.00000000 </v>
    <v>       0.00000000       0.00000000       0.08333333 </v>
   </varray>
  </crystal>
  <varray name="positions" >
   <v>       0.00000000       0.00000000       0.83333333 </v>
   <v>       0.00000000       0.00000000       0.16666667 </v>
   <v>       0.00000000       0.00000000       0.50000000 </v>
   <v>       0.50000000       0.50000000       0.00000000 </v>
   <v>       0.50000000       0.50000000       0.33333333 </v>
   <v>       0.50000000       0.50000000       0.66666667 </v>
   <v>       0.50000000       0.50000000       0.50000000 </v>
   <v>       0.00000000       0.50000000       0.00000000 </v>
   <v>       0.00000000       0.50000000       0.33333333 </v>
   <v>       0.00000000       0.50000000       0.66666667 </v>
   <v>       0.50000000       0.00000000       0.00000000 </v>
   <v>       0.50000000       0.00000000       0.33333333 </v>
   <v>       0.50000000       0.00000000       0.66666667 </v>
  </varray>
 </structure>
</modeling>
