<?xml version="1.0" encoding="ISO-8859-1"?>
<modeling>
 <generator>
  <i name="program" type="string">vasp </i>
  <i name="version" type="string">5.3.5  </i>
  <i name="subversion" type="string">31Mar14 (build Jun 20 2014 13:15:13) complex                          parallel </i>
  <i name="platform" type="string">LinuxIFC </i>
  <i name="date" type="string">2025 12 16 </i>
  <i name="time" type="string">17:26:16 </i>
 </generator>
 <incar>
  <i type="string" name="PREC">accurate</i>
  <i type="int" name="IALGO">    68</i>
  <i type="logical" name="ADDGRID"> T  </i>
  <i type="int" name="NELM">   100</i>
  <i type="int" name="NELMIN">     4</i>
  <i type="int" name="IBRION">     2</i>
  <i name="EDIFF">      0.00000100</i>
  <i name="EDIFFG">     -0.02000000</i>
  <i type="int" name="NSW">    30</i>
  <i type="int" name="ISIF">     3</i>
  <i name="ENCUT">    600.00000000</i>
  <i type="logical" name="LREAL"> F  </i>
  <i type="int" name="ISMEAR">     0</i>
  <i name="SIGMA">      0.10000000</i>
  <i type="logical" name="LWAVE"> F  </i>
  <i type="logical" name="LCHARG"> F  </i>
  <i type="int" name="NELM">   100</i>
 </incar>
 <kpoints>
  <generation param="Auto">
   <i name="subdivisionlength">     20.00000000 </i>
   <v type="int" name="divisions">       4        4        3 </v>
   <v name="usershift">      0.00000000       0.00000000       0.00000000 </v>
   <v name="genvec1">      0.25000000       0.00000000       0.00000000 </v>
   <v name="genvec2">      0.00000000       0.25000000       0.00000000 </v>
   <v name="genvec3">      0.00000000       0.00000000       0.33333333 </v>
   <v name="shift">      0.00000000       0.00000000       0.00000000 </v>
  </generation>
  <varray name="kpointlist" >
   <v>       0.00000000       0.00000000       0.00000000 </v>
   <v>       0.25000000       0.00000000       0.00000000 </v>
   <v>       0.50000000       0.00000000       0.00000000 </v>
   <v>       0.00000000       0.25000000       0.00000000 </v>
   <v>       0.25000000       0.25000000       0.00000000 </v>
   <v>       0.50000000       0.25000000       0.00000000 </v>
   <v>      -0.25000000       0.25000000       0.00000000 </v>
   <v>       0.00000000       0.50000000       0.00000000 </v>
   <v>       0.25000000       0.50000000       0.00000000 </v>
   <v>       0.50000000       0.50000000       0.00000000 </v>
   <v>       0.00000000       0.00000000       0.33333333 </v>
   <v>       0.25000000       0.00000000       0.33333333 </v>
   <v>       0.50000000       0.00000000       0.33333333 </v>
   <v>      -0.25000000       0.00000000       0.33333333 </v>
   <v>       0.00000000       0.25000000       0.33333333 </v>
   <v>       0.25000000       0.25000000       0.33333333 </v>
   <v>       0.50000000       0.25000000       0.33333333 </v>
   <v>      -0.25000000       0.25000000       0.33333333 </v>
   <v>       0.00000000       0.50000000       0.33333333 </v>
   <v>       0.25000000       0.50000000       0.33333333 </v>
   <v>       0.50000000       0.50000000       0.33333333 </v>
   <v>      -0.25000000       0.50000000       0.33333333 </v>
   <v>       0.00000000      -0.25000000       0.33333333 </v>
   <v>       0.25000000      -0.25000000       0.33333333 </v>
   <v>       0.50000000      -0.25000000       0.33333333 </v>
   <v>      -0.25000000      -0.25000000       0.33333333 </v>
  </varray>
  <varray name="weights" >
   <v>       0.02083333 </v>
   <v>       0.04166667 </v>
   <v>       0.02083333 </v>
   <v>       0.04166667 </v>
   <v>       0.04166667 </v>
   <v>       0.04166667 </v>
   <v>       0.04166667 </v>
   <v>       0.02083333 </v>
   <v>       0.04166667 </v>
   <v>       0.02083333 </v>
   <v>       0.04166667 </v>
   <v>       0.04166667 </v>
   <v>       0.04166667 </v>
   <v>       0.04166667 </v>
   <v>       0.04166667 </v>
   <v>       0.04166667 </v>
   <v>       0.04166667 </v>
   <v>       0.04166667 </v>
   <v>       0.04166667 </v>
   <v>       0.04166667 </v>
   <v>       0.04166667 </v>
   <v>       0.04166667 </v>
   <v>       0.04166667 </v>
   <v>       0.04166667 </v>
   <v>       0.04166667 </v>
   <v>       0.04166667 </v>
  </varray>
 </kpoints>
 <parameters>
  <separator name="general" >
   <i type="string" name="SYSTEM">unknown system</i>
   <i type="logical" name="LCOMPAT"> F  </i>
  </separator>
  <separator name="electronic" >
   <i type="string" name="PREC">accura</i>
   <i name="ENMAX">    600.00000000</i>
   <i name="ENAUG">    644.87300000</i>
   <i name="EDIFF">      0.00000100</i>
   <i type="int" name="IALGO">    68</i>
   <i type="int" name="IWAVPR">    11</i>
   <i type="int" name="NBANDS">    44</i>
   <i name="NELECT">     64.00000000</i>
   <i type="int" name="TURBO">     0</i>
   <i type="int" name="IRESTART">     0</i>
   <i type="int" name="NREBOOT">     0</i>
   <i type="int" name="NMIN">     0</i>
   <i name="EREF">      0.00000000</i>
   <separator name="electronic smearing" >
    <i type="int" name="ISMEAR">     0</i>
    <i name="SIGMA">      0.10000000</i>
    <i name="KSPACING">      0.50000000</i>
    <i type="logical" name="KGAMMA"> T  </i>
   </separator>
   <separator name="electronic projectors" >
    <i type="logical" name="LREAL"> F  </i>
    <v name="ROPT">      0.00000000      0.00000000      0.00000000      0.00000000</v>
    <i type="int" name="LMAXPAW">  -100</i>
    <i type="int" name="LMAXMIX">     2</i>
    <i type="logical" name="NLSPLINE"> F  </i>
   </separator>
   <separator name="electronic startup" >
    <i type="int" name="ISTART">     0</i>
    <i type="int" name="ICHARG">     2</i>
    <i type="int" name="INIWAV">     1</i>
   </separator>
   <separator name="electronic spin" >
    <i type="int" name="ISPIN">     1</i>
    <i type="logical" name="LNONCOLLINEAR"> F  </i>
    <v name="MAGMOM">      1.00000000      1.00000000      1.00000000      1.00000000      1.00000000      1.00000000      1.00000000      1.00000000      1.00000000      1.00000000      1.00000000      1.00000000      1.00000000      1.00000000      1.00000000      1.00000000</v>
    <i name="NUPDOWN">     -1.00000000</i>
    <i type="logical" name="LSORBIT"> F  </i>
    <v name="SAXIS">      0.00000000      0.00000000      1.00000000</v>
    <i type="logical" name="LSPIRAL"> F  </i>
    <v name="QSPIRAL">      0.00000000      0.00000000      0.00000000</v>
    <i type="logical" name="LZEROZ"> F  </i>
   </separator>
   <separator name="electronic exchange-correlation" >
    <i type="logical" name="LASPH"> F  </i>
    <i type="logical" name="LMETAGGA"> F  </i>
   </separator>
   <separator name="electronic convergence" >
    <i type="int" name="NELM">   100</i>
    <i type="int" name="NELMDL">     0</i>
    <i type="int" name="NELMIN">     4</i>
    <i name="ENINI">    600.00000000</i>
    <separator name="electronic convergence detail" >
     <i type="logical" name="LDIAG"> T  </i>
     <i type="logical" name="LSUBROT"> F  </i>
     <i name="WEIMIN">      0.00100000</i>
     <i name="EBREAK">      0.00000001</i>
     <i name="DEPER">      0.30000000</i>
     <i type="int" name="NRMM">     4</i>
     <i name="TIME">      0.40000000</i>
    </separator>
   </separator>
   <separator name="electronic mixer" >
    <i name="AMIX">      0.40000000</i>
    <i name="BMIX">      1.00000000</i>
    <i name="AMIN">      0.10000000</i>
    <i name="AMIX_MAG">      1.60000000</i>
    <i name="BMIX_MAG">      1.00000000</i>
    <separator name="electronic mixer details" >
     <i type="int" name="IMIX">     4</i>
     <i type="int" name="MAXMIX">   -45</i>
     <i name="WC">    100.00000000</i>
     <i type="int" name="INIMIX">     1</i>
     <i type="int" name="MIXPRE">     1</i>
     <i type="int" name="MREMOVE">     5</i>
    </separator>
   </separator>
   <separator name="electronic dipolcorrection" >
    <i type="logical" name="LDIPOL"> F  </i>
    <i type="logical" name="LMONO"> F  </i>
    <i type="int" name="IDIPOL">     0</i>
    <i name="EPSILON">      1.00000000</i>
    <v name="DIPOL">   -100.00000000   -100.00000000   -100.00000000</v>
    <i name="EFIELD">      0.00000000</i>
   </separator>
  </separator>
  <separator name="grids" >
   <i type="int" name="NGX">    48</i>
   <i type="int" name="NGY">    48</i>
   <i type="int" name="NGZ">    50</i>
   <i type="int" name="NGXF">    96</i>
   <i type="int" name="NGYF">    96</i>
   <i type="int" name="NGZF">   100</i>
   <i type="logical" name="ADDGRID"> T  </i>
  </separator>
  <separator name="ionic" >
   <i type="int" name="NSW">    30</i>
   <i type="int" name="IBRION">     2</i>
   <i type="int" name="ISIF">     3</i>
   <i name="PSTRESS">      0.00000000</i>
   <i name="EDIFFG">     -0.02000000</i>
   <i type="int" name="NFREE">     1</i>
   <i name="POTIM">      0.50000000</i>
   <i name="SMASS">     -3.00000000</i>
   <i name="SCALEE">      1.00000000</i>
  </separator>
  <separator name="ionic md" >
   <i name="TEBEG">      0.00010000</i>
   <i name="TEEND">      0.00010000</i>
   <i type="int" name="NBLOCK">     1</i>
   <i type="int" name="KBLOCK">    30</i>
   <i type="int" name="NPACO">   256</i>
   <i name="APACO">     16.00000000</i>
  </separator>
  <separator name="symmetry" >
   <i type="int" name="ISYM">     2</i>
   <i name="SYMPREC">      0.00001000</i>
  </separator>
  <separator name="dos" >
   <i type="logical" name="LORBIT"> F  </i>
   <v name="RWIGS">     -1.00000000     -1.00000000     -1.00000000     -1.00000000</v>
   <i type="int" name="NEDOS">   301</i>
   <i name="EMIN">     10.00000000</i>
   <i name="EMAX">    -10.00000000</i>
   <i name="EFERMI">      0.00000000</i>
  </separator>
  <separator name="writing" >
   <i type="int" name="NWRITE">     2</i>
   <i type="logical" name="LWAVE"> F  </i>
   <i type="logical" name="LCHARG"> F  </i>
   <i type="logical" name="LPARD"> F  </i>
   <i type="logical" name="LVTOT"> F  </i>
   <i type="logical" name="LVHAR"> F  </i>
   <i type="logical" name="LELF"> F  </i>
   <i type="logical" name="LOPTICS"> F  </i>
   <v name="STM">      0.00000000      0.00000000      0.00000000      0.00000000      0.00000000      0.00000000      0.00000000</v>
  </separator>
  <separator name="performance" >
   <i type="int" name="NPAR">     4</i>
   <i type="int" name="NSIM">     4</i>
   <i type="int" name="NBLK">    -1</i>
   <i type="logical" name="LPLANE"> T  </i>
   <i type="logical" name="LSCALAPACK"> T  </i>
   <i type="logical" name="LSCAAWARE"> F  </i>
   <i type="logical" name="LSCALU"> F  </i>
   <i type="logical" name="LASYNC"> F  </i>
   <i type="logical" name="LORBITALREAL"> F  </i>
  </separator>
  <separator name="miscellaneous" >
   <i type="int" name="IDIOT">     3</i>
   <i type="logical" name="LMUSIC"> F  </i>
   <v name="POMASS">     28.08500000     26.98100000     12.01100000     14.00100000</v>
   <v name="DARWINR">      0.00000000      0.00000000      0.00000000      0.00000000</v>
   <v name="DARWINV">      1.00000000      1.00000000      1.00000000      1.00000000</v>
   <i type="logical" name="LCORR"> T  </i>
  </separator>
  <i type="logical" name="GGA_COMPAT"> T  </i>
  <i type="logical" name="LBERRY"> F  </i>
  <i type="int" name="ICORELEVEL">     0</i>
  <i type="logical" name="LDAU"> F  </i>
  <i type="int" name="I_CONSTRAINED_M">     0</i>
  <separator name="electronic exchange-correlation" >
   <i type="string" name="GGA">--</i>
   <i type="int" name="VOSKOWN">     0</i>
   <i type="logical" name="LHFCALC"> F  </i>
   <i type="string" name="PRECFOCK"></i>
   <i type="logical" name="LSYMGRAD"> F  </i>
   <i type="logical" name="LHFONE"> F  </i>
   <i type="logical" name="LRHFCALC"> F  </i>
   <i type="logical" name="LTHOMAS"> F  </i>
   <i type="logical" name="LMODELHF"> F  </i>
   <i name="ENCUT4O">     -1.00000000</i>
   <i type="int" name="EXXOEP">     0</i>
   <i type="int" name="FOURORBIT">     0</i>
   <i name="AEXX">      0.00000000</i>
   <i name="HFALPHA">      0.00000000</i>
   <i name="MCALPHA">      0.00000000</i>
   <i name="ALDAX">      1.00000000</i>
   <i name="AGGAX">      1.00000000</i>
   <i name="ALDAC">      1.00000000</i>
   <i name="AGGAC">      1.00000000</i>
   <i type="int" name="NKREDX">     1</i>
   <i type="int" name="NKREDY">     1</i>
   <i type="int" name="NKREDZ">     1</i>
   <i type="logical" name="SHIFTRED"> F  </i>
   <i type="logical" name="ODDONLY"> F  </i>
   <i type="logical" name="EVENONLY"> F  </i>
   <i type="int" name="LMAXFOCK">     0</i>
   <i type="int" name="NMAXFOCKAE">     0</i>
   <i type="logical" name="LFOCKAEDFT"> F  </i>
   <i name="HFSCREEN">      0.00000000</i>
   <i name="HFSCREENC">      0.00000000</i>
   <i type="int" name="NBANDSGWLOW">     0</i>
  </separator>
  <separator name="vdW DFT" >
   <i type="logical" name="LUSE_VDW"> F  </i>
   <i name="Zab_VDW">     -0.84910000</i>
   <i name="PARAM1">      0.12340000</i>
   <i name="PARAM2">      1.00000000</i>
   <i name="PARAM3">      0.00000000</i>
  </separator>
  <separator name="model GW" >
   <i type="int" name="MODEL_GW">     0</i>
   <i name="MODEL_EPS0">      6.38471599</i>
   <i name="MODEL_ALPHA">      1.00000000</i>
  </separator>
  <separator name="linear response parameters" >
   <i type="logical" name="LEPSILON"> F  </i>
   <i type="logical" name="LRPA"> F  </i>
   <i type="logical" name="LNABLA"> F  </i>
   <i type="logical" name="LVEL"> F  </i>
   <i type="int" name="KINTER">     0</i>
   <i name="CSHIFT">      0.10000000</i>
   <i name="OMEGAMAX">     -1.00000000</i>
   <i name="DEG_THRESHOLD">      0.00200000</i>
  </separator>
  <separator name="orbital magnetization" >
   <i type="logical" name="NUCIND"> F  </i>
   <v name="MAGPOS">      0.00000000      0.00000000      0.00000000</v>
   <i type="logical" name="LNICSALL"> T  </i>
   <i type="logical" name="ORBITALMAG"> F  </i>
   <i type="logical" name="LMAGBLOCH"> F  </i>
   <i type="logical" name="LCHIMAG"> F  </i>
   <i type="logical" name="LGAUGE"> T  </i>
   <i type="int" name="MAGATOM">     0</i>
   <v name="MAGDIPOL">      0.00000000      0.00000000      0.00000000</v>
   <v name="AVECCONST">      0.00000000      0.00000000      0.00000000</v>
  </separator>
  <separator name="response functions" >
   <i type="logical" name="LADDER"> F  </i>
   <i type="logical" name="LFXC"> F  </i>
   <i type="logical" name="LHARTREE"> T  </i>
   <i type="int" name="IBSE">     0</i>
   <i type="logical" name="LTCTE"> F  </i>
   <i type="logical" name="LTETE"> F  </i>
   <i type="logical" name="LTRIPLET"> F  </i>
   <i type="logical" name="LFXCEPS"> F  </i>
   <i type="logical" name="LFXHEG"> F  </i>
   <i type="logical" name="L2ORDER"> F  </i>
   <i type="logical" name="LUSEW"> F  </i>
   <i name="ENCUTGW">     -2.00000000</i>
   <i name="ENCUTGWSOFT">     -2.00000000</i>
   <i name="ENCUTLF">     -1.00000000</i>
   <i type="int" name="LMAXMP2">    -1</i>
   <i name="SCISSOR">      0.00000000</i>
   <i type="int" name="NOMEGA">     0</i>
   <i type="int" name="NOMEGAR">     0</i>
   <i type="int" name="NBANDSGW">    -1</i>
   <i type="int" name="NBANDSO">    -1</i>
   <i type="int" name="NBANDSV">    -1</i>
   <i type="int" name="NELM">   100</i>
   <i type="int" name="DIM">     3</i>
   <i type="int" name="ANTIRES">     0</i>
   <i name="OMEGAMAX">    -30.00000000</i>
   <i name="OMEGAMIN">    -30.00000000</i>
   <i name="OMEGATL">   -200.00000000</i>
   <i type="int" name="OMEGAGRID">     0</i>
   <i name="CSHIFT">     -0.10000000</i>
   <i type="logical" name="SELFENERGY"> F  </i>
   <i type="logical" name="LSPECTRAL"> F  </i>
   <i type="logical" name="ODDONLYGW"> F  </i>
   <i type="logical" name="EVENONLYGW"> F  </i>
   <i type="int" name="NKREDLFX">     1</i>
   <i type="int" name="NKREDLFY">     1</i>
   <i type="int" name="NKREDLFZ">     1</i>
   <i type="int" name="MAXMEM">  1800</i>
   <i type="int" name="TELESCOPE">     0</i>
   <i type="int" name="TAUPAR">     1</i>
  </separator>
  <separator name="External order field" >
   <i name="OFIELD_KAPPA">      0.00000000</i>
   <v name="OFIELD_K">      0.00000000      0.00000000      0.00000000</v>
   <i name="OFIELD_Q6_NEAR">      0.00000000</i>
   <i name="OFIELD_Q6_FAR">      0.00000000</i>
   <i name="OFIELD_A">      0.00000000</i>
  </separator>
 </parameters>
 <atominfo>
  <atoms>      16 </atoms>
  <types>       4 </types>
  <array name="atoms" >
   <dimension dim="1">ion</dimension>
   <field type="string">element</field>
   <field type="int">atomtype</field>
   <set>
    <rc><c>Si</c><c>   1</c></rc>
    <rc><c>Si</c><c>   1</c></rc>
    <rc><c>Si</c><c>   1</c></rc>
    <rc><c>Si</c><c>   1</c></rc>
    <rc><c>Al</c><c>   2</c></rc>
    <rc><c>Al</c><c>   2</c></rc>
    <rc><c>Al</c><c>   2</c></rc>
    <rc><c>Al</c><c>   2</c></rc>
    <rc><c>C </c><c>   3</c></rc>
    <rc><c>C </c><c>   3</c></rc>
    <rc><c>C </c><c>   3</c></rc>
    <rc><c>C </c><c>   3</c></rc>
    <rc><c>N </c><c>   4</c></rc>
    <rc><c>N </c><c>   4</c></rc>
    <rc><c>N </c><c>   4</c></rc>
    <rc><c>N </c><c>   4</c></rc>
   </set>
  </array>
  <array name="atomtypes" >
   <dimension dim="1">type</dimension>
   <field type="int">atomspertype</field>
   <field type="string">element</field>
   <field>mass</field>
   <field>valence</field>
   <field type="string">pseudopotential</field>
   <set>
    <rc><c>   4</c><c>Si</c><c>     28.08500000</c><c>      4.00000000</c><c>  PAW_PBE Si 05Jan2001                  </c></rc>
    <rc><c>   4</c><c>Al</c><c>     26.98100000</c><c>      3.00000000</c><c>  PAW_PBE Al 04Jan2001                  </c></rc>
    <rc><c>   4</c><c>C </c><c>     12.01100000</c><c>      4.00000000</c><c>  PAW_PBE C 08Apr2002                   </c></rc>
    <rc><c>   4</c><c>N </c><c>     14.00100000</c><c>      5.00000000</c><c>  PAW_PBE N_s 07Sep2000                 </c></rc>
   </set>
  </array>
 </atominfo>
 <structure name="initialpos" >
  <crystal>
   <varray name="basis" >
    <v>       5.37423980      -0.01967004      -0.00729887 </v>
    <v>      -2.70644465       5.30542906       0.01780918 </v>
    <v>      -0.00126594      -1.86802148       5.97753924 </v>
   </varray>
   <i name="volume">    170.25909304 </i>
   <varray name="rec_basis" >
    <v>       0.18646099       0.09501905       0.02973358 </v>
    <v>       0.00077067       0.18868138       0.05896437 </v>
    <v>       0.00022538      -0.00044612       0.16715355 </v>
   </varray>
  </crystal>
  <varray name="positions" >
   <v>       0.83859167       0.00972108       0.75248419 </v>
   <v>       0.32836583       0.99554261       0.49999739 </v>
   <v>       0.40220539       0.50135632       0.87582974 </v>
   <v>       0.40914419       0.50224063       0.37559881 </v>
   <v>       0.84049191       0.00322320       0.25050702 </v>
   <v>       0.33532060       0.99863967       0.99926961 </v>
   <v>       0.91810995       0.49641911       0.12150264 </v>
   <v>       0.91937303       0.50138225       0.62714095 </v>
   <v>       0.14890207       0.61698285       0.90410137 </v>
   <v>       0.15541642       0.62875003       0.40671740 </v>
   <v>       0.22821589       0.13153050       0.77115743 </v>
   <v>       0.25596416       0.14159828       0.29797248 </v>
   <v>       0.62899513       0.61483147       0.15281517 </v>
   <v>       0.64307509       0.64043821       0.65991326 </v>
   <v>       0.73646224       0.11090050       0.01533900 </v>
   <v>       0.71136643       0.10644328       0.53965352 </v>
  </varray>
 </structure>
 <calculation>
  <scstep>
   <time name="dav">    0.56    0.56</time>
   <time name="total">    0.62    0.63</time>
   <energy>
    <i name="alphaZ">     63.88261338 </i>
    <i name="ewald">  -2274.71363479 </i>
    <i name="hartreedc">   -356.39289369 </i>
    <i name="XCdc">     -5.52598664 </i>
    <i name="pawpsdc">   1871.13760811 </i>
    <i name="pawaedc">  -1679.96522576 </i>
    <i name="eentropy">     -0.01061597 </i>
    <i name="bandstr">    442.17916953 </i>
    <i name="atom">   2273.20978491 </i>
    <i name="e_fr_energy">    333.80081908 </i>
    <i name="e_wo_entrp">    333.81143506 </i>
    <i name="e_0_energy">    333.80612707 </i>
   </energy>
  </scstep>
  <scstep>
   <time name="dav">    0.64    0.64</time>
   <time name="total">    0.64    0.65</time>
   <energy>
    <i name="e_fr_energy">   -100.93079202 </i>
    <i name="e_wo_entrp">   -100.93079202 </i>
    <i name="e_0_energy">   -100.93079202 </i>
   </energy>
  </scstep>
  <scstep>
   <time name="dav">    0.70    0.70</time>
   <time name="total">    0.70    0.71</time>
   <energy>
    <i name="e_fr_energy">   -133.98663291 </i>
    <i name="e_wo_entrp">   -133.98663291 </i>
    <i name="e_0_energy">   -133.98663291 </i>
   </energy>
  </scstep>
  <scstep>
   <time name="dav">    0.67    0.67</time>
   <time name="total">    0.67    0.69</time>
   <energy>
    <i name="e_fr_energy">   -134.87215769 </i>
    <i name="e_wo_entrp">   -134.87215769 </i>
    <i name="e_0_energy">   -134.87215769 </i>
   </energy>
  </scstep>
  <scstep>
   <time name="dav">    0.65    0.65</time>
   <time name="total">    0.73    0.75</time>
   <energy>
    <i name="e_fr_energy">   -134.90041515 </i>
    <i name="e_wo_entrp">   -134.90041515 </i>
    <i name="e_0_energy">   -134.90041515 </i>
   </energy>
  </scstep>
  <scstep>
   <time name="diag">    0.14    0.14</time>
   <time name="diis">    0.36    0.36</time>
   <time name="orth">    0.02    0.02</time>
   <time name="total">    0.65    0.67</time>
   <energy>
    <i name="e_fr_energy">   -117.04001185 </i>
    <i name="e_wo_entrp">   -117.04001185 </i>
    <i name="e_0_energy">   -117.04001185 </i>
   </energy>
  </scstep>
  <scstep>
   <time name="diag">    0.14    0.14</time>
   <time name="diis">    0.40    0.40</time>
   <time name="orth">    0.02    0.02</time>
   <time name="total">    0.68    0.69</time>
   <energy>
    <i name="e_fr_energy">   -116.94810761 </i>
    <i name="e_wo_entrp">   -116.94810761 </i>
    <i name="e_0_energy">   -116.94810761 </i>
   </energy>
  </scstep>
  <scstep>
   <time name="diag">    0.14    0.14</time>
   <time name="diis">    0.37    0.37</time>
   <time name="orth">    0.02    0.02</time>
   <time name="total">    0.65    0.66</time>
   <energy>
    <i name="e_fr_energy">   -117.18874773 </i>
    <i name="e_wo_entrp">   -117.18874773 </i>
    <i name="e_0_energy">   -117.18874773 </i>
   </energy>
  </scstep>
  <scstep>
   <time name="diag">    0.14    0.14</time>
   <time name="diis">    0.36    0.36</time>
   <time name="orth">    0.02    0.02</time>
   <time name="total">    0.65    0.67</time>
   <energy>
    <i name="e_fr_energy">   -116.83522113 </i>
    <i name="e_wo_entrp">   -116.83522113 </i>
    <i name="e_0_energy">   -116.83522113 </i>
   </energy>
  </scstep>
  <scstep>
   <time name="diag">    0.14    0.14</time>
   <time name="diis">    0.38    0.38</time>
   <time name="orth">    0.02    0.02</time>
   <time name="total">    0.66    0.67</time>
   <energy>
    <i name="e_fr_energy">   -116.84163781 </i>
    <i name="e_wo_entrp">   -116.84163781 </i>
    <i name="e_0_energy">   -116.84163781 </i>
   </energy>
  </scstep>
  <scstep>
   <time name="diag">    0.14    0.14</time>
   <time name="diis">    0.37    0.37</time>
   <time name="orth">    0.02    0.02</time>
   <time name="total">    0.64    0.66</time>
   <energy>
    <i name="e_fr_energy">   -116.84064933 </i>
    <i name="e_wo_entrp">   -116.84064933 </i>
    <i name="e_0_energy">   -116.84064933 </i>
   </energy>
  </scstep>
  <scstep>
   <time name="diag">    0.14    0.14</time>
   <time name="diis">    0.36    0.36</time>
   <time name="orth">    0.02    0.02</time>
   <time name="total">    0.64    0.65</time>
   <energy>
    <i name="e_fr_energy">   -116.84023334 </i>
    <i name="e_wo_entrp">   -116.84023334 </i>
    <i name="e_0_energy">   -116.84023334 </i>
   </energy>
  </scstep>
  <scstep>
   <time name="diag">    0.14    0.14</time>
   <time name="diis">    0.36    0.36</time>
   <time name="orth">    0.02    0.02</time>
   <time name="total">    0.64    0.66</time>
   <energy>
    <i name="e_fr_energy">   -116.84025862 </i>
    <i name="e_wo_entrp">   -116.84025862 </i>
    <i name="e_0_energy">   -116.84025862 </i>
   </energy>
  </scstep>
  <scstep>
   <time name="diag">    0.14    0.14</time>
   <time name="diis">    0.36    0.36</time>
   <time name="orth">    0.02    0.02</time>
   <time name="total">    0.65    0.67</time>
   <energy>
    <i name="e_fr_energy">   -116.84025660 </i>
    <i name="e_wo_entrp">   -116.84025660 </i>
    <i name="e_0_energy">   -116.84025660 </i>
   </energy>
  </scstep>
  <scstep>
   <time name="diag">    0.14    0.14</time>
   <time name="diis">    0.28    0.28</time>
   <time name="orth">    0.02    0.02</time>
   <time name="total">    0.49    0.50</time>
   <energy>
    <i name="alphaZ">     63.88261338 </i>
    <i name="ewald">  -2274.71363479 </i>
    <i name="hartreedc">   -464.37801757 </i>
    <i name="XCdc">      4.07164014 </i>
    <i name="pawpsdc">  10096.59194739 </i>
    <i name="pawaedc">  -9909.60288823 </i>
    <i name="eentropy">      0.00000000 </i>
    <i name="bandstr">     94.09829786 </i>
    <i name="atom">   2273.20978491 </i>
    <i name="e_fr_energy">   -116.84025692 </i>
    <i name="e_wo_entrp">   -116.84025692 </i>
    <i name="e_0_energy">   -116.84025692 </i>
   </energy>
  </scstep>
  <structure>
   <crystal>
    <varray name="basis" >
     <v>       5.37423980      -0.01967004      -0.00729887 </v>
     <v>      -2.70644465       5.30542906       0.01780918 </v>
     <v>      -0.00126594      -1.86802148       5.97753924 </v>
    </varray>
    <i name="volume">    170.25909304 </i>
    <varray name="rec_basis" >
     <v>       0.18646099       0.09501905       0.02973358 </v>
     <v>       0.00077067       0.18868138       0.05896437 </v>
     <v>       0.00022538      -0.00044612       0.16715355 </v>
    </varray>
   </crystal>
   <varray name="positions" >
    <v>       0.83859167       0.00972108       0.75248419 </v>
    <v>       0.32836583       0.99554261       0.49999739 </v>
    <v>       0.40220539       0.50135632       0.87582974 </v>
    <v>       0.40914419       0.50224063       0.37559881 </v>
    <v>       0.84049191       0.00322320       0.25050702 </v>
    <v>       0.33532060       0.99863967       0.99926961 </v>
    <v>       0.91810995       0.49641911       0.12150264 </v>
    <v>       0.91937303       0.50138225       0.62714095 </v>
    <v>       0.14890207       0.61698285       0.90410137 </v>
    <v>       0.15541642       0.62875003       0.40671740 </v>
    <v>       0.22821589       0.13153050       0.77115743 </v>
    <v>       0.25596416       0.14159828       0.29797248 </v>
    <v>       0.62899513       0.61483147       0.15281517 </v>
    <v>       0.64307509       0.64043821       0.65991326 </v>
    <v>       0.73646224       0.11090050       0.01533900 </v>
    <v>       0.71136643       0.10644328       0.53965352 </v>
   </varray>
  </structure>
  <varray name="forces" >
   <v>       0.00436899       0.00924861       0.00248592 </v>
   <v>      -0.00111348       0.01224393       0.00447562 </v>
   <v>      -0.01647170       0.00007500       0.00225081 </v>
   <v>       0.00188348      -0.00545634       0.00081860 </v>
   <v>      -0.00132418      -0.00033285      -0.00193639 </v>
   <v>       0.01020805      -0.00703902       0.00334549 </v>
   <v>      -0.00860166       0.00580827       0.00888592 </v>
   <v>      -0.00525199      -0.00849554      -0.00038009 </v>
   <v>       0.01319361      -0.00023892       0.00095935 </v>
   <v>      -0.00960583       0.00468099      -0.01059267 </v>
   <v>       0.00331246      -0.01024044      -0.00209271 </v>
   <v>       0.00668443      -0.00069055      -0.00748822 </v>
   <v>      -0.01301971       0.00079481      -0.00547482 </v>
   <v>       0.01284447      -0.00678129       0.00241729 </v>
   <v>      -0.00108824      -0.00071221      -0.00096330 </v>
   <v>       0.00398131       0.00713555       0.00328917 </v>
  </varray>
  <varray name="stress" >
   <v>      -0.65245035      -0.16562152      -0.19355839 </v>
   <v>      -0.16562146       0.20257100      -0.22555816 </v>
   <v>      -0.19355840      -0.22555855       0.25046099 </v>
  </varray>
  <energy>
   <i name="e_fr_energy">   -116.84025692 </i>
   <i name="e_wo_entrp">   -116.84025692 </i>
   <i name="e_0_energy">      0.00000000 </i>
  </energy>
  <time name="totalsc">   11.20   11.44</time>
  <eigenvalues>
   <array>
    <dimension dim="1">band</dimension>
    <dimension dim="2">kpoint</dimension>
    <dimension dim="3">spin</dimension>
    <field>eigene</field>
    <field>occ</field>
    <set>
     <set comment="spin 1">
      <set comment="kpoint 1">
       <r>   -9.1730    1.0000 </r>
       <r>   -7.5788    1.0000 </r>
       <r>   -7.3572    1.0000 </r>
       <r>   -7.0950    1.0000 </r>
       <r>   -4.3407    1.0000 </r>
       <r>   -3.8405    1.0000 </r>
       <r>   -2.7221    1.0000 </r>
       <r>   -2.3200    1.0000 </r>
       <r>   -0.6693    1.0000 </r>
       <r>   -0.4871    1.0000 </r>
       <r>    0.3976    1.0000 </r>
       <r>    0.5911    1.0000 </r>
       <r>    1.1617    1.0000 </r>
       <r>    1.7215    1.0000 </r>
       <r>    2.2565    1.0000 </r>
       <r>    2.4166    1.0000 </r>
       <r>    3.0573    1.0000 </r>
       <r>    3.6848    1.0000 </r>
       <r>    3.7325    1.0000 </r>
       <r>    3.9660    1.0000 </r>
       <r>    4.3906    1.0000 </r>
       <r>    4.4928    1.0000 </r>
       <r>    4.8324    1.0000 </r>
       <r>    4.8816    1.0000 </r>
       <r>    4.9807    1.0000 </r>
       <r>    5.3483    1.0000 </r>
       <r>    6.2955    1.0000 </r>
       <r>    6.3850    1.0000 </r>
       <r>    7.0272    1.0000 </r>
       <r>    7.2661    1.0000 </r>
       <r>    7.5697    1.0000 </r>
       <r>    7.9422    1.0000 </r>
       <r>    9.9542    0.0000 </r>
       <r>   10.7938    0.0000 </r>
       <r>   11.9952    0.0000 </r>
       <r>   12.2696    0.0000 </r>
       <r>   12.5749    0.0000 </r>
       <r>   12.8319    0.0000 </r>
       <r>   13.1545    0.0000 </r>
       <r>   13.7553    0.0000 </r>
       <r>   14.3231    0.0000 </r>
       <r>   14.5141    0.0000 </r>
       <r>   14.6790    0.0000 </r>
       <r>   15.0115    0.0000 </r>
      </set>
      <set comment="kpoint 2">
       <r>   -9.0412    1.0000 </r>
       <r>   -7.6163    1.0000 </r>
       <r>   -7.3425    1.0000 </r>
       <r>   -7.1120    1.0000 </r>
       <r>   -4.8844    1.0000 </r>
       <r>   -3.7419    1.0000 </r>
       <r>   -2.9602    1.0000 </r>
       <r>   -2.2679    1.0000 </r>
       <r>   -0.5366    1.0000 </r>
       <r>   -0.1220    1.0000 </r>
       <r>    0.4113    1.0000 </r>
       <r>    0.9227    1.0000 </r>
       <r>    1.2593    1.0000 </r>
       <r>    1.6328    1.0000 </r>
       <r>    2.0484    1.0000 </r>
       <r>    2.8345    1.0000 </r>
       <r>    3.2060    1.0000 </r>
       <r>    3.7642    1.0000 </r>
       <r>    3.8864    1.0000 </r>
       <r>    4.1183    1.0000 </r>
       <r>    4.2237    1.0000 </r>
       <r>    4.7280    1.0000 </r>
       <r>    4.7562    1.0000 </r>
       <r>    4.9262    1.0000 </r>
       <r>    5.2575    1.0000 </r>
       <r>    5.6009    1.0000 </r>
       <r>    5.7853    1.0000 </r>
       <r>    5.9304    1.0000 </r>
       <r>    6.3486    1.0000 </r>
       <r>    7.2142    1.0000 </r>
       <r>    7.3318    1.0000 </r>
       <r>    7.8775    1.0000 </r>
       <r>   10.5406    0.0000 </r>
       <r>   11.3105    0.0000 </r>
       <r>   11.4462    0.0000 </r>
       <r>   11.8233    0.0000 </r>
       <r>   12.4576    0.0000 </r>
       <r>   12.8013    0.0000 </r>
       <r>   13.0174    0.0000 </r>
       <r>   13.4730    0.0000 </r>
       <r>   14.1566    0.0000 </r>
       <r>   14.5953    0.0000 </r>
       <r>   14.7156    0.0000 </r>
       <r>   15.0508    0.0000 </r>
      </set>
      <set comment="kpoint 3">
       <r>   -8.8847    1.0000 </r>
       <r>   -7.6685    1.0000 </r>
       <r>   -7.3132    1.0000 </r>
       <r>   -7.1442    1.0000 </r>
       <r>   -5.3302    1.0000 </r>
       <r>   -3.6393    1.0000 </r>
       <r>   -3.1319    1.0000 </r>
       <r>   -2.2796    1.0000 </r>
       <r>   -0.5578    1.0000 </r>
       <r>   -0.1859    1.0000 </r>
       <r>    0.5945    1.0000 </r>
       <r>    1.1827    1.0000 </r>
       <r>    1.6911    1.0000 </r>
       <r>    1.9829    1.0000 </r>
       <r>    2.5016    1.0000 </r>
       <r>    2.8855    1.0000 </r>
       <r>    3.2136    1.0000 </r>
       <r>    3.6364    1.0000 </r>
       <r>    3.7115    1.0000 </r>
       <r>    4.0468    1.0000 </r>
       <r>    4.3230    1.0000 </r>
       <r>    4.3534    1.0000 </r>
       <r>    4.5230    1.0000 </r>
       <r>    5.0000    1.0000 </r>
       <r>    5.1826    1.0000 </r>
       <r>    5.5356    1.0000 </r>
       <r>    5.7464    1.0000 </r>
       <r>    6.1351    1.0000 </r>
       <r>    6.3614    1.0000 </r>
       <r>    7.1084    1.0000 </r>
       <r>    7.2408    1.0000 </r>
       <r>    7.7738    1.0000 </r>
       <r>   10.8560    0.0000 </r>
       <r>   11.1424    0.0000 </r>
       <r>   11.3022    0.0000 </r>
       <r>   11.6946    0.0000 </r>
       <r>   12.0790    0.0000 </r>
       <r>   12.1930    0.0000 </r>
       <r>   13.3750    0.0000 </r>
       <r>   13.5581    0.0000 </r>
       <r>   13.9814    0.0000 </r>
       <r>   14.2134    0.0000 </r>
       <r>   14.2814    0.0000 </r>
       <r>   14.6700    0.0000 </r>
      </set>
      <set comment="kpoint 4">
       <r>   -9.0022    1.0000 </r>
       <r>   -7.7941    1.0000 </r>
       <r>   -7.4297    1.0000 </r>
       <r>   -7.0522    1.0000 </r>
       <r>   -4.3256    1.0000 </r>
       <r>   -3.8562    1.0000 </r>
       <r>   -3.2650    1.0000 </r>
       <r>   -2.2893    1.0000 </r>
       <r>   -0.4465    1.0000 </r>
       <r>    0.3482    1.0000 </r>
       <r>    0.5413    1.0000 </r>
       <r>    0.9925    1.0000 </r>
       <r>    1.2064    1.0000 </r>
       <r>    1.8196    1.0000 </r>
       <r>    2.4587    1.0000 </r>
       <r>    2.6249    1.0000 </r>
       <r>    2.8699    1.0000 </r>
       <r>    3.2336    1.0000 </r>
       <r>    3.4489    1.0000 </r>
       <r>    3.7486    1.0000 </r>
       <r>    4.0461    1.0000 </r>
       <r>    4.4020    1.0000 </r>
       <r>    4.6437    1.0000 </r>
       <r>    4.8765    1.0000 </r>
       <r>    5.1421    1.0000 </r>
       <r>    5.7340    1.0000 </r>
       <r>    5.8211    1.0000 </r>
       <r>    6.3722    1.0000 </r>
       <r>    6.7916    1.0000 </r>
       <r>    6.8609    1.0000 </r>
       <r>    7.2744    1.0000 </r>
       <r>    8.0378    1.0000 </r>
       <r>   10.1486    0.0000 </r>
       <r>   10.9757    0.0000 </r>
       <r>   11.3925    0.0000 </r>
       <r>   12.6977    0.0000 </r>
       <r>   12.7745    0.0000 </r>
       <r>   12.9087    0.0000 </r>
       <r>   13.3530    0.0000 </r>
       <r>   14.1102    0.0000 </r>
       <r>   14.2804    0.0000 </r>
       <r>   14.6760    0.0000 </r>
       <r>   15.2012    0.0000 </r>
       <r>   15.5480    0.0000 </r>
      </set>
      <set comment="kpoint 5">
       <r>   -8.8241    1.0000 </r>
       <r>   -7.8895    1.0000 </r>
       <r>   -7.4033    1.0000 </r>
       <r>   -7.0677    1.0000 </r>
       <r>   -4.9762    1.0000 </r>
       <r>   -3.7243    1.0000 </r>
       <r>   -3.2001    1.0000 </r>
       <r>   -2.2719    1.0000 </r>
       <r>   -0.3866    1.0000 </r>
       <r>    0.0104    1.0000 </r>
       <r>    0.9031    1.0000 </r>
       <r>    1.2723    1.0000 </r>
       <r>    1.6771    1.0000 </r>
       <r>    2.0151    1.0000 </r>
       <r>    2.2336    1.0000 </r>
       <r>    2.6808    1.0000 </r>
       <r>    2.8775    1.0000 </r>
       <r>    3.3836    1.0000 </r>
       <r>    3.8274    1.0000 </r>
       <r>    3.9364    1.0000 </r>
       <r>    4.0888    1.0000 </r>
       <r>    4.4103    1.0000 </r>
       <r>    4.7038    1.0000 </r>
       <r>    4.8723    1.0000 </r>
       <r>    5.1308    1.0000 </r>
       <r>    5.4705    1.0000 </r>
       <r>    5.7703    1.0000 </r>
       <r>    5.9658    1.0000 </r>
       <r>    6.1534    1.0000 </r>
       <r>    6.6706    1.0000 </r>
       <r>    7.2360    1.0000 </r>
       <r>    7.9657    1.0000 </r>
       <r>   10.8540    0.0000 </r>
       <r>   11.4190    0.0000 </r>
       <r>   11.5892    0.0000 </r>
       <r>   11.8980    0.0000 </r>
       <r>   12.3886    0.0000 </r>
       <r>   12.8441    0.0000 </r>
       <r>   13.0974    0.0000 </r>
       <r>   13.9382    0.0000 </r>
       <r>   14.1965    0.0000 </r>
       <r>   14.5374    0.0000 </r>
       <r>   14.6550    0.0000 </r>
       <r>   15.1233    0.0000 </r>
      </set>
      <set comment="kpoint 6">
       <r>   -8.8365    1.0000 </r>
       <r>   -7.8039    1.0000 </r>
       <r>   -7.3587    1.0000 </r>
       <r>   -7.0908    1.0000 </r>
       <r>   -5.0998    1.0000 </r>
       <r>   -3.6522    1.0000 </r>
       <r>   -3.2567    1.0000 </r>
       <r>   -2.2949    1.0000 </r>
       <r>   -0.6341    1.0000 </r>
       <r>   -0.1664    1.0000 </r>
       <r>    0.7498    1.0000 </r>
       <r>    0.8079    1.0000 </r>
       <r>    1.5836    1.0000 </r>
       <r>    2.3786    1.0000 </r>
       <r>    2.4987    1.0000 </r>
       <r>    2.8105    1.0000 </r>
       <r>    3.3074    1.0000 </r>
       <r>    3.5701    1.0000 </r>
       <r>    3.8610    1.0000 </r>
       <r>    3.9625    1.0000 </r>
       <r>    4.2966    1.0000 </r>
       <r>    4.5372    1.0000 </r>
       <r>    4.7568    1.0000 </r>
       <r>    4.8352    1.0000 </r>
       <r>    5.2120    1.0000 </r>
       <r>    5.4960    1.0000 </r>
       <r>    5.7423    1.0000 </r>
       <r>    6.1433    1.0000 </r>
       <r>    6.3154    1.0000 </r>
       <r>    6.8494    1.0000 </r>
       <r>    7.0815    1.0000 </r>
       <r>    7.9597    1.0000 </r>
       <r>   10.7337    0.0000 </r>
       <r>   11.0887    0.0000 </r>
       <r>   11.3139    0.0000 </r>
       <r>   11.5981    0.0000 </r>
       <r>   11.9169    0.0000 </r>
       <r>   12.3474    0.0000 </r>
       <r>   13.0451    0.0000 </r>
       <r>   13.6371    0.0000 </r>
       <r>   14.0684    0.0000 </r>
       <r>   14.6141    0.0000 </r>
       <r>   14.8230    0.0000 </r>
       <r>   15.0667    0.0000 </r>
      </set>
      <set comment="kpoint 7">
       <r>   -9.0072    1.0000 </r>
       <r>   -7.7218    1.0000 </r>
       <r>   -7.3897    1.0000 </r>
       <r>   -7.0690    1.0000 </r>
       <r>   -4.4998    1.0000 </r>
       <r>   -3.7616    1.0000 </r>
       <r>   -3.3336    1.0000 </r>
       <r>   -2.2978    1.0000 </r>
       <r>   -0.5527    1.0000 </r>
       <r>    0.0188    1.0000 </r>
       <r>    0.4708    1.0000 </r>
       <r>    0.8888    1.0000 </r>
       <r>    1.1754    1.0000 </r>
       <r>    1.6009    1.0000 </r>
       <r>    2.1323    1.0000 </r>
       <r>    2.7342    1.0000 </r>
       <r>    3.3907    1.0000 </r>
       <r>    3.7267    1.0000 </r>
       <r>    3.8215    1.0000 </r>
       <r>    4.0327    1.0000 </r>
       <r>    4.3553    1.0000 </r>
       <r>    4.6438    1.0000 </r>
       <r>    4.7069    1.0000 </r>
       <r>    4.9299    1.0000 </r>
       <r>    5.2934    1.0000 </r>
       <r>    5.5779    1.0000 </r>
       <r>    5.8783    1.0000 </r>
       <r>    6.1575    1.0000 </r>
       <r>    6.3459    1.0000 </r>
       <r>    7.0215    1.0000 </r>
       <r>    7.2099    1.0000 </r>
       <r>    8.0263    1.0000 </r>
       <r>   10.3645    0.0000 </r>
       <r>   11.2785    0.0000 </r>
       <r>   11.4547    0.0000 </r>
       <r>   11.7589    0.0000 </r>
       <r>   12.3951    0.0000 </r>
       <r>   12.8129    0.0000 </r>
       <r>   13.1877    0.0000 </r>
       <r>   13.8078    0.0000 </r>
       <r>   13.9146    0.0000 </r>
       <r>   14.4801    0.0000 </r>
       <r>   14.7808    0.0000 </r>
       <r>   15.1761    0.0000 </r>
      </set>
      <set comment="kpoint 8">
       <r>   -8.7156    1.0000 </r>
       <r>   -8.1510    1.0000 </r>
       <r>   -7.4494    1.0000 </r>
       <r>   -7.0345    1.0000 </r>
       <r>   -4.3504    1.0000 </r>
       <r>   -3.7449    1.0000 </r>
       <r>   -3.6983    1.0000 </r>
       <r>   -2.2716    1.0000 </r>
       <r>   -0.1062    1.0000 </r>
       <r>    0.2988    1.0000 </r>
       <r>    1.0350    1.0000 </r>
       <r>    1.4475    1.0000 </r>
       <r>    1.7324    1.0000 </r>
       <r>    1.9218    1.0000 </r>
       <r>    2.2558    1.0000 </r>
       <r>    2.5412    1.0000 </r>
       <r>    2.9874    1.0000 </r>
       <r>    3.3272    1.0000 </r>
       <r>    3.6252    1.0000 </r>
       <r>    3.7972    1.0000 </r>
       <r>    3.8856    1.0000 </r>
       <r>    4.0180    1.0000 </r>
       <r>    4.4360    1.0000 </r>
       <r>    4.6218    1.0000 </r>
       <r>    4.8343    1.0000 </r>
       <r>    5.0583    1.0000 </r>
       <r>    5.4090    1.0000 </r>
       <r>    6.4255    1.0000 </r>
       <r>    6.5616    1.0000 </r>
       <r>    6.6661    1.0000 </r>
       <r>    7.2462    1.0000 </r>
       <r>    8.1627    1.0000 </r>
       <r>   10.5556    0.0000 </r>
       <r>   11.5584    0.0000 </r>
       <r>   12.0003    0.0000 </r>
       <r>   12.1804    0.0000 </r>
       <r>   12.4602    0.0000 </r>
       <r>   13.2280    0.0000 </r>
       <r>   13.6808    0.0000 </r>
       <r>   13.7294    0.0000 </r>
       <r>   14.4760    0.0000 </r>
       <r>   14.8097    0.0000 </r>
       <r>   15.0327    0.0000 </r>
       <r>   15.4488    0.0000 </r>
      </set>
      <set comment="kpoint 9">
       <r>   -8.7554    1.0000 </r>
       <r>   -8.0361    1.0000 </r>
       <r>   -7.4181    1.0000 </r>
       <r>   -7.0439    1.0000 </r>
       <r>   -4.6408    1.0000 </r>
       <r>   -3.6953    1.0000 </r>
       <r>   -3.5469    1.0000 </r>
       <r>   -2.2903    1.0000 </r>
       <r>   -0.4029    1.0000 </r>
       <r>    0.1177    1.0000 </r>
       <r>    0.9070    1.0000 </r>
       <r>    1.1350    1.0000 </r>
       <r>    1.7028    1.0000 </r>
       <r>    2.0059    1.0000 </r>
       <r>    2.2887    1.0000 </r>
       <r>    2.5926    1.0000 </r>
       <r>    2.9615    1.0000 </r>
       <r>    3.3892    1.0000 </r>
       <r>    3.6830    1.0000 </r>
       <r>    4.0526    1.0000 </r>
       <r>    4.2704    1.0000 </r>
       <r>    4.4112    1.0000 </r>
       <r>    4.7510    1.0000 </r>
       <r>    4.9016    1.0000 </r>
       <r>    5.1413    1.0000 </r>
       <r>    5.4136    1.0000 </r>
       <r>    5.6630    1.0000 </r>
       <r>    6.0225    1.0000 </r>
       <r>    6.2021    1.0000 </r>
       <r>    6.5728    1.0000 </r>
       <r>    7.0715    1.0000 </r>
       <r>    8.1069    1.0000 </r>
       <r>   10.8089    0.0000 </r>
       <r>   11.3558    0.0000 </r>
       <r>   11.5598    0.0000 </r>
       <r>   11.8594    0.0000 </r>
       <r>   12.4701    0.0000 </r>
       <r>   12.7637    0.0000 </r>
       <r>   13.4019    0.0000 </r>
       <r>   13.6978    0.0000 </r>
       <r>   14.2568    0.0000 </r>
       <r>   14.6567    0.0000 </r>
       <r>   14.7716    0.0000 </r>
       <r>   15.0198    0.0000 </r>
      </set>
      <set comment="kpoint 10">
       <r>   -8.7680    1.0000 </r>
       <r>   -7.9676    1.0000 </r>
       <r>   -7.3795    1.0000 </r>
       <r>   -7.0576    1.0000 </r>
       <r>   -4.6373    1.0000 </r>
       <r>   -3.9181    1.0000 </r>
       <r>   -3.4618    1.0000 </r>
       <r>   -2.3285    1.0000 </r>
       <r>   -0.5707    1.0000 </r>
       <r>   -0.1029    1.0000 </r>
       <r>    0.6636    1.0000 </r>
       <r>    1.0109    1.0000 </r>
       <r>    1.6893    1.0000 </r>
       <r>    1.9482    1.0000 </r>
       <r>    2.6452    1.0000 </r>
       <r>    3.0226    1.0000 </r>
       <r>    3.3147    1.0000 </r>
       <r>    3.5415    1.0000 </r>
       <r>    3.6554    1.0000 </r>
       <r>    3.9203    1.0000 </r>
       <r>    4.1237    1.0000 </r>
       <r>    4.5416    1.0000 </r>
       <r>    4.5768    1.0000 </r>
       <r>    5.0808    1.0000 </r>
       <r>    5.3724    1.0000 </r>
       <r>    5.5945    1.0000 </r>
       <r>    5.8517    1.0000 </r>
       <r>    6.0302    1.0000 </r>
       <r>    6.3837    1.0000 </r>
       <r>    6.8446    1.0000 </r>
       <r>    6.9735    1.0000 </r>
       <r>    8.0563    1.0000 </r>
       <r>   10.7318    0.0000 </r>
       <r>   11.2069    0.0000 </r>
       <r>   11.2704    0.0000 </r>
       <r>   11.6126    0.0000 </r>
       <r>   12.1335    0.0000 </r>
       <r>   12.1766    0.0000 </r>
       <r>   13.0097    0.0000 </r>
       <r>   13.5431    0.0000 </r>
       <r>   13.7952    0.0000 </r>
       <r>   14.1989    0.0000 </r>
       <r>   14.5275    0.0000 </r>
       <r>   15.2184    0.0000 </r>
      </set>
      <set comment="kpoint 11">
       <r>   -8.9582    1.0000 </r>
       <r>   -7.9761    1.0000 </r>
       <r>   -7.4258    1.0000 </r>
       <r>   -7.0288    1.0000 </r>
       <r>   -4.2518    1.0000 </r>
       <r>   -3.7240    1.0000 </r>
       <r>   -2.6269    1.0000 </r>
       <r>   -2.4201    1.0000 </r>
       <r>   -0.5381    1.0000 </r>
       <r>   -0.1248    1.0000 </r>
       <r>    0.5966    1.0000 </r>
       <r>    0.7638    1.0000 </r>
       <r>    1.2481    1.0000 </r>
       <r>    1.5549    1.0000 </r>
       <r>    1.8618    1.0000 </r>
       <r>    2.4262    1.0000 </r>
       <r>    2.5958    1.0000 </r>
       <r>    3.0439    1.0000 </r>
       <r>    3.4328    1.0000 </r>
       <r>    3.9692    1.0000 </r>
       <r>    4.4108    1.0000 </r>
       <r>    4.7395    1.0000 </r>
       <r>    5.0254    1.0000 </r>
       <r>    5.1862    1.0000 </r>
       <r>    5.5554    1.0000 </r>
       <r>    5.7404    1.0000 </r>
       <r>    6.0356    1.0000 </r>
       <r>    6.2780    1.0000 </r>
       <r>    6.5004    1.0000 </r>
       <r>    6.7938    1.0000 </r>
       <r>    6.9785    1.0000 </r>
       <r>    7.5212    1.0000 </r>
       <r>   11.0190    0.0000 </r>
       <r>   11.7711    0.0000 </r>
       <r>   12.2523    0.0000 </r>
       <r>   12.8314    0.0000 </r>
       <r>   13.1072    0.0000 </r>
       <r>   13.3053    0.0000 </r>
       <r>   13.5780    0.0000 </r>
       <r>   13.8614    0.0000 </r>
       <r>   14.1219    0.0000 </r>
       <r>   14.3194    0.0000 </r>
       <r>   14.7086    0.0000 </r>
       <r>   14.9665    0.0000 </r>
      </set>
      <set comment="kpoint 12">
       <r>   -8.8201    1.0000 </r>
       <r>   -7.9380    1.0000 </r>
       <r>   -7.4761    1.0000 </r>
       <r>   -7.0495    1.0000 </r>
       <r>   -4.7937    1.0000 </r>
       <r>   -3.7605    1.0000 </r>
       <r>   -2.8227    1.0000 </r>
       <r>   -2.3606    1.0000 </r>
       <r>   -0.2793    1.0000 </r>
       <r>    0.0897    1.0000 </r>
       <r>    0.4800    1.0000 </r>
       <r>    1.3683    1.0000 </r>
       <r>    1.4473    1.0000 </r>
       <r>    1.6167    1.0000 </r>
       <r>    2.1470    1.0000 </r>
       <r>    2.4952    1.0000 </r>
       <r>    2.8049    1.0000 </r>
       <r>    3.2250    1.0000 </r>
       <r>    3.5887    1.0000 </r>
       <r>    3.7310    1.0000 </r>
       <r>    4.1357    1.0000 </r>
       <r>    4.6113    1.0000 </r>
       <r>    4.8019    1.0000 </r>
       <r>    5.0611    1.0000 </r>
       <r>    5.3801    1.0000 </r>
       <r>    5.7407    1.0000 </r>
       <r>    5.9028    1.0000 </r>
       <r>    6.1349    1.0000 </r>
       <r>    6.5384    1.0000 </r>
       <r>    6.6171    1.0000 </r>
       <r>    7.0811    1.0000 </r>
       <r>    7.3364    1.0000 </r>
       <r>   11.4567    0.0000 </r>
       <r>   11.9236    0.0000 </r>
       <r>   12.1393    0.0000 </r>
       <r>   12.4467    0.0000 </r>
       <r>   12.8212    0.0000 </r>
       <r>   12.9715    0.0000 </r>
       <r>   13.2490    0.0000 </r>
       <r>   13.8272    0.0000 </r>
       <r>   14.1803    0.0000 </r>
       <r>   14.2637    0.0000 </r>
       <r>   14.5170    0.0000 </r>
       <r>   14.8225    0.0000 </r>
      </set>
      <set comment="kpoint 13">
       <r>   -8.7154    1.0000 </r>
       <r>   -7.8226    1.0000 </r>
       <r>   -7.4875    1.0000 </r>
       <r>   -7.1069    1.0000 </r>
       <r>   -5.1642    1.0000 </r>
       <r>   -4.0258    1.0000 </r>
       <r>   -2.9454    1.0000 </r>
       <r>   -2.4150    1.0000 </r>
       <r>   -0.1376    1.0000 </r>
       <r>    0.3338    1.0000 </r>
       <r>    0.7140    1.0000 </r>
       <r>    1.5388    1.0000 </r>
       <r>    1.8195    1.0000 </r>
       <r>    2.1001    1.0000 </r>
       <r>    2.4126    1.0000 </r>
       <r>    2.6153    1.0000 </r>
       <r>    2.8779    1.0000 </r>
       <r>    3.0678    1.0000 </r>
       <r>    3.3542    1.0000 </r>
       <r>    3.8454    1.0000 </r>
       <r>    4.3625    1.0000 </r>
       <r>    4.5811    1.0000 </r>
       <r>    4.7693    1.0000 </r>
       <r>    4.9754    1.0000 </r>
       <r>    5.2825    1.0000 </r>
       <r>    5.5742    1.0000 </r>
       <r>    5.6906    1.0000 </r>
       <r>    5.9078    1.0000 </r>
       <r>    6.1680    1.0000 </r>
       <r>    6.4599    1.0000 </r>
       <r>    6.9094    1.0000 </r>
       <r>    7.2501    1.0000 </r>
       <r>   11.2231    0.0000 </r>
       <r>   12.0258    0.0000 </r>
       <r>   12.3236    0.0000 </r>
       <r>   12.3906    0.0000 </r>
       <r>   12.5649    0.0000 </r>
       <r>   12.6569    0.0000 </r>
       <r>   13.2584    0.0000 </r>
       <r>   13.8611    0.0000 </r>
       <r>   13.9669    0.0000 </r>
       <r>   14.3379    0.0000 </r>
       <r>   14.5670    0.0000 </r>
       <r>   14.7767    0.0000 </r>
      </set>
      <set comment="kpoint 14">
       <r>   -8.8698    1.0000 </r>
       <r>   -7.8615    1.0000 </r>
       <r>   -7.4411    1.0000 </r>
       <r>   -7.0809    1.0000 </r>
       <r>   -4.7206    1.0000 </r>
       <r>   -3.9348    1.0000 </r>
       <r>   -2.7724    1.0000 </r>
       <r>   -2.4527    1.0000 </r>
       <r>   -0.1690    1.0000 </r>
       <r>   -0.0283    1.0000 </r>
       <r>    0.6450    1.0000 </r>
       <r>    1.0573    1.0000 </r>
       <r>    1.3348    1.0000 </r>
       <r>    1.8450    1.0000 </r>
       <r>    2.3829    1.0000 </r>
       <r>    2.6655    1.0000 </r>
       <r>    2.7728    1.0000 </r>
       <r>    3.2414    1.0000 </r>
       <r>    3.4195    1.0000 </r>
       <r>    4.0345    1.0000 </r>
       <r>    4.3339    1.0000 </r>
       <r>    4.5594    1.0000 </r>
       <r>    4.8751    1.0000 </r>
       <r>    4.9536    1.0000 </r>
       <r>    5.2105    1.0000 </r>
       <r>    5.5945    1.0000 </r>
       <r>    5.7793    1.0000 </r>
       <r>    6.0992    1.0000 </r>
       <r>    6.4110    1.0000 </r>
       <r>    6.6239    1.0000 </r>
       <r>    7.1001    1.0000 </r>
       <r>    7.3801    1.0000 </r>
       <r>   11.3406    0.0000 </r>
       <r>   11.5157    0.0000 </r>
       <r>   11.9574    0.0000 </r>
       <r>   12.0820    0.0000 </r>
       <r>   12.7518    0.0000 </r>
       <r>   13.3689    0.0000 </r>
       <r>   13.5993    0.0000 </r>
       <r>   13.8321    0.0000 </r>
       <r>   14.1110    0.0000 </r>
       <r>   14.3694    0.0000 </r>
       <r>   14.7417    0.0000 </r>
       <r>   15.2108    0.0000 </r>
      </set>
      <set comment="kpoint 15">
       <r>   -8.7502    1.0000 </r>
       <r>   -7.9922    1.0000 </r>
       <r>   -7.7215    1.0000 </r>
       <r>   -6.9992    1.0000 </r>
       <r>   -4.2503    1.0000 </r>
       <r>   -3.6925    1.0000 </r>
       <r>   -3.2880    1.0000 </r>
       <r>   -2.2282    1.0000 </r>
       <r>   -0.3186    1.0000 </r>
       <r>    0.3208    1.0000 </r>
       <r>    0.9461    1.0000 </r>
       <r>    1.0395    1.0000 </r>
       <r>    1.5116    1.0000 </r>
       <r>    1.7708    1.0000 </r>
       <r>    2.0728    1.0000 </r>
       <r>    2.2791    1.0000 </r>
       <r>    2.5305    1.0000 </r>
       <r>    3.1781    1.0000 </r>
       <r>    3.4531    1.0000 </r>
       <r>    3.6389    1.0000 </r>
       <r>    3.9573    1.0000 </r>
       <r>    4.4829    1.0000 </r>
       <r>    4.8143    1.0000 </r>
       <r>    5.2355    1.0000 </r>
       <r>    5.4633    1.0000 </r>
       <r>    5.6908    1.0000 </r>
       <r>    5.9252    1.0000 </r>
       <r>    6.1394    1.0000 </r>
       <r>    6.2427    1.0000 </r>
       <r>    6.5187    1.0000 </r>
       <r>    6.9741    1.0000 </r>
       <r>    7.2687    1.0000 </r>
       <r>   11.1501    0.0000 </r>
       <r>   12.1764    0.0000 </r>
       <r>   12.5040    0.0000 </r>
       <r>   12.9303    0.0000 </r>
       <r>   13.0585    0.0000 </r>
       <r>   13.2338    0.0000 </r>
       <r>   13.5458    0.0000 </r>
       <r>   13.9206    0.0000 </r>
       <r>   14.0006    0.0000 </r>
       <r>   14.1808    0.0000 </r>
       <r>   14.6777    0.0000 </r>
       <r>   14.7496    0.0000 </r>
      </set>
      <set comment="kpoint 16">
       <r>   -8.6221    1.0000 </r>
       <r>   -7.9218    1.0000 </r>
       <r>   -7.7328    1.0000 </r>
       <r>   -7.0471    1.0000 </r>
       <r>   -4.8023    1.0000 </r>
       <r>   -3.9163    1.0000 </r>
       <r>   -3.1873    1.0000 </r>
       <r>   -2.2952    1.0000 </r>
       <r>   -0.0475    1.0000 </r>
       <r>    0.1778    1.0000 </r>
       <r>    1.1739    1.0000 </r>
       <r>    1.5662    1.0000 </r>
       <r>    1.7855    1.0000 </r>
       <r>    2.0251    1.0000 </r>
       <r>    2.3057    1.0000 </r>
       <r>    2.5984    1.0000 </r>
       <r>    2.7259    1.0000 </r>
       <r>    3.1328    1.0000 </r>
       <r>    3.3816    1.0000 </r>
       <r>    3.6031    1.0000 </r>
       <r>    4.0798    1.0000 </r>
       <r>    4.2937    1.0000 </r>
       <r>    4.7614    1.0000 </r>
       <r>    5.0209    1.0000 </r>
       <r>    5.2370    1.0000 </r>
       <r>    5.5199    1.0000 </r>
       <r>    5.6793    1.0000 </r>
       <r>    5.8208    1.0000 </r>
       <r>    6.1407    1.0000 </r>
       <r>    6.5158    1.0000 </r>
       <r>    6.9151    1.0000 </r>
       <r>    7.1898    1.0000 </r>
       <r>   11.4231    0.0000 </r>
       <r>   11.7293    0.0000 </r>
       <r>   12.2488    0.0000 </r>
       <r>   12.5304    0.0000 </r>
       <r>   12.8266    0.0000 </r>
       <r>   13.0152    0.0000 </r>
       <r>   13.3948    0.0000 </r>
       <r>   13.5468    0.0000 </r>
       <r>   13.8003    0.0000 </r>
       <r>   14.3411    0.0000 </r>
       <r>   14.9382    0.0000 </r>
       <r>   15.2544    0.0000 </r>
      </set>
      <set comment="kpoint 17">
       <r>   -8.6519    1.0000 </r>
       <r>   -7.8503    1.0000 </r>
       <r>   -7.6626    1.0000 </r>
       <r>   -7.0567    1.0000 </r>
       <r>   -4.8686    1.0000 </r>
       <r>   -3.9842    1.0000 </r>
       <r>   -3.2912    1.0000 </r>
       <r>   -2.3590    1.0000 </r>
       <r>   -0.1990    1.0000 </r>
       <r>    0.1937    1.0000 </r>
       <r>    1.0271    1.0000 </r>
       <r>    1.3920    1.0000 </r>
       <r>    1.7601    1.0000 </r>
       <r>    2.1938    1.0000 </r>
       <r>    2.3673    1.0000 </r>
       <r>    2.7054    1.0000 </r>
       <r>    2.9251    1.0000 </r>
       <r>    3.0679    1.0000 </r>
       <r>    3.4553    1.0000 </r>
       <r>    3.9037    1.0000 </r>
       <r>    4.1762    1.0000 </r>
       <r>    4.4896    1.0000 </r>
       <r>    4.8071    1.0000 </r>
       <r>    5.0466    1.0000 </r>
       <r>    5.2578    1.0000 </r>
       <r>    5.5263    1.0000 </r>
       <r>    5.6731    1.0000 </r>
       <r>    5.9897    1.0000 </r>
       <r>    6.1513    1.0000 </r>
       <r>    6.5123    1.0000 </r>
       <r>    6.8439    1.0000 </r>
       <r>    7.2545    1.0000 </r>
       <r>   11.1528    0.0000 </r>
       <r>   12.0832    0.0000 </r>
       <r>   12.2006    0.0000 </r>
       <r>   12.4165    0.0000 </r>
       <r>   12.5333    0.0000 </r>
       <r>   12.8957    0.0000 </r>
       <r>   13.2753    0.0000 </r>
       <r>   13.4153    0.0000 </r>
       <r>   13.9536    0.0000 </r>
       <r>   14.2408    0.0000 </r>
       <r>   14.6987    0.0000 </r>
       <r>   14.8662    0.0000 </r>
      </set>
      <set comment="kpoint 18">
       <r>   -8.7736    1.0000 </r>
       <r>   -7.9391    1.0000 </r>
       <r>   -7.6438    1.0000 </r>
       <r>   -7.0068    1.0000 </r>
       <r>   -4.3834    1.0000 </r>
       <r>   -3.6965    1.0000 </r>
       <r>   -3.3888    1.0000 </r>
       <r>   -2.2788    1.0000 </r>
       <r>   -0.3427    1.0000 </r>
       <r>    0.1374    1.0000 </r>
       <r>    0.7537    1.0000 </r>
       <r>    1.1332    1.0000 </r>
       <r>    1.4243    1.0000 </r>
       <r>    1.6199    1.0000 </r>
       <r>    2.0787    1.0000 </r>
       <r>    2.6806    1.0000 </r>
       <r>    2.8275    1.0000 </r>
       <r>    3.3338    1.0000 </r>
       <r>    3.4306    1.0000 </r>
       <r>    3.7399    1.0000 </r>
       <r>    4.1463    1.0000 </r>
       <r>    4.5127    1.0000 </r>
       <r>    4.9220    1.0000 </r>
       <r>    5.1496    1.0000 </r>
       <r>    5.3482    1.0000 </r>
       <r>    5.6454    1.0000 </r>
       <r>    5.7812    1.0000 </r>
       <r>    6.2018    1.0000 </r>
       <r>    6.4935    1.0000 </r>
       <r>    6.7661    1.0000 </r>
       <r>    7.0169    1.0000 </r>
       <r>    7.3904    1.0000 </r>
       <r>   11.3489    0.0000 </r>
       <r>   11.8395    0.0000 </r>
       <r>   12.2940    0.0000 </r>
       <r>   12.3917    0.0000 </r>
       <r>   12.6688    0.0000 </r>
       <r>   12.9631    0.0000 </r>
       <r>   13.2351    0.0000 </r>
       <r>   13.8737    0.0000 </r>
       <r>   14.2097    0.0000 </r>
       <r>   14.4217    0.0000 </r>
       <r>   14.5822    0.0000 </r>
       <r>   15.0116    0.0000 </r>
      </set>
      <set comment="kpoint 19">
       <r>   -8.6011    1.0000 </r>
       <r>   -8.0222    1.0000 </r>
       <r>   -7.6790    1.0000 </r>
       <r>   -7.2007    1.0000 </r>
       <r>   -4.2411    1.0000 </r>
       <r>   -3.7205    1.0000 </r>
       <r>   -3.4860    1.0000 </r>
       <r>   -2.7034    1.0000 </r>
       <r>    0.1336    1.0000 </r>
       <r>    0.7350    1.0000 </r>
       <r>    1.1553    1.0000 </r>
       <r>    1.3800    1.0000 </r>
       <r>    1.6265    1.0000 </r>
       <r>    1.9652    1.0000 </r>
       <r>    2.2580    1.0000 </r>
       <r>    2.7205    1.0000 </r>
       <r>    2.8958    1.0000 </r>
       <r>    3.1119    1.0000 </r>
       <r>    3.5463    1.0000 </r>
       <r>    3.7026    1.0000 </r>
       <r>    4.0453    1.0000 </r>
       <r>    4.2126    1.0000 </r>
       <r>    4.4026    1.0000 </r>
       <r>    4.7357    1.0000 </r>
       <r>    4.9653    1.0000 </r>
       <r>    5.2873    1.0000 </r>
       <r>    5.6349    1.0000 </r>
       <r>    6.0349    1.0000 </r>
       <r>    6.2207    1.0000 </r>
       <r>    6.3735    1.0000 </r>
       <r>    6.5839    1.0000 </r>
       <r>    7.1303    1.0000 </r>
       <r>   11.0136    0.0000 </r>
       <r>   11.2485    0.0000 </r>
       <r>   12.2712    0.0000 </r>
       <r>   12.8134    0.0000 </r>
       <r>   13.0165    0.0000 </r>
       <r>   13.2982    0.0000 </r>
       <r>   13.9591    0.0000 </r>
       <r>   14.0865    0.0000 </r>
       <r>   14.5267    0.0000 </r>
       <r>   14.6013    0.0000 </r>
       <r>   14.8235    0.0000 </r>
       <r>   15.2310    0.0000 </r>
      </set>
      <set comment="kpoint 20">
       <r>   -8.6469    1.0000 </r>
       <r>   -7.9233    1.0000 </r>
       <r>   -7.5989    1.0000 </r>
       <r>   -7.2283    1.0000 </r>
       <r>   -4.4286    1.0000 </r>
       <r>   -3.6458    1.0000 </r>
       <r>   -3.6130    1.0000 </r>
       <r>   -2.7544    1.0000 </r>
       <r>    0.0319    1.0000 </r>
       <r>    0.6339    1.0000 </r>
       <r>    1.2096    1.0000 </r>
       <r>    1.3289    1.0000 </r>
       <r>    1.7044    1.0000 </r>
       <r>    2.0055    1.0000 </r>
       <r>    2.2185    1.0000 </r>
       <r>    2.6646    1.0000 </r>
       <r>    2.8297    1.0000 </r>
       <r>    3.2680    1.0000 </r>
       <r>    3.4561    1.0000 </r>
       <r>    3.5569    1.0000 </r>
       <r>    4.1748    1.0000 </r>
       <r>    4.3646    1.0000 </r>
       <r>    4.7506    1.0000 </r>
       <r>    5.0540    1.0000 </r>
       <r>    5.2473    1.0000 </r>
       <r>    5.3848    1.0000 </r>
       <r>    5.6895    1.0000 </r>
       <r>    5.8292    1.0000 </r>
       <r>    6.1127    1.0000 </r>
       <r>    6.4590    1.0000 </r>
       <r>    6.7049    1.0000 </r>
       <r>    7.2389    1.0000 </r>
       <r>   11.1129    0.0000 </r>
       <r>   11.4914    0.0000 </r>
       <r>   12.0143    0.0000 </r>
       <r>   12.3071    0.0000 </r>
       <r>   12.5651    0.0000 </r>
       <r>   12.9773    0.0000 </r>
       <r>   13.6964    0.0000 </r>
       <r>   13.9294    0.0000 </r>
       <r>   14.3158    0.0000 </r>
       <r>   14.6410    0.0000 </r>
       <r>   14.8364    0.0000 </r>
       <r>   15.0991    0.0000 </r>
      </set>
      <set comment="kpoint 21">
       <r>   -8.6025    1.0000 </r>
       <r>   -7.8972    1.0000 </r>
       <r>   -7.6496    1.0000 </r>
       <r>   -7.1836    1.0000 </r>
       <r>   -4.5684    1.0000 </r>
       <r>   -3.7641    1.0000 </r>
       <r>   -3.4379    1.0000 </r>
       <r>   -2.7883    1.0000 </r>
       <r>   -0.2378    1.0000 </r>
       <r>    0.5688    1.0000 </r>
       <r>    0.9650    1.0000 </r>
       <r>    1.4193    1.0000 </r>
       <r>    1.6582    1.0000 </r>
       <r>    1.9782    1.0000 </r>
       <r>    2.4295    1.0000 </r>
       <r>    2.6893    1.0000 </r>
       <r>    2.9835    1.0000 </r>
       <r>    3.1418    1.0000 </r>
       <r>    3.6268    1.0000 </r>
       <r>    3.8852    1.0000 </r>
       <r>    4.1913    1.0000 </r>
       <r>    4.2975    1.0000 </r>
       <r>    4.6583    1.0000 </r>
       <r>    5.0109    1.0000 </r>
       <r>    5.3591    1.0000 </r>
       <r>    5.4828    1.0000 </r>
       <r>    5.8611    1.0000 </r>
       <r>    5.9955    1.0000 </r>
       <r>    6.1965    1.0000 </r>
       <r>    6.5036    1.0000 </r>
       <r>    6.7946    1.0000 </r>
       <r>    7.2545    1.0000 </r>
       <r>   11.4769    0.0000 </r>
       <r>   11.7552    0.0000 </r>
       <r>   12.1801    0.0000 </r>
       <r>   12.2623    0.0000 </r>
       <r>   12.5755    0.0000 </r>
       <r>   12.9823    0.0000 </r>
       <r>   13.2231    0.0000 </r>
       <r>   13.3216    0.0000 </r>
       <r>   13.8765    0.0000 </r>
       <r>   14.3108    0.0000 </r>
       <r>   14.6203    0.0000 </r>
       <r>   14.8418    0.0000 </r>
      </set>
      <set comment="kpoint 22">
       <r>   -8.5684    1.0000 </r>
       <r>   -7.9726    1.0000 </r>
       <r>   -7.7276    1.0000 </r>
       <r>   -7.1558    1.0000 </r>
       <r>   -4.5813    1.0000 </r>
       <r>   -3.6056    1.0000 </r>
       <r>   -3.2824    1.0000 </r>
       <r>   -2.7874    1.0000 </r>
       <r>   -0.2071    1.0000 </r>
       <r>    0.6587    1.0000 </r>
       <r>    1.1107    1.0000 </r>
       <r>    1.4447    1.0000 </r>
       <r>    1.7690    1.0000 </r>
       <r>    1.9526    1.0000 </r>
       <r>    2.3182    1.0000 </r>
       <r>    2.6229    1.0000 </r>
       <r>    2.9348    1.0000 </r>
       <r>    3.0350    1.0000 </r>
       <r>    3.4298    1.0000 </r>
       <r>    3.5604    1.0000 </r>
       <r>    4.0399    1.0000 </r>
       <r>    4.3112    1.0000 </r>
       <r>    4.7240    1.0000 </r>
       <r>    4.9309    1.0000 </r>
       <r>    5.1762    1.0000 </r>
       <r>    5.4118    1.0000 </r>
       <r>    5.8613    1.0000 </r>
       <r>    5.9620    1.0000 </r>
       <r>    6.3031    1.0000 </r>
       <r>    6.5119    1.0000 </r>
       <r>    6.7642    1.0000 </r>
       <r>    7.1467    1.0000 </r>
       <r>   11.5242    0.0000 </r>
       <r>   11.7954    0.0000 </r>
       <r>   11.9466    0.0000 </r>
       <r>   12.5492    0.0000 </r>
       <r>   12.6328    0.0000 </r>
       <r>   13.1557    0.0000 </r>
       <r>   13.4770    0.0000 </r>
       <r>   13.5115    0.0000 </r>
       <r>   13.8872    0.0000 </r>
       <r>   14.3838    0.0000 </r>
       <r>   14.8360    0.0000 </r>
       <r>   14.9696    0.0000 </r>
      </set>
      <set comment="kpoint 23">
       <r>   -8.8793    1.0000 </r>
       <r>   -7.7907    1.0000 </r>
       <r>   -7.5513    1.0000 </r>
       <r>   -7.2091    1.0000 </r>
       <r>   -4.2400    1.0000 </r>
       <r>   -3.7831    1.0000 </r>
       <r>   -3.0252    1.0000 </r>
       <r>   -2.6845    1.0000 </r>
       <r>   -0.2964    1.0000 </r>
       <r>    0.3843    1.0000 </r>
       <r>    0.7896    1.0000 </r>
       <r>    1.0138    1.0000 </r>
       <r>    1.4116    1.0000 </r>
       <r>    1.8224    1.0000 </r>
       <r>    2.2591    1.0000 </r>
       <r>    2.6026    1.0000 </r>
       <r>    2.9629    1.0000 </r>
       <r>    3.2228    1.0000 </r>
       <r>    3.5710    1.0000 </r>
       <r>    3.7724    1.0000 </r>
       <r>    4.1053    1.0000 </r>
       <r>    4.5061    1.0000 </r>
       <r>    4.8406    1.0000 </r>
       <r>    4.8985    1.0000 </r>
       <r>    5.0939    1.0000 </r>
       <r>    5.4525    1.0000 </r>
       <r>    5.8412    1.0000 </r>
       <r>    6.0185    1.0000 </r>
       <r>    6.2514    1.0000 </r>
       <r>    6.6927    1.0000 </r>
       <r>    6.8756    1.0000 </r>
       <r>    7.2449    1.0000 </r>
       <r>   10.7280    0.0000 </r>
       <r>   11.0389    0.0000 </r>
       <r>   12.0359    0.0000 </r>
       <r>   12.8081    0.0000 </r>
       <r>   13.0860    0.0000 </r>
       <r>   13.3876    0.0000 </r>
       <r>   13.8653    0.0000 </r>
       <r>   14.2868    0.0000 </r>
       <r>   14.6179    0.0000 </r>
       <r>   14.7815    0.0000 </r>
       <r>   14.9242    0.0000 </r>
       <r>   15.2476    0.0000 </r>
      </set>
      <set comment="kpoint 24">
       <r>   -8.8451    1.0000 </r>
       <r>   -7.8157    1.0000 </r>
       <r>   -7.5247    1.0000 </r>
       <r>   -7.1721    1.0000 </r>
       <r>   -4.4582    1.0000 </r>
       <r>   -3.6084    1.0000 </r>
       <r>   -3.0606    1.0000 </r>
       <r>   -2.8119    1.0000 </r>
       <r>   -0.3741    1.0000 </r>
       <r>    0.3718    1.0000 </r>
       <r>    0.6969    1.0000 </r>
       <r>    1.1155    1.0000 </r>
       <r>    1.4013    1.0000 </r>
       <r>    1.7326    1.0000 </r>
       <r>    2.0828    1.0000 </r>
       <r>    2.6820    1.0000 </r>
       <r>    3.1038    1.0000 </r>
       <r>    3.2156    1.0000 </r>
       <r>    3.2900    1.0000 </r>
       <r>    4.0646    1.0000 </r>
       <r>    4.2475    1.0000 </r>
       <r>    4.5487    1.0000 </r>
       <r>    4.8156    1.0000 </r>
       <r>    4.9816    1.0000 </r>
       <r>    5.2895    1.0000 </r>
       <r>    5.6028    1.0000 </r>
       <r>    5.8529    1.0000 </r>
       <r>    6.1353    1.0000 </r>
       <r>    6.3481    1.0000 </r>
       <r>    6.6857    1.0000 </r>
       <r>    7.1335    1.0000 </r>
       <r>    7.2825    1.0000 </r>
       <r>   11.2459    0.0000 </r>
       <r>   11.5714    0.0000 </r>
       <r>   11.9678    0.0000 </r>
       <r>   12.0791    0.0000 </r>
       <r>   12.5984    0.0000 </r>
       <r>   13.2690    0.0000 </r>
       <r>   13.7234    0.0000 </r>
       <r>   13.8856    0.0000 </r>
       <r>   14.1927    0.0000 </r>
       <r>   14.5470    0.0000 </r>
       <r>   14.7539    0.0000 </r>
       <r>   14.8941    0.0000 </r>
      </set>
      <set comment="kpoint 25">
       <r>   -8.6807    1.0000 </r>
       <r>   -7.7907    1.0000 </r>
       <r>   -7.5520    1.0000 </r>
       <r>   -7.2195    1.0000 </r>
       <r>   -5.0126    1.0000 </r>
       <r>   -3.6187    1.0000 </r>
       <r>   -3.0964    1.0000 </r>
       <r>   -2.8397    1.0000 </r>
       <r>   -0.2515    1.0000 </r>
       <r>    0.5512    1.0000 </r>
       <r>    0.8272    1.0000 </r>
       <r>    1.4477    1.0000 </r>
       <r>    1.7556    1.0000 </r>
       <r>    2.1489    1.0000 </r>
       <r>    2.2391    1.0000 </r>
       <r>    2.7516    1.0000 </r>
       <r>    2.9755    1.0000 </r>
       <r>    3.0425    1.0000 </r>
       <r>    3.5997    1.0000 </r>
       <r>    3.7728    1.0000 </r>
       <r>    4.2873    1.0000 </r>
       <r>    4.3426    1.0000 </r>
       <r>    4.7115    1.0000 </r>
       <r>    5.0922    1.0000 </r>
       <r>    5.3047    1.0000 </r>
       <r>    5.3941    1.0000 </r>
       <r>    5.8428    1.0000 </r>
       <r>    6.0397    1.0000 </r>
       <r>    6.2686    1.0000 </r>
       <r>    6.4797    1.0000 </r>
       <r>    6.8750    1.0000 </r>
       <r>    7.0957    1.0000 </r>
       <r>   11.4090    0.0000 </r>
       <r>   11.7327    0.0000 </r>
       <r>   12.0645    0.0000 </r>
       <r>   12.4134    0.0000 </r>
       <r>   12.5201    0.0000 </r>
       <r>   12.9190    0.0000 </r>
       <r>   13.4107    0.0000 </r>
       <r>   13.6438    0.0000 </r>
       <r>   14.0105    0.0000 </r>
       <r>   14.2648    0.0000 </r>
       <r>   14.6016    0.0000 </r>
       <r>   14.8051    0.0000 </r>
      </set>
      <set comment="kpoint 26">
       <r>   -8.7186    1.0000 </r>
       <r>   -7.7935    1.0000 </r>
       <r>   -7.5511    1.0000 </r>
       <r>   -7.2555    1.0000 </r>
       <r>   -4.8328    1.0000 </r>
       <r>   -3.7898    1.0000 </r>
       <r>   -3.0654    1.0000 </r>
       <r>   -2.7500    1.0000 </r>
       <r>    0.0661    1.0000 </r>
       <r>    0.6644    1.0000 </r>
       <r>    0.9590    1.0000 </r>
       <r>    1.4362    1.0000 </r>
       <r>    1.7132    1.0000 </r>
       <r>    1.9601    1.0000 </r>
       <r>    2.1667    1.0000 </r>
       <r>    2.6392    1.0000 </r>
       <r>    2.9420    1.0000 </r>
       <r>    3.2789    1.0000 </r>
       <r>    3.4000    1.0000 </r>
       <r>    3.6734    1.0000 </r>
       <r>    4.0722    1.0000 </r>
       <r>    4.5863    1.0000 </r>
       <r>    4.6930    1.0000 </r>
       <r>    4.8248    1.0000 </r>
       <r>    5.0383    1.0000 </r>
       <r>    5.4880    1.0000 </r>
       <r>    5.8684    1.0000 </r>
       <r>    5.9542    1.0000 </r>
       <r>    6.2168    1.0000 </r>
       <r>    6.2377    1.0000 </r>
       <r>    6.8125    1.0000 </r>
       <r>    7.1134    1.0000 </r>
       <r>   11.1138    0.0000 </r>
       <r>   11.6342    0.0000 </r>
       <r>   11.9963    0.0000 </r>
       <r>   12.2383    0.0000 </r>
       <r>   12.5015    0.0000 </r>
       <r>   13.0798    0.0000 </r>
       <r>   13.7069    0.0000 </r>
       <r>   13.9623    0.0000 </r>
       <r>   14.2923    0.0000 </r>
       <r>   14.4986    0.0000 </r>
       <r>   14.7274    0.0000 </r>
       <r>   15.2749    0.0000 </r>
      </set>
     </set>
    </set>
   </array>
  </eigenvalues>
  <separator name="orbital magnetization" >
   <v name="MAGDIPOLOUT">      0.00000000      0.00000000      0.00000000</v>
  </separator>
  <dos>
   <i name="efermi">      8.62751334 </i>
   <total>
    <array>
     <dimension dim="1">gridpoints</dimension>
     <dimension dim="2">spin</dimension>
     <field>energy</field>
     <field>total</field>
     <field>integrated</field>
     <set>
      <set comment="spin 1">
       <r>   -10.4091     0.0000     0.0000 </r>
       <r>   -10.3184     0.0000     0.0000 </r>
       <r>   -10.2278     0.0000     0.0000 </r>
       <r>   -10.1371     0.0000     0.0000 </r>
       <r>   -10.0465     0.0000     0.0000 </r>
       <r>    -9.9558     0.0000     0.0000 </r>
       <r>    -9.8652     0.0000     0.0000 </r>
       <r>    -9.7746     0.0000     0.0000 </r>
       <r>    -9.6839     0.0000     0.0000 </r>
       <r>    -9.5933     0.0000     0.0000 </r>
       <r>    -9.5026     0.0000     0.0000 </r>
       <r>    -9.4120     0.0002     0.0000 </r>
       <r>    -9.3213     0.0081     0.0008 </r>
       <r>    -9.2307     0.0917     0.0091 </r>
       <r>    -9.1401     0.3430     0.0402 </r>
       <r>    -9.0494     1.0123     0.1319 </r>
       <r>    -8.9588     2.0625     0.3189 </r>
       <r>    -8.8681     3.1025     0.6001 </r>
       <r>    -8.7775     4.4036     0.9993 </r>
       <r>    -8.6868     4.6584     1.4215 </r>
       <r>    -8.5962     3.9327     1.7780 </r>
       <r>    -8.5055     2.0237     1.9614 </r>
       <r>    -8.4149     0.4020     1.9978 </r>
       <r>    -8.3243     0.0268     2.0003 </r>
       <r>    -8.2336     0.0571     2.0054 </r>
       <r>    -8.1430     0.3306     2.0354 </r>
       <r>    -8.0523     1.3889     2.1613 </r>
       <r>    -7.9617     3.8450     2.5098 </r>
       <r>    -7.8710     5.6559     3.0225 </r>
       <r>    -7.7804     6.1397     3.5790 </r>
       <r>    -7.6898     5.7768     4.1026 </r>
       <r>    -7.5991     5.0919     4.5642 </r>
       <r>    -7.5085     4.7615     4.9958 </r>
       <r>    -7.4178     5.0585     5.4543 </r>
       <r>    -7.3272     4.5740     5.8689 </r>
       <r>    -7.2365     3.8489     6.2178 </r>
       <r>    -7.1459     5.3289     6.7008 </r>
       <r>    -7.0552     7.1984     7.3533 </r>
       <r>    -6.9646     5.5116     7.8529 </r>
       <r>    -6.8740     1.4999     7.9889 </r>
       <r>    -6.7833     0.1202     7.9998 </r>
       <r>    -6.6927     0.0026     8.0000 </r>
       <r>    -6.6020     0.0000     8.0000 </r>
       <r>    -6.5114     0.0000     8.0000 </r>
       <r>    -6.4207     0.0000     8.0000 </r>
       <r>    -6.3301     0.0000     8.0000 </r>
       <r>    -6.2395     0.0000     8.0000 </r>
       <r>    -6.1488     0.0000     8.0000 </r>
       <r>    -6.0582     0.0000     8.0000 </r>
       <r>    -5.9675     0.0000     8.0000 </r>
       <r>    -5.8769     0.0000     8.0000 </r>
       <r>    -5.7862     0.0000     8.0000 </r>
       <r>    -5.6956     0.0000     8.0000 </r>
       <r>    -5.6050     0.0000     8.0000 </r>
       <r>    -5.5143     0.0021     8.0002 </r>
       <r>    -5.4237     0.0408     8.0039 </r>
       <r>    -5.3330     0.1878     8.0209 </r>
       <r>    -5.2424     0.3240     8.0503 </r>
       <r>    -5.1517     0.6677     8.1108 </r>
       <r>    -5.0611     1.0828     8.2089 </r>
       <r>    -4.9704     1.3241     8.3290 </r>
       <r>    -4.8798     1.7575     8.4883 </r>
       <r>    -4.7892     2.2446     8.6917 </r>
       <r>    -4.6985     1.8466     8.8591 </r>
       <r>    -4.6079     1.7149     9.0146 </r>
       <r>    -4.5172     1.9246     9.1890 </r>
       <r>    -4.4266     2.0429     9.3742 </r>
       <r>    -4.3359     2.3111     9.5837 </r>
       <r>    -4.2453     2.5466     9.8145 </r>
       <r>    -4.1547     1.7103     9.9695 </r>
       <r>    -4.0640     0.7657    10.0389 </r>
       <r>    -3.9734     1.4279    10.1684 </r>
       <r>    -3.8827     2.3578    10.3821 </r>
       <r>    -3.7921     3.8607    10.7320 </r>
       <r>    -3.7014     6.3586    11.3084 </r>
       <r>    -3.6108     6.0734    11.8589 </r>
       <r>    -3.5201     3.5832    12.1837 </r>
       <r>    -3.4295     2.1610    12.3796 </r>
       <r>    -3.3389     2.3571    12.5933 </r>
       <r>    -3.2482     3.2181    12.8850 </r>
       <r>    -3.1576     2.8547    13.1437 </r>
       <r>    -3.0669     2.3961    13.3609 </r>
       <r>    -2.9763     2.2559    13.5654 </r>
       <r>    -2.8856     2.0394    13.7503 </r>
       <r>    -2.7950     3.2480    14.0447 </r>
       <r>    -2.7044     3.8984    14.3980 </r>
       <r>    -2.6137     2.2447    14.6015 </r>
       <r>    -2.5231     0.9327    14.6861 </r>
       <r>    -2.4324     1.6128    14.8322 </r>
       <r>    -2.3418     3.8956    15.1853 </r>
       <r>    -2.2511     5.4938    15.6833 </r>
       <r>    -2.1605     2.9823    15.9537 </r>
       <r>    -2.0699     0.4885    15.9979 </r>
       <r>    -1.9792     0.0225    16.0000 </r>
       <r>    -1.8886     0.0003    16.0000 </r>
       <r>    -1.7979     0.0000    16.0000 </r>
       <r>    -1.7073     0.0000    16.0000 </r>
       <r>    -1.6166     0.0000    16.0000 </r>
       <r>    -1.5260     0.0000    16.0000 </r>
       <r>    -1.4353     0.0000    16.0000 </r>
       <r>    -1.3447     0.0000    16.0000 </r>
       <r>    -1.2541     0.0000    16.0000 </r>
       <r>    -1.1634     0.0000    16.0000 </r>
       <r>    -1.0728     0.0000    16.0000 </r>
       <r>    -0.9821     0.0000    16.0000 </r>
       <r>    -0.8915     0.0005    16.0000 </r>
       <r>    -0.8008     0.0232    16.0021 </r>
       <r>    -0.7102     0.2794    16.0275 </r>
       <r>    -0.6196     1.1869    16.1351 </r>
       <r>    -0.5289     2.3506    16.3481 </r>
       <r>    -0.4383     2.6569    16.5889 </r>
       <r>    -0.3476     3.1165    16.8714 </r>
       <r>    -0.2570     3.8470    17.2201 </r>
       <r>    -0.1663     4.4616    17.6246 </r>
       <r>    -0.0757     4.1902    18.0044 </r>
       <r>     0.0150     3.5216    18.3236 </r>
       <r>     0.1056     3.5770    18.6478 </r>
       <r>     0.1962     3.0608    18.9253 </r>
       <r>     0.2869     2.2534    19.1295 </r>
       <r>     0.3775     2.9858    19.4002 </r>
       <r>     0.4682     3.1923    19.6895 </r>
       <r>     0.5588     3.3442    19.9927 </r>
       <r>     0.6495     4.4480    20.3958 </r>
       <r>     0.7401     4.9733    20.8466 </r>
       <r>     0.8307     4.4232    21.2476 </r>
       <r>     0.9214     4.2129    21.6294 </r>
       <r>     1.0120     4.9395    22.0772 </r>
       <r>     1.1027     5.0905    22.5386 </r>
       <r>     1.1933     5.3023    23.0192 </r>
       <r>     1.2840     4.6616    23.4418 </r>
       <r>     1.3746     4.8802    23.8841 </r>
       <r>     1.4653     5.9912    24.4272 </r>
       <r>     1.5559     5.3136    24.9088 </r>
       <r>     1.6465     5.9138    25.4449 </r>
       <r>     1.7372     6.9020    26.0705 </r>
       <r>     1.8278     6.2851    26.6402 </r>
       <r>     1.9185     4.6868    27.0650 </r>
       <r>     2.0091     5.2438    27.5403 </r>
       <r>     2.0998     5.7714    28.0635 </r>
       <r>     2.1904     5.4582    28.5582 </r>
       <r>     2.2810     5.7136    29.0761 </r>
       <r>     2.3717     5.2540    29.5524 </r>
       <r>     2.4623     4.7571    29.9836 </r>
       <r>     2.5530     4.9152    30.4291 </r>
       <r>     2.6436     6.8212    31.0474 </r>
       <r>     2.7343     7.7065    31.7459 </r>
       <r>     2.8249     6.5194    32.3369 </r>
       <r>     2.9155     6.3198    32.9097 </r>
       <r>     3.0062     6.3042    33.4812 </r>
       <r>     3.0968     5.7962    34.0065 </r>
       <r>     3.1875     5.4988    34.5050 </r>
       <r>     3.2781     6.1581    35.0632 </r>
       <r>     3.3688     6.7546    35.6754 </r>
       <r>     3.4594     7.1646    36.3249 </r>
       <r>     3.5501     6.2410    36.8906 </r>
       <r>     3.6407     6.5845    37.4874 </r>
       <r>     3.7313     6.9039    38.1132 </r>
       <r>     3.8220     6.4400    38.6969 </r>
       <r>     3.9126     5.7885    39.2216 </r>
       <r>     4.0033     6.2434    39.7876 </r>
       <r>     4.0939     7.4766    40.4653 </r>
       <r>     4.1846     6.8170    41.0832 </r>
       <r>     4.2752     6.3163    41.6557 </r>
       <r>     4.3658     7.3330    42.3204 </r>
       <r>     4.4565     6.9126    42.9470 </r>
       <r>     4.5471     6.2228    43.5110 </r>
       <r>     4.6378     6.4157    44.0926 </r>
       <r>     4.7284     8.0236    44.8199 </r>
       <r>     4.8191     9.7009    45.6992 </r>
       <r>     4.9097     9.1607    46.5296 </r>
       <r>     5.0004     8.3279    47.2844 </r>
       <r>     5.0910     7.5074    47.9649 </r>
       <r>     5.1816     6.9021    48.5906 </r>
       <r>     5.2723     7.2513    49.2478 </r>
       <r>     5.3629     7.0446    49.8864 </r>
       <r>     5.4536     6.6593    50.4900 </r>
       <r>     5.5442     6.6135    51.0895 </r>
       <r>     5.6349     6.8848    51.7135 </r>
       <r>     5.7255     7.5578    52.3986 </r>
       <r>     5.8161     8.3439    53.1549 </r>
       <r>     5.9068     8.4200    53.9182 </r>
       <r>     5.9974     7.3355    54.5831 </r>
       <r>     6.0881     6.9805    55.2158 </r>
       <r>     6.1787     8.2348    55.9622 </r>
       <r>     6.2694     8.1564    56.7016 </r>
       <r>     6.3600     6.7978    57.3177 </r>
       <r>     6.4507     6.3184    57.8904 </r>
       <r>     6.5413     6.6288    58.4913 </r>
       <r>     6.6319     5.4369    58.9841 </r>
       <r>     6.7226     4.4989    59.3919 </r>
       <r>     6.8132     5.1305    59.8570 </r>
       <r>     6.9039     5.3836    60.3450 </r>
       <r>     6.9945     4.5826    60.7603 </r>
       <r>     7.0852     5.2370    61.2350 </r>
       <r>     7.1758     6.3854    61.8138 </r>
       <r>     7.2664     7.1951    62.4660 </r>
       <r>     7.3571     5.4942    62.9641 </r>
       <r>     7.4477     2.3661    63.1785 </r>
       <r>     7.5384     0.9960    63.2688 </r>
       <r>     7.6290     0.5702    63.3205 </r>
       <r>     7.7197     0.2464    63.3428 </r>
       <r>     7.8103     0.4176    63.3807 </r>
       <r>     7.9009     1.0482    63.4757 </r>
       <r>     7.9916     1.9745    63.6547 </r>
       <r>     8.0822     2.1226    63.8471 </r>
       <r>     8.1729     1.2535    63.9607 </r>
       <r>     8.2635     0.3844    63.9955 </r>
       <r>     8.3542     0.0477    63.9998 </r>
       <r>     8.4448     0.0018    64.0000 </r>
       <r>     8.5355     0.0000    64.0000 </r>
       <r>     8.6261     0.0000    64.0000 </r>
       <r>     8.7167     0.0000    64.0000 </r>
       <r>     8.8074     0.0000    64.0000 </r>
       <r>     8.8980     0.0000    64.0000 </r>
       <r>     8.9887     0.0000    64.0000 </r>
       <r>     9.0793     0.0000    64.0000 </r>
       <r>     9.1700     0.0000    64.0000 </r>
       <r>     9.2606     0.0000    64.0000 </r>
       <r>     9.3512     0.0000    64.0000 </r>
       <r>     9.4419     0.0000    64.0000 </r>
       <r>     9.5325     0.0000    64.0000 </r>
       <r>     9.6232     0.0000    64.0000 </r>
       <r>     9.7138     0.0002    64.0000 </r>
       <r>     9.8045     0.0077    64.0007 </r>
       <r>     9.8951     0.0849    64.0084 </r>
       <r>     9.9858     0.2260    64.0289 </r>
       <r>    10.0764     0.2630    64.0527 </r>
       <r>    10.1670     0.4342    64.0921 </r>
       <r>    10.2577     0.3668    64.1253 </r>
       <r>    10.3483     0.3743    64.1593 </r>
       <r>    10.4390     0.4989    64.2045 </r>
       <r>    10.5296     0.6053    64.2594 </r>
       <r>    10.6203     0.7559    64.3279 </r>
       <r>    10.7109     1.0988    64.4275 </r>
       <r>    10.8015     1.8852    64.5984 </r>
       <r>    10.8922     1.7521    64.7572 </r>
       <r>    10.9828     1.7451    64.9154 </r>
       <r>    11.0735     2.8403    65.1728 </r>
       <r>    11.1641     3.5973    65.4989 </r>
       <r>    11.2548     4.0300    65.8642 </r>
       <r>    11.3454     4.8887    66.3073 </r>
       <r>    11.4360     5.5081    66.8066 </r>
       <r>    11.5267     5.4167    67.2976 </r>
       <r>    11.6173     4.3882    67.6954 </r>
       <r>    11.7080     3.4135    68.0048 </r>
       <r>    11.7986     3.8756    68.3561 </r>
       <r>    11.8893     4.2283    68.7393 </r>
       <r>    11.9799     4.9613    69.1891 </r>
       <r>    12.0706     5.5547    69.6926 </r>
       <r>    12.1612     5.2702    70.1703 </r>
       <r>    12.2518     5.5575    70.6740 </r>
       <r>    12.3425     5.7462    71.1949 </r>
       <r>    12.4331     5.9749    71.7365 </r>
       <r>    12.5238     6.4115    72.3176 </r>
       <r>    12.6144     5.7534    72.8391 </r>
       <r>    12.7051     4.2775    73.2269 </r>
       <r>    12.7957     5.0319    73.6830 </r>
       <r>    12.8863     6.1038    74.2362 </r>
       <r>    12.9770     5.8849    74.7697 </r>
       <r>    13.0676     5.8921    75.3038 </r>
       <r>    13.1583     4.9735    75.7546 </r>
       <r>    13.2489     5.2151    76.2273 </r>
       <r>    13.3396     5.8966    76.7618 </r>
       <r>    13.4302     5.3640    77.2480 </r>
       <r>    13.5209     4.4102    77.6477 </r>
       <r>    13.6115     4.1057    78.0199 </r>
       <r>    13.7021     4.1892    78.3996 </r>
       <r>    13.7928     4.8228    78.8368 </r>
       <r>    13.8834     6.7531    79.4489 </r>
       <r>    13.9741     7.2894    80.1097 </r>
       <r>    14.0647     5.2590    80.5864 </r>
       <r>    14.1554     5.0788    81.0467 </r>
       <r>    14.2460     6.8034    81.6634 </r>
       <r>    14.3366     7.2639    82.3218 </r>
       <r>    14.4273     5.1659    82.7901 </r>
       <r>    14.5179     4.9583    83.2395 </r>
       <r>    14.6086     7.3080    83.9020 </r>
       <r>    14.6992     8.5999    84.6815 </r>
       <r>    14.7899     8.7410    85.4738 </r>
       <r>    14.8805     7.3566    86.1406 </r>
       <r>    14.9712     4.9935    86.5932 </r>
       <r>    15.0618     4.0946    86.9644 </r>
       <r>    15.1524     3.5122    87.2828 </r>
       <r>    15.2431     3.5674    87.6061 </r>
       <r>    15.3337     2.4113    87.8247 </r>
       <r>    15.4244     0.7247    87.8904 </r>
       <r>    15.5150     0.5038    87.9361 </r>
       <r>    15.6057     0.5088    87.9822 </r>
       <r>    15.6963     0.1801    87.9985 </r>
       <r>    15.7869     0.0163    88.0000 </r>
       <r>    15.8776     0.0003    88.0000 </r>
       <r>    15.9682     0.0000    88.0000 </r>
       <r>    16.0589     0.0000    88.0000 </r>
       <r>    16.1495     0.0000    88.0000 </r>
       <r>    16.2402     0.0000    88.0000 </r>
       <r>    16.3308     0.0000    88.0000 </r>
       <r>    16.4214     0.0000    88.0000 </r>
       <r>    16.5121     0.0000    88.0000 </r>
       <r>    16.6027     0.0000    88.0000 </r>
       <r>    16.6934     0.0000    88.0000 </r>
       <r>    16.7840     0.0000    88.0000 </r>
      </set>
     </set>
    </array>
   </total>
  </dos>
 </calculation>
 <structure name="finalpos" >
  <crystal>
   <varray name="basis" >
    <v>       5.37423980      -0.01967004      -0.00729887 </v>
    <v>      -2.70644465       5.30542906       0.01780918 </v>
    <v>      -0.00126594      -1.86802148       5.97753924 </v>
   </varray>
   <i name="volume">    170.25909304 </i>
   <varray name="rec_basis" >
    <v>       0.18646099       0.09501905       0.02973358 </v>
    <v>       0.00077067       0.18868138       0.05896437 </v>
    <v>       0.00022538      -0.00044612       0.16715355 </v>
   </varray>
  </crystal>
  <varray name="positions" >
   <v>       0.83859167       0.00972108       0.75248419 </v>
   <v>       0.32836583       0.99554261       0.49999739 </v>
   <v>       0.40220539       0.50135632       0.87582974 </v>
   <v>       0.40914419       0.50224063       0.37559881 </v>
   <v>       0.84049191       0.00322320       0.25050702 </v>
   <v>       0.33532060       0.99863967       0.99926961 </v>
   <v>       0.91810995       0.49641911       0.12150264 </v>
   <v>       0.91937303       0.50138225       0.62714095 </v>
   <v>       0.14890207       0.61698285       0.90410137 </v>
   <v>       0.15541642       0.62875003       0.40671740 </v>
   <v>       0.22821589       0.13153050       0.77115743 </v>
   <v>       0.25596416       0.14159828       0.29797248 </v>
   <v>       0.62899513       0.61483147       0.15281517 </v>
   <v>       0.64307509       0.64043821       0.65991326 </v>
   <v>       0.73646224       0.11090050       0.01533900 </v>
   <v>       0.71136643       0.10644328       0.53965352 </v>
  </varray>
 </structure>
</modeling>
