<?xml version="1.0" encoding="ISO-8859-1"?>
<modeling>
 <generator>
  <i name="program" type="string">vasp </i>
  <i name="version" type="string">5.3.5  </i>
  <i name="subversion" type="string">31Mar14 (build Jun 20 2014 13:15:13) complex                          parallel </i>
  <i name="platform" type="string">LinuxIFC </i>
  <i name="date" type="string">2025 12 16 </i>
  <i name="time" type="string">16:46:15 </i>
 </generator>
 <incar>
  <i type="string" name="PREC">accurate</i>
  <i type="int" name="IALGO">    68</i>
  <i type="logical" name="ADDGRID"> T  </i>
  <i type="int" name="NELM">   100</i>
  <i type="int" name="NELMIN">     4</i>
  <i type="int" name="IBRION">     2</i>
  <i name="EDIFF">      0.00000100</i>
  <i name="EDIFFG">     -0.02000000</i>
  <i type="int" name="NSW">    30</i>
  <i type="int" name="ISIF">     3</i>
  <i name="ENCUT">    600.00000000</i>
  <i type="logical" name="LREAL"> F  </i>
  <i type="int" name="ISMEAR">     0</i>
  <i name="SIGMA">      0.10000000</i>
  <i type="logical" name="LWAVE"> F  </i>
  <i type="logical" name="LCHARG"> F  </i>
  <i type="int" name="NELM">   100</i>
 </incar>
 <kpoints>
  <generation param="Auto">
   <i name="subdivisionlength">     20.00000000 </i>
   <v type="int" name="divisions">       2        6        2 </v>
   <v name="usershift">      0.00000000       0.00000000       0.00000000 </v>
   <v name="genvec1">      0.50000000       0.00000000       0.00000000 </v>
   <v name="genvec2">      0.00000000       0.16666667       0.00000000 </v>
   <v name="genvec3">      0.00000000       0.00000000       0.50000000 </v>
   <v name="shift">      0.00000000       0.00000000       0.00000000 </v>
  </generation>
  <varray name="kpointlist" >
   <v>       0.00000000       0.00000000       0.00000000 </v>
   <v>       0.50000000       0.00000000       0.00000000 </v>
   <v>       0.00000000       0.16666667       0.00000000 </v>
   <v>       0.50000000       0.16666667       0.00000000 </v>
   <v>       0.00000000       0.33333333       0.00000000 </v>
   <v>       0.50000000       0.33333333       0.00000000 </v>
   <v>       0.00000000       0.50000000       0.00000000 </v>
   <v>       0.50000000       0.50000000       0.00000000 </v>
   <v>       0.00000000       0.00000000       0.50000000 </v>
   <v>       0.50000000       0.00000000       0.50000000 </v>
   <v>       0.00000000       0.16666667       0.50000000 </v>
   <v>       0.50000000       0.16666667       0.50000000 </v>
   <v>       0.00000000       0.33333333       0.50000000 </v>
   <v>       0.50000000       0.33333333       0.50000000 </v>
   <v>       0.00000000       0.50000000       0.50000000 </v>
   <v>       0.50000000       0.50000000       0.50000000 </v>
  </varray>
  <varray name="weights" >
   <v>       0.04166667 </v>
   <v>       0.04166667 </v>
   <v>       0.08333333 </v>
   <v>       0.08333333 </v>
   <v>       0.08333333 </v>
   <v>       0.08333333 </v>
   <v>       0.04166667 </v>
   <v>       0.04166667 </v>
   <v>       0.04166667 </v>
   <v>       0.04166667 </v>
   <v>       0.08333333 </v>
   <v>       0.08333333 </v>
   <v>       0.08333333 </v>
   <v>       0.08333333 </v>
   <v>       0.04166667 </v>
   <v>       0.04166667 </v>
  </varray>
 </kpoints>
 <parameters>
  <separator name="general" >
   <i type="string" name="SYSTEM">unknown system</i>
   <i type="logical" name="LCOMPAT"> F  </i>
  </separator>
  <separator name="electronic" >
   <i type="string" name="PREC">accura</i>
   <i name="ENMAX">    600.00000000</i>
   <i name="ENAUG">    644.87300000</i>
   <i name="EDIFF">      0.00000100</i>
   <i type="int" name="IALGO">    68</i>
   <i type="int" name="IWAVPR">    11</i>
   <i type="int" name="NBANDS">    84</i>
   <i name="NELECT">    128.00000000</i>
   <i type="int" name="TURBO">     0</i>
   <i type="int" name="IRESTART">     0</i>
   <i type="int" name="NREBOOT">     0</i>
   <i type="int" name="NMIN">     0</i>
   <i name="EREF">      0.00000000</i>
   <separator name="electronic smearing" >
    <i type="int" name="ISMEAR">     0</i>
    <i name="SIGMA">      0.10000000</i>
    <i name="KSPACING">      0.50000000</i>
    <i type="logical" name="KGAMMA"> T  </i>
   </separator>
   <separator name="electronic projectors" >
    <i type="logical" name="LREAL"> F  </i>
    <v name="ROPT">      0.00000000      0.00000000      0.00000000      0.00000000</v>
    <i type="int" name="LMAXPAW">  -100</i>
    <i type="int" name="LMAXMIX">     2</i>
    <i type="logical" name="NLSPLINE"> F  </i>
   </separator>
   <separator name="electronic startup" >
    <i type="int" name="ISTART">     0</i>
    <i type="int" name="ICHARG">     2</i>
    <i type="int" name="INIWAV">     1</i>
   </separator>
   <separator name="electronic spin" >
    <i type="int" name="ISPIN">     1</i>
    <i type="logical" name="LNONCOLLINEAR"> F  </i>
    <v name="MAGMOM">      1.00000000      1.00000000      1.00000000      1.00000000      1.00000000      1.00000000      1.00000000      1.00000000      1.00000000      1.00000000      1.00000000      1.00000000      1.00000000      1.00000000      1.00000000      1.00000000      1.00000000      1.00000000      1.00000000      1.00000000
      1.00000000      1.00000000      1.00000000      1.00000000      1.00000000      1.00000000      1.00000000      1.00000000      1.00000000      1.00000000      1.00000000      1.00000000</v>
    <i name="NUPDOWN">     -1.00000000</i>
    <i type="logical" name="LSORBIT"> F  </i>
    <v name="SAXIS">      0.00000000      0.00000000      1.00000000</v>
    <i type="logical" name="LSPIRAL"> F  </i>
    <v name="QSPIRAL">      0.00000000      0.00000000      0.00000000</v>
    <i type="logical" name="LZEROZ"> F  </i>
   </separator>
   <separator name="electronic exchange-correlation" >
    <i type="logical" name="LASPH"> F  </i>
    <i type="logical" name="LMETAGGA"> F  </i>
   </separator>
   <separator name="electronic convergence" >
    <i type="int" name="NELM">   100</i>
    <i type="int" name="NELMDL">     0</i>
    <i type="int" name="NELMIN">     4</i>
    <i name="ENINI">    600.00000000</i>
    <separator name="electronic convergence detail" >
     <i type="logical" name="LDIAG"> T  </i>
     <i type="logical" name="LSUBROT"> F  </i>
     <i name="WEIMIN">      0.00100000</i>
     <i name="EBREAK">      0.00000000</i>
     <i name="DEPER">      0.30000000</i>
     <i type="int" name="NRMM">     4</i>
     <i name="TIME">      0.40000000</i>
    </separator>
   </separator>
   <separator name="electronic mixer" >
    <i name="AMIX">      0.40000000</i>
    <i name="BMIX">      1.00000000</i>
    <i name="AMIN">      0.10000000</i>
    <i name="AMIX_MAG">      1.60000000</i>
    <i name="BMIX_MAG">      1.00000000</i>
    <separator name="electronic mixer details" >
     <i type="int" name="IMIX">     4</i>
     <i type="int" name="MAXMIX">   -45</i>
     <i name="WC">    100.00000000</i>
     <i type="int" name="INIMIX">     1</i>
     <i type="int" name="MIXPRE">     1</i>
     <i type="int" name="MREMOVE">     5</i>
    </separator>
   </separator>
   <separator name="electronic dipolcorrection" >
    <i type="logical" name="LDIPOL"> F  </i>
    <i type="logical" name="LMONO"> F  </i>
    <i type="int" name="IDIPOL">     0</i>
    <i name="EPSILON">      1.00000000</i>
    <v name="DIPOL">   -100.00000000   -100.00000000   -100.00000000</v>
    <i name="EFIELD">      0.00000000</i>
   </separator>
  </separator>
  <separator name="grids" >
   <i type="int" name="NGX">    96</i>
   <i type="int" name="NGY">    28</i>
   <i type="int" name="NGZ">    90</i>
   <i type="int" name="NGXF">   192</i>
   <i type="int" name="NGYF">    56</i>
   <i type="int" name="NGZF">   180</i>
   <i type="logical" name="ADDGRID"> T  </i>
  </separator>
  <separator name="ionic" >
   <i type="int" name="NSW">    30</i>
   <i type="int" name="IBRION">     2</i>
   <i type="int" name="ISIF">     3</i>
   <i name="PSTRESS">      0.00000000</i>
   <i name="EDIFFG">     -0.02000000</i>
   <i type="int" name="NFREE">     1</i>
   <i name="POTIM">      0.50000000</i>
   <i name="SMASS">     -3.00000000</i>
   <i name="SCALEE">      1.00000000</i>
  </separator>
  <separator name="ionic md" >
   <i name="TEBEG">      0.00010000</i>
   <i name="TEEND">      0.00010000</i>
   <i type="int" name="NBLOCK">     1</i>
   <i type="int" name="KBLOCK">    30</i>
   <i type="int" name="NPACO">   256</i>
   <i name="APACO">     16.00000000</i>
  </separator>
  <separator name="symmetry" >
   <i type="int" name="ISYM">     2</i>
   <i name="SYMPREC">      0.00001000</i>
  </separator>
  <separator name="dos" >
   <i type="logical" name="LORBIT"> F  </i>
   <v name="RWIGS">     -1.00000000     -1.00000000     -1.00000000     -1.00000000</v>
   <i type="int" name="NEDOS">   301</i>
   <i name="EMIN">     10.00000000</i>
   <i name="EMAX">    -10.00000000</i>
   <i name="EFERMI">      0.00000000</i>
  </separator>
  <separator name="writing" >
   <i type="int" name="NWRITE">     2</i>
   <i type="logical" name="LWAVE"> F  </i>
   <i type="logical" name="LCHARG"> F  </i>
   <i type="logical" name="LPARD"> F  </i>
   <i type="logical" name="LVTOT"> F  </i>
   <i type="logical" name="LVHAR"> F  </i>
   <i type="logical" name="LELF"> F  </i>
   <i type="logical" name="LOPTICS"> F  </i>
   <v name="STM">      0.00000000      0.00000000      0.00000000      0.00000000      0.00000000      0.00000000      0.00000000</v>
  </separator>
  <separator name="performance" >
   <i type="int" name="NPAR">     4</i>
   <i type="int" name="NSIM">     4</i>
   <i type="int" name="NBLK">    -1</i>
   <i type="logical" name="LPLANE"> T  </i>
   <i type="logical" name="LSCALAPACK"> T  </i>
   <i type="logical" name="LSCAAWARE"> F  </i>
   <i type="logical" name="LSCALU"> F  </i>
   <i type="logical" name="LASYNC"> F  </i>
   <i type="logical" name="LORBITALREAL"> F  </i>
  </separator>
  <separator name="miscellaneous" >
   <i type="int" name="IDIOT">     3</i>
   <i type="logical" name="LMUSIC"> F  </i>
   <v name="POMASS">     28.08500000     26.98100000     12.01100000     14.00100000</v>
   <v name="DARWINR">      0.00000000      0.00000000      0.00000000      0.00000000</v>
   <v name="DARWINV">      1.00000000      1.00000000      1.00000000      1.00000000</v>
   <i type="logical" name="LCORR"> T  </i>
  </separator>
  <i type="logical" name="GGA_COMPAT"> T  </i>
  <i type="logical" name="LBERRY"> F  </i>
  <i type="int" name="ICORELEVEL">     0</i>
  <i type="logical" name="LDAU"> F  </i>
  <i type="int" name="I_CONSTRAINED_M">     0</i>
  <separator name="electronic exchange-correlation" >
   <i type="string" name="GGA">--</i>
   <i type="int" name="VOSKOWN">     0</i>
   <i type="logical" name="LHFCALC"> F  </i>
   <i type="string" name="PRECFOCK"></i>
   <i type="logical" name="LSYMGRAD"> F  </i>
   <i type="logical" name="LHFONE"> F  </i>
   <i type="logical" name="LRHFCALC"> F  </i>
   <i type="logical" name="LTHOMAS"> F  </i>
   <i type="logical" name="LMODELHF"> F  </i>
   <i name="ENCUT4O">     -1.00000000</i>
   <i type="int" name="EXXOEP">     0</i>
   <i type="int" name="FOURORBIT">     0</i>
   <i name="AEXX">      0.00000000</i>
   <i name="HFALPHA">      0.00000000</i>
   <i name="MCALPHA">      0.00000000</i>
   <i name="ALDAX">      1.00000000</i>
   <i name="AGGAX">      1.00000000</i>
   <i name="ALDAC">      1.00000000</i>
   <i name="AGGAC">      1.00000000</i>
   <i type="int" name="NKREDX">     1</i>
   <i type="int" name="NKREDY">     1</i>
   <i type="int" name="NKREDZ">     1</i>
   <i type="logical" name="SHIFTRED"> F  </i>
   <i type="logical" name="ODDONLY"> F  </i>
   <i type="logical" name="EVENONLY"> F  </i>
   <i type="int" name="LMAXFOCK">     0</i>
   <i type="int" name="NMAXFOCKAE">     0</i>
   <i type="logical" name="LFOCKAEDFT"> F  </i>
   <i name="HFSCREEN">      0.00000000</i>
   <i name="HFSCREENC">      0.00000000</i>
   <i type="int" name="NBANDSGWLOW">     0</i>
  </separator>
  <separator name="vdW DFT" >
   <i type="logical" name="LUSE_VDW"> F  </i>
   <i name="Zab_VDW">     -0.84910000</i>
   <i name="PARAM1">      0.12340000</i>
   <i name="PARAM2">      1.00000000</i>
   <i name="PARAM3">      0.00000000</i>
  </separator>
  <separator name="model GW" >
   <i type="int" name="MODEL_GW">     0</i>
   <i name="MODEL_EPS0">      6.39074075</i>
   <i name="MODEL_ALPHA">      1.00000000</i>
  </separator>
  <separator name="linear response parameters" >
   <i type="logical" name="LEPSILON"> F  </i>
   <i type="logical" name="LRPA"> F  </i>
   <i type="logical" name="LNABLA"> F  </i>
   <i type="logical" name="LVEL"> F  </i>
   <i type="int" name="KINTER">     0</i>
   <i name="CSHIFT">      0.10000000</i>
   <i name="OMEGAMAX">     -1.00000000</i>
   <i name="DEG_THRESHOLD">      0.00200000</i>
  </separator>
  <separator name="orbital magnetization" >
   <i type="logical" name="NUCIND"> F  </i>
   <v name="MAGPOS">      0.00000000      0.00000000      0.00000000</v>
   <i type="logical" name="LNICSALL"> T  </i>
   <i type="logical" name="ORBITALMAG"> F  </i>
   <i type="logical" name="LMAGBLOCH"> F  </i>
   <i type="logical" name="LCHIMAG"> F  </i>
   <i type="logical" name="LGAUGE"> T  </i>
   <i type="int" name="MAGATOM">     0</i>
   <v name="MAGDIPOL">      0.00000000      0.00000000      0.00000000</v>
   <v name="AVECCONST">      0.00000000      0.00000000      0.00000000</v>
  </separator>
  <separator name="response functions" >
   <i type="logical" name="LADDER"> F  </i>
   <i type="logical" name="LFXC"> F  </i>
   <i type="logical" name="LHARTREE"> T  </i>
   <i type="int" name="IBSE">     0</i>
   <i type="logical" name="LTCTE"> F  </i>
   <i type="logical" name="LTETE"> F  </i>
   <i type="logical" name="LTRIPLET"> F  </i>
   <i type="logical" name="LFXCEPS"> F  </i>
   <i type="logical" name="LFXHEG"> F  </i>
   <i type="logical" name="L2ORDER"> F  </i>
   <i type="logical" name="LUSEW"> F  </i>
   <i name="ENCUTGW">     -2.00000000</i>
   <i name="ENCUTGWSOFT">     -2.00000000</i>
   <i name="ENCUTLF">     -1.00000000</i>
   <i type="int" name="LMAXMP2">    -1</i>
   <i name="SCISSOR">      0.00000000</i>
   <i type="int" name="NOMEGA">     0</i>
   <i type="int" name="NOMEGAR">     0</i>
   <i type="int" name="NBANDSGW">    -1</i>
   <i type="int" name="NBANDSO">    -1</i>
   <i type="int" name="NBANDSV">    -1</i>
   <i type="int" name="NELM">   100</i>
   <i type="int" name="DIM">     3</i>
   <i type="int" name="ANTIRES">     0</i>
   <i name="OMEGAMAX">    -30.00000000</i>
   <i name="OMEGAMIN">    -30.00000000</i>
   <i name="OMEGATL">   -200.00000000</i>
   <i type="int" name="OMEGAGRID">     0</i>
   <i name="CSHIFT">     -0.10000000</i>
   <i type="logical" name="SELFENERGY"> F  </i>
   <i type="logical" name="LSPECTRAL"> F  </i>
   <i type="logical" name="ODDONLYGW"> F  </i>
   <i type="logical" name="EVENONLYGW"> F  </i>
   <i type="int" name="NKREDLFX">     1</i>
   <i type="int" name="NKREDLFY">     1</i>
   <i type="int" name="NKREDLFZ">     1</i>
   <i type="int" name="MAXMEM">  1800</i>
   <i type="int" name="TELESCOPE">     0</i>
   <i type="int" name="TAUPAR">     1</i>
  </separator>
  <separator name="External order field" >
   <i name="OFIELD_KAPPA">      0.00000000</i>
   <v name="OFIELD_K">      0.00000000      0.00000000      0.00000000</v>
   <i name="OFIELD_Q6_NEAR">      0.00000000</i>
   <i name="OFIELD_Q6_FAR">      0.00000000</i>
   <i name="OFIELD_A">      0.00000000</i>
  </separator>
 </parameters>
 <atominfo>
  <atoms>      32 </atoms>
  <types>       4 </types>
  <array name="atoms" >
   <dimension dim="1">ion</dimension>
   <field type="string">element</field>
   <field type="int">atomtype</field>
   <set>
    <rc><c>Si</c><c>   1</c></rc>
    <rc><c>Si</c><c>   1</c></rc>
    <rc><c>Si</c><c>   1</c></rc>
    <rc><c>Si</c><c>   1</c></rc>
    <rc><c>Si</c><c>   1</c></rc>
    <rc><c>Si</c><c>   1</c></rc>
    <rc><c>Si</c><c>   1</c></rc>
    <rc><c>Si</c><c>   1</c></rc>
    <rc><c>Al</c><c>   2</c></rc>
    <rc><c>Al</c><c>   2</c></rc>
    <rc><c>Al</c><c>   2</c></rc>
    <rc><c>Al</c><c>   2</c></rc>
    <rc><c>Al</c><c>   2</c></rc>
    <rc><c>Al</c><c>   2</c></rc>
    <rc><c>Al</c><c>   2</c></rc>
    <rc><c>Al</c><c>   2</c></rc>
    <rc><c>C </c><c>   3</c></rc>
    <rc><c>C </c><c>   3</c></rc>
    <rc><c>C </c><c>   3</c></rc>
    <rc><c>C </c><c>   3</c></rc>
    <rc><c>C </c><c>   3</c></rc>
    <rc><c>C </c><c>   3</c></rc>
    <rc><c>C </c><c>   3</c></rc>
    <rc><c>C </c><c>   3</c></rc>
    <rc><c>N </c><c>   4</c></rc>
    <rc><c>N </c><c>   4</c></rc>
    <rc><c>N </c><c>   4</c></rc>
    <rc><c>N </c><c>   4</c></rc>
    <rc><c>N </c><c>   4</c></rc>
    <rc><c>N </c><c>   4</c></rc>
    <rc><c>N </c><c>   4</c></rc>
    <rc><c>N </c><c>   4</c></rc>
   </set>
  </array>
  <array name="atomtypes" >
   <dimension dim="1">type</dimension>
   <field type="int">atomspertype</field>
   <field type="string">element</field>
   <field>mass</field>
   <field>valence</field>
   <field type="string">pseudopotential</field>
   <set>
    <rc><c>   8</c><c>Si</c><c>     28.08500000</c><c>      4.00000000</c><c>  PAW_PBE Si 05Jan2001                  </c></rc>
    <rc><c>   8</c><c>Al</c><c>     26.98100000</c><c>      3.00000000</c><c>  PAW_PBE Al 04Jan2001                  </c></rc>
    <rc><c>   8</c><c>C </c><c>     12.01100000</c><c>      4.00000000</c><c>  PAW_PBE C 08Apr2002                   </c></rc>
    <rc><c>   8</c><c>N </c><c>     14.00100000</c><c>      5.00000000</c><c>  PAW_PBE N_s 07Sep2000                 </c></rc>
   </set>
  </array>
 </atominfo>
 <structure name="initialpos" >
  <crystal>
   <varray name="basis" >
    <v>      11.44365518       0.00000000       0.05876400 </v>
    <v>       0.00000000       3.12768838       0.00000000 </v>
    <v>      -5.13617953       0.00000000       9.49636010 </v>
   </varray>
   <i name="volume">    340.83950664 </i>
   <varray name="rec_basis" >
    <v>       0.08714264       0.00000000       0.04713177 </v>
    <v>       0.00000000       0.31972495       0.00000000 </v>
    <v>      -0.00053924       0.00000000       0.10501185 </v>
   </varray>
  </crystal>
  <varray name="positions" >
   <v>       0.00228481       0.00000000       0.33653421 </v>
   <v>       0.99567724       0.50000000       0.57314412 </v>
   <v>       0.75008817       0.00000000       0.04691334 </v>
   <v>       0.24575726       0.50000000       0.54156257 </v>
   <v>       0.50228481       0.50000000       0.33653421 </v>
   <v>       0.49567724       0.00000000       0.57314412 </v>
   <v>       0.25008817       0.50000000       0.04691334 </v>
   <v>       0.74575726       0.00000000       0.54156257 </v>
   <v>       0.00714822       0.00000000       0.84162515 </v>
   <v>       0.99019753       0.50000000       0.07340939 </v>
   <v>       0.74661585       0.50000000       0.28678548 </v>
   <v>       0.25153674       0.00000000       0.79477712 </v>
   <v>       0.50714822       0.50000000       0.84162515 </v>
   <v>       0.49019753       0.00000000       0.07340939 </v>
   <v>       0.24661585       0.00000000       0.28678548 </v>
   <v>       0.75153674       0.50000000       0.79477712 </v>
   <v>       0.20403941       0.00000000       0.94646659 </v>
   <v>       0.19041848       0.00000000       0.43691851 </v>
   <v>       0.94358142       0.50000000       0.38516384 </v>
   <v>       0.43680016       0.00000000       0.87587054 </v>
   <v>       0.70403941       0.50000000       0.94646659 </v>
   <v>       0.69041848       0.50000000       0.43691851 </v>
   <v>       0.44358142       0.00000000       0.38516384 </v>
   <v>       0.93680016       0.50000000       0.87587054 </v>
   <v>       0.68720921       0.00000000       0.17370361 </v>
   <v>       0.17430289       0.50000000       0.66578416 </v>
   <v>       0.93905802       0.00000000       0.14987798 </v>
   <v>       0.93528458       0.00000000       0.62146339 </v>
   <v>       0.18720921       0.50000000       0.17370361 </v>
   <v>       0.67430289       0.00000000       0.66578416 </v>
   <v>       0.43905802       0.50000000       0.14987798 </v>
   <v>       0.43528458       0.50000000       0.62146339 </v>
  </varray>
 </structure>
 <calculation>
  <scstep>
   <time name="dav">    3.20    3.20</time>
   <time name="total">    3.42    3.43</time>
   <energy>
    <i name="alphaZ">    127.64477829 </i>
    <i name="ewald">  -4525.94623478 </i>
    <i name="hartreedc">   -735.34191227 </i>
    <i name="XCdc">    -11.11343803 </i>
    <i name="pawpsdc">   3742.27521622 </i>
    <i name="pawaedc">  -3359.93045151 </i>
    <i name="eentropy">     -0.02278990 </i>
    <i name="bandstr">    917.09042266 </i>
    <i name="atom">   4546.41956982 </i>
    <i name="e_fr_energy">    701.07516049 </i>
    <i name="e_wo_entrp">    701.09795039 </i>
    <i name="e_0_energy">    701.08655544 </i>
   </energy>
  </scstep>
  <scstep>
   <time name="dav">    3.90    3.90</time>
   <time name="total">    3.90    3.91</time>
   <energy>
    <i name="e_fr_energy">   -190.48493036 </i>
    <i name="e_wo_entrp">   -190.48493036 </i>
    <i name="e_0_energy">   -190.48493036 </i>
   </energy>
  </scstep>
  <scstep>
   <time name="dav">    3.99    3.99</time>
   <time name="total">    3.99    4.00</time>
   <energy>
    <i name="e_fr_energy">   -267.13815681 </i>
    <i name="e_wo_entrp">   -267.13815681 </i>
    <i name="e_0_energy">   -267.13815681 </i>
   </energy>
  </scstep>
  <scstep>
   <time name="dav">    3.93    3.93</time>
   <time name="total">    3.93    3.95</time>
   <energy>
    <i name="e_fr_energy">   -269.53376328 </i>
    <i name="e_wo_entrp">   -269.53376328 </i>
    <i name="e_0_energy">   -269.53376328 </i>
   </energy>
  </scstep>
  <scstep>
   <time name="dav">    3.95    3.95</time>
   <time name="total">    4.32    4.34</time>
   <energy>
    <i name="e_fr_energy">   -269.61742622 </i>
    <i name="e_wo_entrp">   -269.61742622 </i>
    <i name="e_0_energy">   -269.61742622 </i>
   </energy>
  </scstep>
  <scstep>
   <time name="diag">    0.51    0.51</time>
   <time name="diis">    2.37    2.37</time>
   <time name="orth">    0.08    0.08</time>
   <time name="total">    3.54    3.56</time>
   <energy>
    <i name="e_fr_energy">   -233.22255459 </i>
    <i name="e_wo_entrp">   -233.22255459 </i>
    <i name="e_0_energy">   -233.22255459 </i>
   </energy>
  </scstep>
  <scstep>
   <time name="diag">    0.51    0.51</time>
   <time name="diis">    2.46    2.46</time>
   <time name="orth">    0.08    0.08</time>
   <time name="total">    3.63    3.64</time>
   <energy>
    <i name="e_fr_energy">   -232.98043476 </i>
    <i name="e_wo_entrp">   -232.98043476 </i>
    <i name="e_0_energy">   -232.98043476 </i>
   </energy>
  </scstep>
  <scstep>
   <time name="diag">    0.51    0.51</time>
   <time name="diis">    2.44    2.44</time>
   <time name="orth">    0.08    0.08</time>
   <time name="total">    3.60    3.62</time>
   <energy>
    <i name="e_fr_energy">   -234.00806672 </i>
    <i name="e_wo_entrp">   -234.00806672 </i>
    <i name="e_0_energy">   -234.00806672 </i>
   </energy>
  </scstep>
  <scstep>
   <time name="diag">    0.51    0.51</time>
   <time name="diis">    2.40    2.40</time>
   <time name="orth">    0.08    0.08</time>
   <time name="total">    3.56    3.58</time>
   <energy>
    <i name="e_fr_energy">   -232.70306813 </i>
    <i name="e_wo_entrp">   -232.70306813 </i>
    <i name="e_0_energy">   -232.70306813 </i>
   </energy>
  </scstep>
  <scstep>
   <time name="diag">    0.51    0.51</time>
   <time name="diis">    2.35    2.35</time>
   <time name="orth">    0.35    0.35</time>
   <time name="total">    3.79    3.80</time>
   <energy>
    <i name="e_fr_energy">   -232.71464179 </i>
    <i name="e_wo_entrp">   -232.71464179 </i>
    <i name="e_0_energy">   -232.71464179 </i>
   </energy>
  </scstep>
  <scstep>
   <time name="diag">    0.51    0.51</time>
   <time name="diis">    2.36    2.36</time>
   <time name="orth">    0.08    0.08</time>
   <time name="total">    3.54    3.55</time>
   <energy>
    <i name="e_fr_energy">   -232.71681821 </i>
    <i name="e_wo_entrp">   -232.71681821 </i>
    <i name="e_0_energy">   -232.71681821 </i>
   </energy>
  </scstep>
  <scstep>
   <time name="diag">    0.51    0.51</time>
   <time name="diis">    2.34    2.34</time>
   <time name="orth">    0.08    0.08</time>
   <time name="total">    3.51    3.52</time>
   <energy>
    <i name="e_fr_energy">   -232.71634136 </i>
    <i name="e_wo_entrp">   -232.71634136 </i>
    <i name="e_0_energy">   -232.71634136 </i>
   </energy>
  </scstep>
  <scstep>
   <time name="diag">    0.51    0.51</time>
   <time name="diis">    2.33    2.33</time>
   <time name="orth">    0.08    0.08</time>
   <time name="total">    3.50    3.51</time>
   <energy>
    <i name="e_fr_energy">   -232.71637376 </i>
    <i name="e_wo_entrp">   -232.71637376 </i>
    <i name="e_0_energy">   -232.71637376 </i>
   </energy>
  </scstep>
  <scstep>
   <time name="diag">    0.51    0.51</time>
   <time name="diis">    2.34    2.34</time>
   <time name="orth">    0.08    0.08</time>
   <time name="total">    3.50    3.52</time>
   <energy>
    <i name="e_fr_energy">   -232.71633019 </i>
    <i name="e_wo_entrp">   -232.71633019 </i>
    <i name="e_0_energy">   -232.71633019 </i>
   </energy>
  </scstep>
  <scstep>
   <time name="diag">    0.51    0.51</time>
   <time name="diis">    2.22    2.22</time>
   <time name="orth">    0.08    0.08</time>
   <time name="total">    3.39    3.40</time>
   <energy>
    <i name="e_fr_energy">   -232.71632830 </i>
    <i name="e_wo_entrp">   -232.71632830 </i>
    <i name="e_0_energy">   -232.71632830 </i>
   </energy>
  </scstep>
  <scstep>
   <time name="diag">    0.51    0.51</time>
   <time name="diis">    1.61    1.61</time>
   <time name="orth">    0.08    0.08</time>
   <time name="total">    2.41    2.43</time>
   <energy>
    <i name="alphaZ">    127.64477829 </i>
    <i name="ewald">  -4525.94623478 </i>
    <i name="hartreedc">   -946.64142407 </i>
    <i name="XCdc">      7.98049893 </i>
    <i name="pawpsdc">  20173.22537372 </i>
    <i name="pawaedc"> -19799.19958682 </i>
    <i name="eentropy">      0.00000000 </i>
    <i name="bandstr">    183.80069602 </i>
    <i name="atom">   4546.41956982 </i>
    <i name="e_fr_energy">   -232.71632889 </i>
    <i name="e_wo_entrp">   -232.71632889 </i>
    <i name="e_0_energy">   -232.71632889 </i>
   </energy>
  </scstep>
  <structure>
   <crystal>
    <varray name="basis" >
     <v>      11.44365518       0.00000000       0.05876400 </v>
     <v>       0.00000000       3.12768838       0.00000000 </v>
     <v>      -5.13617953       0.00000000       9.49636010 </v>
    </varray>
    <i name="volume">    340.83950664 </i>
    <varray name="rec_basis" >
     <v>       0.08714264       0.00000000       0.04713177 </v>
     <v>       0.00000000       0.31972495       0.00000000 </v>
     <v>      -0.00053924       0.00000000       0.10501185 </v>
    </varray>
   </crystal>
   <varray name="positions" >
    <v>       0.00228481       0.00000000       0.33653421 </v>
    <v>       0.99567724       0.50000000       0.57314412 </v>
    <v>       0.75008817       0.00000000       0.04691334 </v>
    <v>       0.24575726       0.50000000       0.54156257 </v>
    <v>       0.50228481       0.50000000       0.33653421 </v>
    <v>       0.49567724       0.00000000       0.57314412 </v>
    <v>       0.25008817       0.50000000       0.04691334 </v>
    <v>       0.74575726       0.00000000       0.54156257 </v>
    <v>       0.00714822       0.00000000       0.84162515 </v>
    <v>       0.99019753       0.50000000       0.07340939 </v>
    <v>       0.74661585       0.50000000       0.28678548 </v>
    <v>       0.25153674       0.00000000       0.79477712 </v>
    <v>       0.50714822       0.50000000       0.84162515 </v>
    <v>       0.49019753       0.00000000       0.07340939 </v>
    <v>       0.24661585       0.00000000       0.28678548 </v>
    <v>       0.75153674       0.50000000       0.79477712 </v>
    <v>       0.20403941       0.00000000       0.94646659 </v>
    <v>       0.19041848       0.00000000       0.43691851 </v>
    <v>       0.94358142       0.50000000       0.38516384 </v>
    <v>       0.43680016       0.00000000       0.87587054 </v>
    <v>       0.70403941       0.50000000       0.94646659 </v>
    <v>       0.69041848       0.50000000       0.43691851 </v>
    <v>       0.44358142       0.00000000       0.38516384 </v>
    <v>       0.93680016       0.50000000       0.87587054 </v>
    <v>       0.68720921       0.00000000       0.17370361 </v>
    <v>       0.17430289       0.50000000       0.66578416 </v>
    <v>       0.93905802       0.00000000       0.14987798 </v>
    <v>       0.93528458       0.00000000       0.62146339 </v>
    <v>       0.18720921       0.50000000       0.17370361 </v>
    <v>       0.67430289       0.00000000       0.66578416 </v>
    <v>       0.43905802       0.50000000       0.14987798 </v>
    <v>       0.43528458       0.50000000       0.62146339 </v>
   </varray>
  </structure>
  <varray name="forces" >
   <v>      -0.00269999       0.00000000       0.00424902 </v>
   <v>       0.00709097       0.00000000      -0.00400982 </v>
   <v>      -0.00994332       0.00000000       0.01415420 </v>
   <v>      -0.01006328       0.00000000      -0.00440798 </v>
   <v>      -0.00269999       0.00000000       0.00424902 </v>
   <v>       0.00709097       0.00000000      -0.00400982 </v>
   <v>      -0.00994332       0.00000000       0.01415420 </v>
   <v>      -0.01006328       0.00000000      -0.00440798 </v>
   <v>      -0.00183933       0.00000000      -0.00200030 </v>
   <v>       0.00740630       0.00000000       0.00410995 </v>
   <v>      -0.00033040       0.00000000      -0.01441501 </v>
   <v>       0.00946723       0.00000000      -0.00363925 </v>
   <v>      -0.00183933       0.00000000      -0.00200030 </v>
   <v>       0.00740630       0.00000000       0.00410995 </v>
   <v>      -0.00033040       0.00000000      -0.01441501 </v>
   <v>       0.00946723       0.00000000      -0.00363925 </v>
   <v>       0.00402038       0.00000000      -0.00522955 </v>
   <v>      -0.00106358       0.00000000       0.00366980 </v>
   <v>      -0.01202003       0.00000000       0.01122757 </v>
   <v>       0.00605505       0.00000000       0.00303433 </v>
   <v>       0.00402038       0.00000000      -0.00522955 </v>
   <v>      -0.00106358       0.00000000       0.00366980 </v>
   <v>      -0.01202003       0.00000000       0.01122757 </v>
   <v>       0.00605505       0.00000000       0.00303433 </v>
   <v>       0.00310019       0.00000000       0.00464218 </v>
   <v>       0.00239016       0.00000000      -0.00430613 </v>
   <v>       0.00299967       0.00000000      -0.00348583 </v>
   <v>      -0.00457002       0.00000000      -0.00359319 </v>
   <v>       0.00310019       0.00000000       0.00464218 </v>
   <v>       0.00239016       0.00000000      -0.00430613 </v>
   <v>       0.00299967       0.00000000      -0.00348583 </v>
   <v>      -0.00457002       0.00000000      -0.00359319 </v>
  </varray>
  <varray name="stress" >
   <v>      -0.30698673       0.00000000       0.09450186 </v>
   <v>       0.00000000      -0.30066900       0.00000000 </v>
   <v>       0.09450192       0.00000000      -0.15808442 </v>
  </varray>
  <energy>
   <i name="e_fr_energy">   -232.71632889 </i>
   <i name="e_wo_entrp">   -232.71632889 </i>
   <i name="e_0_energy">      0.00000000 </i>
  </energy>
  <time name="totalsc">   65.07   65.34</time>
  <eigenvalues>
   <array>
    <dimension dim="1">band</dimension>
    <dimension dim="2">kpoint</dimension>
    <dimension dim="3">spin</dimension>
    <field>eigene</field>
    <field>occ</field>
    <set>
     <set comment="spin 1">
      <set comment="kpoint 1">
       <r>   -9.6071    1.0000 </r>
       <r>   -9.2141    1.0000 </r>
       <r>   -8.5752    1.0000 </r>
       <r>   -8.4551    1.0000 </r>
       <r>   -8.2130    1.0000 </r>
       <r>   -7.7393    1.0000 </r>
       <r>   -7.6435    1.0000 </r>
       <r>   -7.0320    1.0000 </r>
       <r>   -5.7626    1.0000 </r>
       <r>   -5.4213    1.0000 </r>
       <r>   -4.4032    1.0000 </r>
       <r>   -4.3758    1.0000 </r>
       <r>   -4.0311    1.0000 </r>
       <r>   -3.8917    1.0000 </r>
       <r>   -2.5186    1.0000 </r>
       <r>   -2.1708    1.0000 </r>
       <r>   -0.8896    1.0000 </r>
       <r>   -0.1932    1.0000 </r>
       <r>   -0.1209    1.0000 </r>
       <r>    0.4849    1.0000 </r>
       <r>    0.5906    1.0000 </r>
       <r>    0.9284    1.0000 </r>
       <r>    1.0766    1.0000 </r>
       <r>    1.6952    1.0000 </r>
       <r>    2.1051    1.0000 </r>
       <r>    2.1889    1.0000 </r>
       <r>    2.5231    1.0000 </r>
       <r>    2.8122    1.0000 </r>
       <r>    2.9271    1.0000 </r>
       <r>    3.0219    1.0000 </r>
       <r>    3.0840    1.0000 </r>
       <r>    3.2166    1.0000 </r>
       <r>    3.2825    1.0000 </r>
       <r>    3.6552    1.0000 </r>
       <r>    3.6809    1.0000 </r>
       <r>    3.8345    1.0000 </r>
       <r>    4.1476    1.0000 </r>
       <r>    4.3326    1.0000 </r>
       <r>    4.3921    1.0000 </r>
       <r>    4.4460    1.0000 </r>
       <r>    4.7711    1.0000 </r>
       <r>    4.9982    1.0000 </r>
       <r>    5.0355    1.0000 </r>
       <r>    5.1346    1.0000 </r>
       <r>    5.1946    1.0000 </r>
       <r>    5.2943    1.0000 </r>
       <r>    5.4452    1.0000 </r>
       <r>    5.4660    1.0000 </r>
       <r>    5.6637    1.0000 </r>
       <r>    5.8311    1.0000 </r>
       <r>    6.0362    1.0000 </r>
       <r>    6.2026    1.0000 </r>
       <r>    6.2557    1.0000 </r>
       <r>    6.2870    1.0000 </r>
       <r>    6.4980    1.0000 </r>
       <r>    6.6583    1.0000 </r>
       <r>    6.8012    1.0000 </r>
       <r>    6.8906    1.0000 </r>
       <r>    7.0233    1.0000 </r>
       <r>    7.1306    1.0000 </r>
       <r>    7.2705    1.0000 </r>
       <r>    8.2917    1.0000 </r>
       <r>    8.6493    1.0000 </r>
       <r>    8.7064    1.0000 </r>
       <r>    9.8604    0.0000 </r>
       <r>   10.1246    0.0000 </r>
       <r>   10.8616    0.0000 </r>
       <r>   11.1604    0.0000 </r>
       <r>   11.2408    0.0000 </r>
       <r>   11.5957    0.0000 </r>
       <r>   12.0776    0.0000 </r>
       <r>   12.1303    0.0000 </r>
       <r>   12.3615    0.0000 </r>
       <r>   12.7219    0.0000 </r>
       <r>   12.7783    0.0000 </r>
       <r>   13.0602    0.0000 </r>
       <r>   13.2564    0.0000 </r>
       <r>   13.4576    0.0000 </r>
       <r>   13.5199    0.0000 </r>
       <r>   13.6348    0.0000 </r>
       <r>   13.8291    0.0000 </r>
       <r>   13.9697    0.0000 </r>
       <r>   14.4361    0.0000 </r>
       <r>   14.7346    0.0000 </r>
      </set>
      <set comment="kpoint 2">
       <r>   -9.4536    1.0000 </r>
       <r>   -9.4536    1.0000 </r>
       <r>   -8.4527    1.0000 </r>
       <r>   -8.4527    1.0000 </r>
       <r>   -8.0512    1.0000 </r>
       <r>   -8.0512    1.0000 </r>
       <r>   -7.2981    1.0000 </r>
       <r>   -7.2981    1.0000 </r>
       <r>   -5.6021    1.0000 </r>
       <r>   -5.6021    1.0000 </r>
       <r>   -4.3696    1.0000 </r>
       <r>   -4.3696    1.0000 </r>
       <r>   -3.9544    1.0000 </r>
       <r>   -3.9544    1.0000 </r>
       <r>   -2.3268    1.0000 </r>
       <r>   -2.3268    1.0000 </r>
       <r>   -0.6597    1.0000 </r>
       <r>   -0.6597    1.0000 </r>
       <r>    0.1970    1.0000 </r>
       <r>    0.1970    1.0000 </r>
       <r>    0.7167    1.0000 </r>
       <r>    0.7167    1.0000 </r>
       <r>    1.5945    1.0000 </r>
       <r>    1.5945    1.0000 </r>
       <r>    2.1839    1.0000 </r>
       <r>    2.1839    1.0000 </r>
       <r>    2.5274    1.0000 </r>
       <r>    2.5274    1.0000 </r>
       <r>    2.8398    1.0000 </r>
       <r>    2.8398    1.0000 </r>
       <r>    2.9996    1.0000 </r>
       <r>    2.9996    1.0000 </r>
       <r>    3.4260    1.0000 </r>
       <r>    3.4260    1.0000 </r>
       <r>    3.9021    1.0000 </r>
       <r>    3.9021    1.0000 </r>
       <r>    4.4436    1.0000 </r>
       <r>    4.4436    1.0000 </r>
       <r>    4.6244    1.0000 </r>
       <r>    4.6244    1.0000 </r>
       <r>    4.8229    1.0000 </r>
       <r>    4.8229    1.0000 </r>
       <r>    5.1332    1.0000 </r>
       <r>    5.1332    1.0000 </r>
       <r>    5.3408    1.0000 </r>
       <r>    5.3408    1.0000 </r>
       <r>    5.3578    1.0000 </r>
       <r>    5.3578    1.0000 </r>
       <r>    5.7129    1.0000 </r>
       <r>    5.7129    1.0000 </r>
       <r>    6.2403    1.0000 </r>
       <r>    6.2403    1.0000 </r>
       <r>    6.2614    1.0000 </r>
       <r>    6.2614    1.0000 </r>
       <r>    6.4632    1.0000 </r>
       <r>    6.4632    1.0000 </r>
       <r>    6.7379    1.0000 </r>
       <r>    6.7379    1.0000 </r>
       <r>    6.9652    1.0000 </r>
       <r>    6.9652    1.0000 </r>
       <r>    7.7534    1.0000 </r>
       <r>    7.7534    1.0000 </r>
       <r>    8.6793    1.0000 </r>
       <r>    8.6793    1.0000 </r>
       <r>    9.9899    0.0000 </r>
       <r>    9.9899    0.0000 </r>
       <r>   10.7563    0.0000 </r>
       <r>   10.7563    0.0000 </r>
       <r>   11.5503    0.0000 </r>
       <r>   11.5503    0.0000 </r>
       <r>   12.2649    0.0000 </r>
       <r>   12.2651    0.0000 </r>
       <r>   12.5833    0.0000 </r>
       <r>   12.5842    0.0000 </r>
       <r>   12.9893    0.0000 </r>
       <r>   12.9901    0.0000 </r>
       <r>   13.3729    0.0000 </r>
       <r>   13.3745    0.0000 </r>
       <r>   13.6714    0.0000 </r>
       <r>   13.6874    0.0000 </r>
       <r>   13.7801    0.0000 </r>
       <r>   13.8224    0.0000 </r>
       <r>   14.7450    0.0000 </r>
       <r>   15.0294    0.0000 </r>
      </set>
      <set comment="kpoint 3">
       <r>   -9.3566    1.0000 </r>
       <r>   -8.9733    1.0000 </r>
       <r>   -8.3647    1.0000 </r>
       <r>   -8.2841    1.0000 </r>
       <r>   -8.0308    1.0000 </r>
       <r>   -7.6287    1.0000 </r>
       <r>   -7.4557    1.0000 </r>
       <r>   -6.9072    1.0000 </r>
       <r>   -5.4700    1.0000 </r>
       <r>   -5.1527    1.0000 </r>
       <r>   -4.1816    1.0000 </r>
       <r>   -4.0955    1.0000 </r>
       <r>   -3.7938    1.0000 </r>
       <r>   -3.6841    1.0000 </r>
       <r>   -2.2789    1.0000 </r>
       <r>   -1.9024    1.0000 </r>
       <r>   -0.7222    1.0000 </r>
       <r>   -0.0288    1.0000 </r>
       <r>   -0.0053    1.0000 </r>
       <r>    0.4903    1.0000 </r>
       <r>    0.8276    1.0000 </r>
       <r>    0.9939    1.0000 </r>
       <r>    1.0763    1.0000 </r>
       <r>    1.7534    1.0000 </r>
       <r>    1.7673    1.0000 </r>
       <r>    1.9585    1.0000 </r>
       <r>    2.1977    1.0000 </r>
       <r>    2.4538    1.0000 </r>
       <r>    2.5433    1.0000 </r>
       <r>    2.7251    1.0000 </r>
       <r>    2.7397    1.0000 </r>
       <r>    2.9895    1.0000 </r>
       <r>    3.0972    1.0000 </r>
       <r>    3.1642    1.0000 </r>
       <r>    3.2922    1.0000 </r>
       <r>    3.4597    1.0000 </r>
       <r>    3.5762    1.0000 </r>
       <r>    3.5935    1.0000 </r>
       <r>    3.7191    1.0000 </r>
       <r>    3.9953    1.0000 </r>
       <r>    4.4151    1.0000 </r>
       <r>    4.4158    1.0000 </r>
       <r>    4.6956    1.0000 </r>
       <r>    4.7017    1.0000 </r>
       <r>    4.8700    1.0000 </r>
       <r>    4.9749    1.0000 </r>
       <r>    5.1276    1.0000 </r>
       <r>    5.1934    1.0000 </r>
       <r>    5.3176    1.0000 </r>
       <r>    5.3212    1.0000 </r>
       <r>    5.4995    1.0000 </r>
       <r>    5.6091    1.0000 </r>
       <r>    5.7856    1.0000 </r>
       <r>    5.8785    1.0000 </r>
       <r>    6.0607    1.0000 </r>
       <r>    6.2416    1.0000 </r>
       <r>    6.3072    1.0000 </r>
       <r>    6.8220    1.0000 </r>
       <r>    6.9697    1.0000 </r>
       <r>    7.1312    1.0000 </r>
       <r>    7.1527    1.0000 </r>
       <r>    7.4220    1.0000 </r>
       <r>    7.5882    1.0000 </r>
       <r>    8.4287    1.0000 </r>
       <r>   10.6842    0.0000 </r>
       <r>   10.8977    0.0000 </r>
       <r>   11.7861    0.0000 </r>
       <r>   11.9343    0.0000 </r>
       <r>   12.1706    0.0000 </r>
       <r>   12.2544    0.0000 </r>
       <r>   12.6526    0.0000 </r>
       <r>   12.8420    0.0000 </r>
       <r>   13.1382    0.0000 </r>
       <r>   13.2825    0.0000 </r>
       <r>   13.3552    0.0000 </r>
       <r>   13.5546    0.0000 </r>
       <r>   13.5661    0.0000 </r>
       <r>   13.5969    0.0000 </r>
       <r>   13.7999    0.0000 </r>
       <r>   14.0855    0.0000 </r>
       <r>   14.1787    0.0000 </r>
       <r>   14.3577    0.0000 </r>
       <r>   14.5010    0.0000 </r>
       <r>   14.6036    0.0000 </r>
      </set>
      <set comment="kpoint 4">
       <r>   -9.2079    1.0000 </r>
       <r>   -9.2079    1.0000 </r>
       <r>   -8.2480    1.0000 </r>
       <r>   -8.2480    1.0000 </r>
       <r>   -7.9103    1.0000 </r>
       <r>   -7.9103    1.0000 </r>
       <r>   -7.1455    1.0000 </r>
       <r>   -7.1455    1.0000 </r>
       <r>   -5.3210    1.0000 </r>
       <r>   -5.3210    1.0000 </r>
       <r>   -4.1187    1.0000 </r>
       <r>   -4.1187    1.0000 </r>
       <r>   -3.7424    1.0000 </r>
       <r>   -3.7424    1.0000 </r>
       <r>   -2.0797    1.0000 </r>
       <r>   -2.0797    1.0000 </r>
       <r>   -0.4825    1.0000 </r>
       <r>   -0.4825    1.0000 </r>
       <r>    0.3272    1.0000 </r>
       <r>    0.3272    1.0000 </r>
       <r>    0.9041    1.0000 </r>
       <r>    0.9041    1.0000 </r>
       <r>    1.5746    1.0000 </r>
       <r>    1.5746    1.0000 </r>
       <r>    1.7082    1.0000 </r>
       <r>    1.7082    1.0000 </r>
       <r>    2.2614    1.0000 </r>
       <r>    2.2614    1.0000 </r>
       <r>    2.4477    1.0000 </r>
       <r>    2.4477    1.0000 </r>
       <r>    2.8157    1.0000 </r>
       <r>    2.8157    1.0000 </r>
       <r>    3.1193    1.0000 </r>
       <r>    3.1193    1.0000 </r>
       <r>    3.3551    1.0000 </r>
       <r>    3.3551    1.0000 </r>
       <r>    3.8775    1.0000 </r>
       <r>    3.8775    1.0000 </r>
       <r>    4.1183    1.0000 </r>
       <r>    4.1183    1.0000 </r>
       <r>    4.3629    1.0000 </r>
       <r>    4.3629    1.0000 </r>
       <r>    4.7742    1.0000 </r>
       <r>    4.7742    1.0000 </r>
       <r>    4.9492    1.0000 </r>
       <r>    4.9492    1.0000 </r>
       <r>    5.0865    1.0000 </r>
       <r>    5.0865    1.0000 </r>
       <r>    5.2817    1.0000 </r>
       <r>    5.2817    1.0000 </r>
       <r>    5.5461    1.0000 </r>
       <r>    5.5461    1.0000 </r>
       <r>    5.7781    1.0000 </r>
       <r>    5.7781    1.0000 </r>
       <r>    6.1441    1.0000 </r>
       <r>    6.1441    1.0000 </r>
       <r>    6.5840    1.0000 </r>
       <r>    6.5840    1.0000 </r>
       <r>    6.8249    1.0000 </r>
       <r>    6.8249    1.0000 </r>
       <r>    7.3972    1.0000 </r>
       <r>    7.3972    1.0000 </r>
       <r>    7.9160    1.0000 </r>
       <r>    7.9160    1.0000 </r>
       <r>   10.8142    0.0000 </r>
       <r>   10.8142    0.0000 </r>
       <r>   11.9387    0.0000 </r>
       <r>   11.9388    0.0000 </r>
       <r>   12.3198    0.0000 </r>
       <r>   12.3199    0.0000 </r>
       <r>   12.6386    0.0000 </r>
       <r>   12.6391    0.0000 </r>
       <r>   13.1606    0.0000 </r>
       <r>   13.1619    0.0000 </r>
       <r>   13.5104    0.0000 </r>
       <r>   13.5162    0.0000 </r>
       <r>   13.8050    0.0000 </r>
       <r>   13.8322    0.0000 </r>
       <r>   13.8437    0.0000 </r>
       <r>   13.8737    0.0000 </r>
       <r>   14.2492    0.0000 </r>
       <r>   14.3208    0.0000 </r>
       <r>   14.5257    0.0000 </r>
       <r>   14.6846    0.0000 </r>
      </set>
      <set comment="kpoint 5">
       <r>   -8.7080    1.0000 </r>
       <r>   -8.3555    1.0000 </r>
       <r>   -7.9502    1.0000 </r>
       <r>   -7.8549    1.0000 </r>
       <r>   -7.6278    1.0000 </r>
       <r>   -7.4603    1.0000 </r>
       <r>   -7.0073    1.0000 </r>
       <r>   -6.6650    1.0000 </r>
       <r>   -4.7078    1.0000 </r>
       <r>   -4.4013    1.0000 </r>
       <r>   -3.8716    1.0000 </r>
       <r>   -3.4322    1.0000 </r>
       <r>   -3.1839    1.0000 </r>
       <r>   -3.0779    1.0000 </r>
       <r>   -1.6794    1.0000 </r>
       <r>   -1.2661    1.0000 </r>
       <r>   -1.0144    1.0000 </r>
       <r>   -0.4092    1.0000 </r>
       <r>   -0.3387    1.0000 </r>
       <r>   -0.0350    1.0000 </r>
       <r>    0.5113    1.0000 </r>
       <r>    0.9217    1.0000 </r>
       <r>    1.0274    1.0000 </r>
       <r>    1.1272    1.0000 </r>
       <r>    1.2162    1.0000 </r>
       <r>    1.3371    1.0000 </r>
       <r>    1.5139    1.0000 </r>
       <r>    1.7221    1.0000 </r>
       <r>    1.9804    1.0000 </r>
       <r>    1.9959    1.0000 </r>
       <r>    2.2138    1.0000 </r>
       <r>    2.2414    1.0000 </r>
       <r>    2.3410    1.0000 </r>
       <r>    2.6555    1.0000 </r>
       <r>    2.7329    1.0000 </r>
       <r>    2.9286    1.0000 </r>
       <r>    3.1112    1.0000 </r>
       <r>    3.1781    1.0000 </r>
       <r>    3.2963    1.0000 </r>
       <r>    3.5489    1.0000 </r>
       <r>    3.6921    1.0000 </r>
       <r>    3.6926    1.0000 </r>
       <r>    3.8603    1.0000 </r>
       <r>    4.1025    1.0000 </r>
       <r>    4.2338    1.0000 </r>
       <r>    4.2526    1.0000 </r>
       <r>    4.6976    1.0000 </r>
       <r>    4.8829    1.0000 </r>
       <r>    4.9798    1.0000 </r>
       <r>    5.1662    1.0000 </r>
       <r>    5.3300    1.0000 </r>
       <r>    5.3400    1.0000 </r>
       <r>    5.4227    1.0000 </r>
       <r>    5.5606    1.0000 </r>
       <r>    5.7740    1.0000 </r>
       <r>    5.8193    1.0000 </r>
       <r>    5.8244    1.0000 </r>
       <r>    6.1171    1.0000 </r>
       <r>    6.5586    1.0000 </r>
       <r>    6.6660    1.0000 </r>
       <r>    6.8905    1.0000 </r>
       <r>    7.0317    1.0000 </r>
       <r>    7.1184    1.0000 </r>
       <r>    8.1647    1.0000 </r>
       <r>   10.5304    0.0000 </r>
       <r>   10.8410    0.0000 </r>
       <r>   11.3871    0.0000 </r>
       <r>   11.7024    0.0000 </r>
       <r>   11.7221    0.0000 </r>
       <r>   11.9254    0.0000 </r>
       <r>   12.2500    0.0000 </r>
       <r>   12.4400    0.0000 </r>
       <r>   12.4800    0.0000 </r>
       <r>   12.7667    0.0000 </r>
       <r>   13.0093    0.0000 </r>
       <r>   13.0868    0.0000 </r>
       <r>   13.1346    0.0000 </r>
       <r>   13.3307    0.0000 </r>
       <r>   13.4829    0.0000 </r>
       <r>   13.6443    0.0000 </r>
       <r>   13.7014    0.0000 </r>
       <r>   13.9931    0.0000 </r>
       <r>   14.0865    0.0000 </r>
       <r>   14.3010    0.0000 </r>
      </set>
      <set comment="kpoint 6">
       <r>   -8.5779    1.0000 </r>
       <r>   -8.5779    1.0000 </r>
       <r>   -7.7674    1.0000 </r>
       <r>   -7.7674    1.0000 </r>
       <r>   -7.6552    1.0000 </r>
       <r>   -7.6552    1.0000 </r>
       <r>   -6.8168    1.0000 </r>
       <r>   -6.8168    1.0000 </r>
       <r>   -4.5781    1.0000 </r>
       <r>   -4.5781    1.0000 </r>
       <r>   -3.6289    1.0000 </r>
       <r>   -3.6289    1.0000 </r>
       <r>   -3.1494    1.0000 </r>
       <r>   -3.1494    1.0000 </r>
       <r>   -1.5044    1.0000 </r>
       <r>   -1.5044    1.0000 </r>
       <r>   -0.6785    1.0000 </r>
       <r>   -0.6785    1.0000 </r>
       <r>   -0.1226    1.0000 </r>
       <r>   -0.1226    1.0000 </r>
       <r>    0.7810    1.0000 </r>
       <r>    0.7810    1.0000 </r>
       <r>    0.8852    1.0000 </r>
       <r>    0.8852    1.0000 </r>
       <r>    1.3208    1.0000 </r>
       <r>    1.3208    1.0000 </r>
       <r>    1.6305    1.0000 </r>
       <r>    1.6305    1.0000 </r>
       <r>    1.8731    1.0000 </r>
       <r>    1.8731    1.0000 </r>
       <r>    2.2648    1.0000 </r>
       <r>    2.2648    1.0000 </r>
       <r>    2.5898    1.0000 </r>
       <r>    2.5898    1.0000 </r>
       <r>    2.8367    1.0000 </r>
       <r>    2.8367    1.0000 </r>
       <r>    3.0246    1.0000 </r>
       <r>    3.0246    1.0000 </r>
       <r>    3.4672    1.0000 </r>
       <r>    3.4672    1.0000 </r>
       <r>    3.5836    1.0000 </r>
       <r>    3.5836    1.0000 </r>
       <r>    4.1588    1.0000 </r>
       <r>    4.1588    1.0000 </r>
       <r>    4.5899    1.0000 </r>
       <r>    4.5899    1.0000 </r>
       <r>    4.7622    1.0000 </r>
       <r>    4.7622    1.0000 </r>
       <r>    4.8517    1.0000 </r>
       <r>    4.8517    1.0000 </r>
       <r>    5.2634    1.0000 </r>
       <r>    5.2634    1.0000 </r>
       <r>    5.4467    1.0000 </r>
       <r>    5.4467    1.0000 </r>
       <r>    5.8244    1.0000 </r>
       <r>    5.8244    1.0000 </r>
       <r>    6.1458    1.0000 </r>
       <r>    6.1458    1.0000 </r>
       <r>    6.3395    1.0000 </r>
       <r>    6.3395    1.0000 </r>
       <r>    6.8600    1.0000 </r>
       <r>    6.8600    1.0000 </r>
       <r>    7.7563    1.0000 </r>
       <r>    7.7563    1.0000 </r>
       <r>   11.0820    0.0000 </r>
       <r>   11.0820    0.0000 </r>
       <r>   11.4522    0.0000 </r>
       <r>   11.4522    0.0000 </r>
       <r>   11.7855    0.0000 </r>
       <r>   11.7856    0.0000 </r>
       <r>   12.2709    0.0000 </r>
       <r>   12.2710    0.0000 </r>
       <r>   12.5397    0.0000 </r>
       <r>   12.5399    0.0000 </r>
       <r>   12.8638    0.0000 </r>
       <r>   12.8668    0.0000 </r>
       <r>   13.3299    0.0000 </r>
       <r>   13.3421    0.0000 </r>
       <r>   13.5874    0.0000 </r>
       <r>   13.6504    0.0000 </r>
       <r>   13.9362    0.0000 </r>
       <r>   13.9798    0.0000 </r>
       <r>   14.2631    0.0000 </r>
       <r>   14.6493    0.0000 </r>
      </set>
      <set comment="kpoint 7">
       <r>   -8.0743    1.0000 </r>
       <r>   -8.0743    1.0000 </r>
       <r>   -7.6464    1.0000 </r>
       <r>   -7.6464    1.0000 </r>
       <r>   -7.4663    1.0000 </r>
       <r>   -7.4663    1.0000 </r>
       <r>   -6.6441    1.0000 </r>
       <r>   -6.6441    1.0000 </r>
       <r>   -4.0476    1.0000 </r>
       <r>   -4.0476    1.0000 </r>
       <r>   -3.4396    1.0000 </r>
       <r>   -3.4396    1.0000 </r>
       <r>   -2.6090    1.0000 </r>
       <r>   -2.6090    1.0000 </r>
       <r>   -1.5093    1.0000 </r>
       <r>   -1.5093    1.0000 </r>
       <r>   -0.9271    1.0000 </r>
       <r>   -0.9271    1.0000 </r>
       <r>   -0.3340    1.0000 </r>
       <r>   -0.3340    1.0000 </r>
       <r>   -0.1575    1.0000 </r>
       <r>   -0.1575    1.0000 </r>
       <r>    0.4593    1.0000 </r>
       <r>    0.4593    1.0000 </r>
       <r>    0.9506    1.0000 </r>
       <r>    0.9506    1.0000 </r>
       <r>    1.5180    1.0000 </r>
       <r>    1.5180    1.0000 </r>
       <r>    1.8744    1.0000 </r>
       <r>    1.8744    1.0000 </r>
       <r>    1.9496    1.0000 </r>
       <r>    1.9496    1.0000 </r>
       <r>    2.6361    1.0000 </r>
       <r>    2.6361    1.0000 </r>
       <r>    2.7176    1.0000 </r>
       <r>    2.7176    1.0000 </r>
       <r>    3.0131    1.0000 </r>
       <r>    3.0131    1.0000 </r>
       <r>    3.2731    1.0000 </r>
       <r>    3.2731    1.0000 </r>
       <r>    3.3302    1.0000 </r>
       <r>    3.3302    1.0000 </r>
       <r>    3.9157    1.0000 </r>
       <r>    3.9157    1.0000 </r>
       <r>    4.3660    1.0000 </r>
       <r>    4.3660    1.0000 </r>
       <r>    4.4903    1.0000 </r>
       <r>    4.4903    1.0000 </r>
       <r>    4.7752    1.0000 </r>
       <r>    4.7752    1.0000 </r>
       <r>    4.9778    1.0000 </r>
       <r>    4.9778    1.0000 </r>
       <r>    5.2352    1.0000 </r>
       <r>    5.2352    1.0000 </r>
       <r>    5.7163    1.0000 </r>
       <r>    5.7163    1.0000 </r>
       <r>    6.2177    1.0000 </r>
       <r>    6.2177    1.0000 </r>
       <r>    6.2936    1.0000 </r>
       <r>    6.2936    1.0000 </r>
       <r>    7.0101    1.0000 </r>
       <r>    7.0101    1.0000 </r>
       <r>    7.5546    1.0000 </r>
       <r>    7.5546    1.0000 </r>
       <r>   10.4300    0.0000 </r>
       <r>   10.4300    0.0000 </r>
       <r>   11.0647    0.0000 </r>
       <r>   11.0647    0.0000 </r>
       <r>   11.3512    0.0000 </r>
       <r>   11.3512    0.0000 </r>
       <r>   11.7315    0.0000 </r>
       <r>   11.7316    0.0000 </r>
       <r>   12.0249    0.0000 </r>
       <r>   12.0250    0.0000 </r>
       <r>   12.5132    0.0000 </r>
       <r>   12.5148    0.0000 </r>
       <r>   12.6816    0.0000 </r>
       <r>   12.6819    0.0000 </r>
       <r>   13.3163    0.0000 </r>
       <r>   13.3229    0.0000 </r>
       <r>   14.1063    0.0000 </r>
       <r>   14.2023    0.0000 </r>
       <r>   14.4493    0.0000 </r>
       <r>   14.5668    0.0000 </r>
      </set>
      <set comment="kpoint 8">
       <r>   -8.0736    1.0000 </r>
       <r>   -8.0736    1.0000 </r>
       <r>   -7.6475    1.0000 </r>
       <r>   -7.6475    1.0000 </r>
       <r>   -7.4663    1.0000 </r>
       <r>   -7.4663    1.0000 </r>
       <r>   -6.6446    1.0000 </r>
       <r>   -6.6446    1.0000 </r>
       <r>   -4.0361    1.0000 </r>
       <r>   -4.0361    1.0000 </r>
       <r>   -3.4523    1.0000 </r>
       <r>   -3.4523    1.0000 </r>
       <r>   -2.6047    1.0000 </r>
       <r>   -2.6047    1.0000 </r>
       <r>   -1.4681    1.0000 </r>
       <r>   -1.4681    1.0000 </r>
       <r>   -0.9971    1.0000 </r>
       <r>   -0.9971    1.0000 </r>
       <r>   -0.4851    1.0000 </r>
       <r>   -0.4851    1.0000 </r>
       <r>    0.0180    1.0000 </r>
       <r>    0.0180    1.0000 </r>
       <r>    0.4263    1.0000 </r>
       <r>    0.4263    1.0000 </r>
       <r>    1.1314    1.0000 </r>
       <r>    1.1314    1.0000 </r>
       <r>    1.4698    1.0000 </r>
       <r>    1.4698    1.0000 </r>
       <r>    1.7513    1.0000 </r>
       <r>    1.7513    1.0000 </r>
       <r>    2.0046    1.0000 </r>
       <r>    2.0046    1.0000 </r>
       <r>    2.5062    1.0000 </r>
       <r>    2.5062    1.0000 </r>
       <r>    2.8825    1.0000 </r>
       <r>    2.8825    1.0000 </r>
       <r>    2.9922    1.0000 </r>
       <r>    2.9922    1.0000 </r>
       <r>    3.1851    1.0000 </r>
       <r>    3.1851    1.0000 </r>
       <r>    3.3303    1.0000 </r>
       <r>    3.3303    1.0000 </r>
       <r>    4.0532    1.0000 </r>
       <r>    4.0532    1.0000 </r>
       <r>    4.3130    1.0000 </r>
       <r>    4.3130    1.0000 </r>
       <r>    4.5104    1.0000 </r>
       <r>    4.5104    1.0000 </r>
       <r>    4.6468    1.0000 </r>
       <r>    4.6468    1.0000 </r>
       <r>    4.9330    1.0000 </r>
       <r>    4.9330    1.0000 </r>
       <r>    5.3234    1.0000 </r>
       <r>    5.3234    1.0000 </r>
       <r>    5.7963    1.0000 </r>
       <r>    5.7963    1.0000 </r>
       <r>    6.1054    1.0000 </r>
       <r>    6.1054    1.0000 </r>
       <r>    6.3338    1.0000 </r>
       <r>    6.3338    1.0000 </r>
       <r>    7.0163    1.0000 </r>
       <r>    7.0163    1.0000 </r>
       <r>    7.5045    1.0000 </r>
       <r>    7.5045    1.0000 </r>
       <r>   10.5474    0.0000 </r>
       <r>   10.5474    0.0000 </r>
       <r>   10.7802    0.0000 </r>
       <r>   10.7802    0.0000 </r>
       <r>   11.7173    0.0000 </r>
       <r>   11.7173    0.0000 </r>
       <r>   11.9937    0.0000 </r>
       <r>   11.9938    0.0000 </r>
       <r>   12.2665    0.0000 </r>
       <r>   12.2667    0.0000 </r>
       <r>   12.4647    0.0000 </r>
       <r>   12.4650    0.0000 </r>
       <r>   12.8915    0.0000 </r>
       <r>   12.8930    0.0000 </r>
       <r>   13.3326    0.0000 </r>
       <r>   13.3433    0.0000 </r>
       <r>   13.5494    0.0000 </r>
       <r>   13.5627    0.0000 </r>
       <r>   13.9303    0.0000 </r>
       <r>   13.9580    0.0000 </r>
      </set>
      <set comment="kpoint 9">
       <r>   -9.5981    1.0000 </r>
       <r>   -9.2188    1.0000 </r>
       <r>   -8.6011    1.0000 </r>
       <r>   -8.4818    1.0000 </r>
       <r>   -8.1655    1.0000 </r>
       <r>   -7.7418    1.0000 </r>
       <r>   -7.6388    1.0000 </r>
       <r>   -7.0317    1.0000 </r>
       <r>   -5.6274    1.0000 </r>
       <r>   -5.5052    1.0000 </r>
       <r>   -4.4454    1.0000 </r>
       <r>   -4.3933    1.0000 </r>
       <r>   -4.2151    1.0000 </r>
       <r>   -3.7585    1.0000 </r>
       <r>   -2.4953    1.0000 </r>
       <r>   -2.2647    1.0000 </r>
       <r>   -0.5961    1.0000 </r>
       <r>   -0.2071    1.0000 </r>
       <r>    0.1713    1.0000 </r>
       <r>    0.6289    1.0000 </r>
       <r>    0.6709    1.0000 </r>
       <r>    0.9759    1.0000 </r>
       <r>    1.0447    1.0000 </r>
       <r>    1.5663    1.0000 </r>
       <r>    1.7689    1.0000 </r>
       <r>    1.7712    1.0000 </r>
       <r>    1.8463    1.0000 </r>
       <r>    2.5012    1.0000 </r>
       <r>    2.6351    1.0000 </r>
       <r>    2.9299    1.0000 </r>
       <r>    3.0830    1.0000 </r>
       <r>    3.0902    1.0000 </r>
       <r>    3.4179    1.0000 </r>
       <r>    3.9185    1.0000 </r>
       <r>    4.1195    1.0000 </r>
       <r>    4.3841    1.0000 </r>
       <r>    4.4154    1.0000 </r>
       <r>    4.6718    1.0000 </r>
       <r>    4.7984    1.0000 </r>
       <r>    4.8484    1.0000 </r>
       <r>    4.8575    1.0000 </r>
       <r>    4.9395    1.0000 </r>
       <r>    5.1289    1.0000 </r>
       <r>    5.1828    1.0000 </r>
       <r>    5.2752    1.0000 </r>
       <r>    5.4721    1.0000 </r>
       <r>    5.5436    1.0000 </r>
       <r>    5.7071    1.0000 </r>
       <r>    5.7144    1.0000 </r>
       <r>    5.7313    1.0000 </r>
       <r>    5.7346    1.0000 </r>
       <r>    5.8521    1.0000 </r>
       <r>    6.1556    1.0000 </r>
       <r>    6.2215    1.0000 </r>
       <r>    6.2435    1.0000 </r>
       <r>    6.4867    1.0000 </r>
       <r>    6.6247    1.0000 </r>
       <r>    6.6864    1.0000 </r>
       <r>    6.8174    1.0000 </r>
       <r>    6.8217    1.0000 </r>
       <r>    7.1478    1.0000 </r>
       <r>    8.3310    1.0000 </r>
       <r>    8.6493    1.0000 </r>
       <r>    8.7011    1.0000 </r>
       <r>    9.9449    0.0000 </r>
       <r>   10.1362    0.0000 </r>
       <r>   10.9923    0.0000 </r>
       <r>   11.0981    0.0000 </r>
       <r>   11.1648    0.0000 </r>
       <r>   11.6436    0.0000 </r>
       <r>   11.7844    0.0000 </r>
       <r>   12.0145    0.0000 </r>
       <r>   12.3746    0.0000 </r>
       <r>   12.9790    0.0000 </r>
       <r>   13.0919    0.0000 </r>
       <r>   13.3114    0.0000 </r>
       <r>   13.5844    0.0000 </r>
       <r>   13.7663    0.0000 </r>
       <r>   13.9159    0.0000 </r>
       <r>   13.9274    0.0000 </r>
       <r>   14.0719    0.0000 </r>
       <r>   14.1525    0.0000 </r>
       <r>   14.3356    0.0000 </r>
       <r>   14.4267    0.0000 </r>
      </set>
      <set comment="kpoint 10">
       <r>   -9.4527    1.0000 </r>
       <r>   -9.4527    1.0000 </r>
       <r>   -8.4518    1.0000 </r>
       <r>   -8.4518    1.0000 </r>
       <r>   -8.0586    1.0000 </r>
       <r>   -8.0586    1.0000 </r>
       <r>   -7.2941    1.0000 </r>
       <r>   -7.2941    1.0000 </r>
       <r>   -5.5868    1.0000 </r>
       <r>   -5.5868    1.0000 </r>
       <r>   -4.3548    1.0000 </r>
       <r>   -4.3548    1.0000 </r>
       <r>   -3.9887    1.0000 </r>
       <r>   -3.9887    1.0000 </r>
       <r>   -2.3772    1.0000 </r>
       <r>   -2.3772    1.0000 </r>
       <r>   -0.6274    1.0000 </r>
       <r>   -0.6274    1.0000 </r>
       <r>    0.3270    1.0000 </r>
       <r>    0.3270    1.0000 </r>
       <r>    0.9401    1.0000 </r>
       <r>    0.9401    1.0000 </r>
       <r>    1.5077    1.0000 </r>
       <r>    1.5077    1.0000 </r>
       <r>    1.8998    1.0000 </r>
       <r>    1.8998    1.0000 </r>
       <r>    2.3130    1.0000 </r>
       <r>    2.3130    1.0000 </r>
       <r>    2.6976    1.0000 </r>
       <r>    2.6976    1.0000 </r>
       <r>    2.9998    1.0000 </r>
       <r>    2.9998    1.0000 </r>
       <r>    3.4742    1.0000 </r>
       <r>    3.4742    1.0000 </r>
       <r>    4.1612    1.0000 </r>
       <r>    4.1612    1.0000 </r>
       <r>    4.4581    1.0000 </r>
       <r>    4.4581    1.0000 </r>
       <r>    4.7856    1.0000 </r>
       <r>    4.7856    1.0000 </r>
       <r>    4.9270    1.0000 </r>
       <r>    4.9270    1.0000 </r>
       <r>    5.2568    1.0000 </r>
       <r>    5.2568    1.0000 </r>
       <r>    5.3812    1.0000 </r>
       <r>    5.3812    1.0000 </r>
       <r>    5.5187    1.0000 </r>
       <r>    5.5187    1.0000 </r>
       <r>    5.7250    1.0000 </r>
       <r>    5.7250    1.0000 </r>
       <r>    5.8804    1.0000 </r>
       <r>    5.8804    1.0000 </r>
       <r>    6.2064    1.0000 </r>
       <r>    6.2064    1.0000 </r>
       <r>    6.2344    1.0000 </r>
       <r>    6.2344    1.0000 </r>
       <r>    6.7313    1.0000 </r>
       <r>    6.7313    1.0000 </r>
       <r>    7.0203    1.0000 </r>
       <r>    7.0203    1.0000 </r>
       <r>    7.7567    1.0000 </r>
       <r>    7.7567    1.0000 </r>
       <r>    8.6748    1.0000 </r>
       <r>    8.6748    1.0000 </r>
       <r>   10.0844    0.0000 </r>
       <r>   10.0844    0.0000 </r>
       <r>   10.8441    0.0000 </r>
       <r>   10.8441    0.0000 </r>
       <r>   11.5332    0.0000 </r>
       <r>   11.5332    0.0000 </r>
       <r>   12.0095    0.0000 </r>
       <r>   12.0097    0.0000 </r>
       <r>   12.6720    0.0000 </r>
       <r>   12.6753    0.0000 </r>
       <r>   12.9546    0.0000 </r>
       <r>   12.9575    0.0000 </r>
       <r>   13.4847    0.0000 </r>
       <r>   13.5153    0.0000 </r>
       <r>   13.8208    0.0000 </r>
       <r>   13.8301    0.0000 </r>
       <r>   14.0496    0.0000 </r>
       <r>   14.2120    0.0000 </r>
       <r>   14.6287    0.0000 </r>
       <r>   14.9596    0.0000 </r>
      </set>
      <set comment="kpoint 11">
       <r>   -9.3487    1.0000 </r>
       <r>   -8.9774    1.0000 </r>
       <r>   -8.3862    1.0000 </r>
       <r>   -8.3048    1.0000 </r>
       <r>   -7.9939    1.0000 </r>
       <r>   -7.6307    1.0000 </r>
       <r>   -7.4518    1.0000 </r>
       <r>   -6.9071    1.0000 </r>
       <r>   -5.3575    1.0000 </r>
       <r>   -5.2183    1.0000 </r>
       <r>   -4.2255    1.0000 </r>
       <r>   -4.1009    1.0000 </r>
       <r>   -3.9550    1.0000 </r>
       <r>   -3.5703    1.0000 </r>
       <r>   -2.2604    1.0000 </r>
       <r>   -1.9850    1.0000 </r>
       <r>   -0.4958    1.0000 </r>
       <r>   -0.0466    1.0000 </r>
       <r>    0.1785    1.0000 </r>
       <r>    0.6166    1.0000 </r>
       <r>    0.8033    1.0000 </r>
       <r>    1.0839    1.0000 </r>
       <r>    1.1941    1.0000 </r>
       <r>    1.7386    1.0000 </r>
       <r>    1.7783    1.0000 </r>
       <r>    1.7866    1.0000 </r>
       <r>    1.9299    1.0000 </r>
       <r>    2.0302    1.0000 </r>
       <r>    2.0469    1.0000 </r>
       <r>    2.4603    1.0000 </r>
       <r>    2.6291    1.0000 </r>
       <r>    2.8262    1.0000 </r>
       <r>    3.0081    1.0000 </r>
       <r>    3.4266    1.0000 </r>
       <r>    3.5378    1.0000 </r>
       <r>    3.7863    1.0000 </r>
       <r>    3.8445    1.0000 </r>
       <r>    3.8665    1.0000 </r>
       <r>    3.9237    1.0000 </r>
       <r>    4.0880    1.0000 </r>
       <r>    4.4896    1.0000 </r>
       <r>    4.5551    1.0000 </r>
       <r>    4.5952    1.0000 </r>
       <r>    4.7185    1.0000 </r>
       <r>    4.8836    1.0000 </r>
       <r>    4.9302    1.0000 </r>
       <r>    5.0065    1.0000 </r>
       <r>    5.2114    1.0000 </r>
       <r>    5.2948    1.0000 </r>
       <r>    5.3213    1.0000 </r>
       <r>    5.4172    1.0000 </r>
       <r>    5.7861    1.0000 </r>
       <r>    5.8156    1.0000 </r>
       <r>    5.8983    1.0000 </r>
       <r>    6.0072    1.0000 </r>
       <r>    6.2283    1.0000 </r>
       <r>    6.2760    1.0000 </r>
       <r>    6.7826    1.0000 </r>
       <r>    6.8651    1.0000 </r>
       <r>    6.9671    1.0000 </r>
       <r>    7.1547    1.0000 </r>
       <r>    7.4280    1.0000 </r>
       <r>    7.5859    1.0000 </r>
       <r>    8.4355    1.0000 </r>
       <r>   10.7324    0.0000 </r>
       <r>   10.9862    0.0000 </r>
       <r>   11.7485    0.0000 </r>
       <r>   11.8827    0.0000 </r>
       <r>   12.0021    0.0000 </r>
       <r>   12.0893    0.0000 </r>
       <r>   12.7423    0.0000 </r>
       <r>   12.8168    0.0000 </r>
       <r>   12.8795    0.0000 </r>
       <r>   13.1941    0.0000 </r>
       <r>   13.2603    0.0000 </r>
       <r>   13.4142    0.0000 </r>
       <r>   13.4998    0.0000 </r>
       <r>   13.7800    0.0000 </r>
       <r>   13.9153    0.0000 </r>
       <r>   14.0142    0.0000 </r>
       <r>   14.0987    0.0000 </r>
       <r>   14.3564    0.0000 </r>
       <r>   14.6541    0.0000 </r>
       <r>   14.8500    0.0000 </r>
      </set>
      <set comment="kpoint 12">
       <r>   -9.2071    1.0000 </r>
       <r>   -9.2071    1.0000 </r>
       <r>   -8.2472    1.0000 </r>
       <r>   -8.2472    1.0000 </r>
       <r>   -7.9158    1.0000 </r>
       <r>   -7.9158    1.0000 </r>
       <r>   -7.1429    1.0000 </r>
       <r>   -7.1429    1.0000 </r>
       <r>   -5.3096    1.0000 </r>
       <r>   -5.3096    1.0000 </r>
       <r>   -4.1108    1.0000 </r>
       <r>   -4.1108    1.0000 </r>
       <r>   -3.7614    1.0000 </r>
       <r>   -3.7614    1.0000 </r>
       <r>   -2.1143    1.0000 </r>
       <r>   -2.1143    1.0000 </r>
       <r>   -0.4702    1.0000 </r>
       <r>   -0.4702    1.0000 </r>
       <r>    0.3453    1.0000 </r>
       <r>    0.3453    1.0000 </r>
       <r>    1.0956    1.0000 </r>
       <r>    1.0956    1.0000 </r>
       <r>    1.4762    1.0000 </r>
       <r>    1.4762    1.0000 </r>
       <r>    1.7476    1.0000 </r>
       <r>    1.7476    1.0000 </r>
       <r>    2.0515    1.0000 </r>
       <r>    2.0515    1.0000 </r>
       <r>    2.4705    1.0000 </r>
       <r>    2.4705    1.0000 </r>
       <r>    2.8175    1.0000 </r>
       <r>    2.8175    1.0000 </r>
       <r>    3.2548    1.0000 </r>
       <r>    3.2548    1.0000 </r>
       <r>    3.5407    1.0000 </r>
       <r>    3.5407    1.0000 </r>
       <r>    3.7142    1.0000 </r>
       <r>    3.7142    1.0000 </r>
       <r>    4.0490    1.0000 </r>
       <r>    4.0490    1.0000 </r>
       <r>    4.3904    1.0000 </r>
       <r>    4.3904    1.0000 </r>
       <r>    4.4688    1.0000 </r>
       <r>    4.4688    1.0000 </r>
       <r>    4.9071    1.0000 </r>
       <r>    4.9071    1.0000 </r>
       <r>    4.9848    1.0000 </r>
       <r>    4.9848    1.0000 </r>
       <r>    5.2997    1.0000 </r>
       <r>    5.2997    1.0000 </r>
       <r>    5.6867    1.0000 </r>
       <r>    5.6867    1.0000 </r>
       <r>    5.9320    1.0000 </r>
       <r>    5.9320    1.0000 </r>
       <r>    6.1651    1.0000 </r>
       <r>    6.1651    1.0000 </r>
       <r>    6.5162    1.0000 </r>
       <r>    6.5162    1.0000 </r>
       <r>    6.9983    1.0000 </r>
       <r>    6.9983    1.0000 </r>
       <r>    7.4715    1.0000 </r>
       <r>    7.4715    1.0000 </r>
       <r>    7.9345    1.0000 </r>
       <r>    7.9345    1.0000 </r>
       <r>   10.9504    0.0000 </r>
       <r>   10.9505    0.0000 </r>
       <r>   11.9092    0.0000 </r>
       <r>   11.9093    0.0000 </r>
       <r>   11.9472    0.0000 </r>
       <r>   11.9473    0.0000 </r>
       <r>   12.7480    0.0000 </r>
       <r>   12.7486    0.0000 </r>
       <r>   12.9155    0.0000 </r>
       <r>   12.9173    0.0000 </r>
       <r>   13.2229    0.0000 </r>
       <r>   13.2237    0.0000 </r>
       <r>   13.5904    0.0000 </r>
       <r>   13.6107    0.0000 </r>
       <r>   13.9122    0.0000 </r>
       <r>   13.9391    0.0000 </r>
       <r>   13.9774    0.0000 </r>
       <r>   14.0585    0.0000 </r>
       <r>   14.5636    0.0000 </r>
       <r>   14.8234    0.0000 </r>
      </set>
      <set comment="kpoint 13">
       <r>   -8.7033    1.0000 </r>
       <r>   -8.3578    1.0000 </r>
       <r>   -7.9571    1.0000 </r>
       <r>   -7.8650    1.0000 </r>
       <r>   -7.6145    1.0000 </r>
       <r>   -7.4615    1.0000 </r>
       <r>   -7.0058    1.0000 </r>
       <r>   -6.6651    1.0000 </r>
       <r>   -4.6633    1.0000 </r>
       <r>   -4.4237    1.0000 </r>
       <r>   -3.8760    1.0000 </r>
       <r>   -3.4360    1.0000 </r>
       <r>   -3.2309    1.0000 </r>
       <r>   -3.0588    1.0000 </r>
       <r>   -1.7096    1.0000 </r>
       <r>   -1.2907    1.0000 </r>
       <r>   -1.0227    1.0000 </r>
       <r>   -0.3394    1.0000 </r>
       <r>   -0.3099    1.0000 </r>
       <r>    0.0384    1.0000 </r>
       <r>    0.4413    1.0000 </r>
       <r>    0.8298    1.0000 </r>
       <r>    1.0473    1.0000 </r>
       <r>    1.0842    1.0000 </r>
       <r>    1.2672    1.0000 </r>
       <r>    1.4474    1.0000 </r>
       <r>    1.7105    1.0000 </r>
       <r>    1.7478    1.0000 </r>
       <r>    1.8236    1.0000 </r>
       <r>    1.9778    1.0000 </r>
       <r>    2.1202    1.0000 </r>
       <r>    2.2081    1.0000 </r>
       <r>    2.5075    1.0000 </r>
       <r>    2.6005    1.0000 </r>
       <r>    2.8054    1.0000 </r>
       <r>    2.9336    1.0000 </r>
       <r>    2.9811    1.0000 </r>
       <r>    3.1347    1.0000 </r>
       <r>    3.4058    1.0000 </r>
       <r>    3.4278    1.0000 </r>
       <r>    3.5358    1.0000 </r>
       <r>    3.7596    1.0000 </r>
       <r>    3.8192    1.0000 </r>
       <r>    4.1371    1.0000 </r>
       <r>    4.1581    1.0000 </r>
       <r>    4.4016    1.0000 </r>
       <r>    4.7406    1.0000 </r>
       <r>    4.8347    1.0000 </r>
       <r>    4.9236    1.0000 </r>
       <r>    5.0337    1.0000 </r>
       <r>    5.2168    1.0000 </r>
       <r>    5.3688    1.0000 </r>
       <r>    5.5248    1.0000 </r>
       <r>    5.5254    1.0000 </r>
       <r>    5.6822    1.0000 </r>
       <r>    5.7846    1.0000 </r>
       <r>    6.0245    1.0000 </r>
       <r>    6.2676    1.0000 </r>
       <r>    6.5981    1.0000 </r>
       <r>    6.7267    1.0000 </r>
       <r>    6.8338    1.0000 </r>
       <r>    7.0019    1.0000 </r>
       <r>    7.1620    1.0000 </r>
       <r>    8.1623    1.0000 </r>
       <r>   10.8369    0.0000 </r>
       <r>   10.9897    0.0000 </r>
       <r>   11.4114    0.0000 </r>
       <r>   11.6962    0.0000 </r>
       <r>   11.8988    0.0000 </r>
       <r>   11.9062    0.0000 </r>
       <r>   12.1222    0.0000 </r>
       <r>   12.2156    0.0000 </r>
       <r>   12.3789    0.0000 </r>
       <r>   12.4162    0.0000 </r>
       <r>   12.5024    0.0000 </r>
       <r>   12.7889    0.0000 </r>
       <r>   12.9319    0.0000 </r>
       <r>   13.5029    0.0000 </r>
       <r>   13.6894    0.0000 </r>
       <r>   13.8829    0.0000 </r>
       <r>   14.0964    0.0000 </r>
       <r>   14.1959    0.0000 </r>
       <r>   14.2632    0.0000 </r>
       <r>   14.7558    0.0000 </r>
      </set>
      <set comment="kpoint 14">
       <r>   -8.5775    1.0000 </r>
       <r>   -8.5775    1.0000 </r>
       <r>   -7.7672    1.0000 </r>
       <r>   -7.7672    1.0000 </r>
       <r>   -7.6567    1.0000 </r>
       <r>   -7.6567    1.0000 </r>
       <r>   -6.8165    1.0000 </r>
       <r>   -6.8165    1.0000 </r>
       <r>   -4.5778    1.0000 </r>
       <r>   -4.5778    1.0000 </r>
       <r>   -3.6286    1.0000 </r>
       <r>   -3.6286    1.0000 </r>
       <r>   -3.1403    1.0000 </r>
       <r>   -3.1403    1.0000 </r>
       <r>   -1.4818    1.0000 </r>
       <r>   -1.4818    1.0000 </r>
       <r>   -0.7077    1.0000 </r>
       <r>   -0.7077    1.0000 </r>
       <r>   -0.2528    1.0000 </r>
       <r>   -0.2528    1.0000 </r>
       <r>    0.7408    1.0000 </r>
       <r>    0.7408    1.0000 </r>
       <r>    1.0431    1.0000 </r>
       <r>    1.0431    1.0000 </r>
       <r>    1.2877    1.0000 </r>
       <r>    1.2877    1.0000 </r>
       <r>    1.6749    1.0000 </r>
       <r>    1.6749    1.0000 </r>
       <r>    1.9422    1.0000 </r>
       <r>    1.9422    1.0000 </r>
       <r>    2.3330    1.0000 </r>
       <r>    2.3330    1.0000 </r>
       <r>    2.7247    1.0000 </r>
       <r>    2.7247    1.0000 </r>
       <r>    2.8964    1.0000 </r>
       <r>    2.8964    1.0000 </r>
       <r>    3.1451    1.0000 </r>
       <r>    3.1451    1.0000 </r>
       <r>    3.2622    1.0000 </r>
       <r>    3.2622    1.0000 </r>
       <r>    3.5272    1.0000 </r>
       <r>    3.5272    1.0000 </r>
       <r>    3.9895    1.0000 </r>
       <r>    3.9895    1.0000 </r>
       <r>    4.2884    1.0000 </r>
       <r>    4.2884    1.0000 </r>
       <r>    4.5342    1.0000 </r>
       <r>    4.5342    1.0000 </r>
       <r>    4.8451    1.0000 </r>
       <r>    4.8451    1.0000 </r>
       <r>    5.4041    1.0000 </r>
       <r>    5.4041    1.0000 </r>
       <r>    5.5910    1.0000 </r>
       <r>    5.5910    1.0000 </r>
       <r>    5.9439    1.0000 </r>
       <r>    5.9439    1.0000 </r>
       <r>    6.1694    1.0000 </r>
       <r>    6.1694    1.0000 </r>
       <r>    6.4027    1.0000 </r>
       <r>    6.4027    1.0000 </r>
       <r>    6.9941    1.0000 </r>
       <r>    6.9941    1.0000 </r>
       <r>    7.7634    1.0000 </r>
       <r>    7.7634    1.0000 </r>
       <r>   11.0807    0.0000 </r>
       <r>   11.0807    0.0000 </r>
       <r>   11.2954    0.0000 </r>
       <r>   11.2954    0.0000 </r>
       <r>   11.8294    0.0000 </r>
       <r>   11.8295    0.0000 </r>
       <r>   12.1953    0.0000 </r>
       <r>   12.1955    0.0000 </r>
       <r>   12.5639    0.0000 </r>
       <r>   12.5650    0.0000 </r>
       <r>   12.8627    0.0000 </r>
       <r>   12.8640    0.0000 </r>
       <r>   13.0468    0.0000 </r>
       <r>   13.0543    0.0000 </r>
       <r>   13.6205    0.0000 </r>
       <r>   13.6515    0.0000 </r>
       <r>   13.9755    0.0000 </r>
       <r>   14.0098    0.0000 </r>
       <r>   14.1932    0.0000 </r>
       <r>   14.4010    0.0000 </r>
      </set>
      <set comment="kpoint 15">
       <r>   -8.0734    1.0000 </r>
       <r>   -8.0734    1.0000 </r>
       <r>   -7.6484    1.0000 </r>
       <r>   -7.6484    1.0000 </r>
       <r>   -7.4655    1.0000 </r>
       <r>   -7.4655    1.0000 </r>
       <r>   -6.6442    1.0000 </r>
       <r>   -6.6442    1.0000 </r>
       <r>   -4.0417    1.0000 </r>
       <r>   -4.0417    1.0000 </r>
       <r>   -3.4505    1.0000 </r>
       <r>   -3.4505    1.0000 </r>
       <r>   -2.6146    1.0000 </r>
       <r>   -2.6146    1.0000 </r>
       <r>   -1.4129    1.0000 </r>
       <r>   -1.4129    1.0000 </r>
       <r>   -0.9881    1.0000 </r>
       <r>   -0.9881    1.0000 </r>
       <r>   -0.4141    1.0000 </r>
       <r>   -0.4141    1.0000 </r>
       <r>   -0.0601    1.0000 </r>
       <r>   -0.0601    1.0000 </r>
       <r>    0.3263    1.0000 </r>
       <r>    0.3263    1.0000 </r>
       <r>    0.9985    1.0000 </r>
       <r>    0.9985    1.0000 </r>
       <r>    1.6198    1.0000 </r>
       <r>    1.6198    1.0000 </r>
       <r>    1.6991    1.0000 </r>
       <r>    1.6991    1.0000 </r>
       <r>    1.9710    1.0000 </r>
       <r>    1.9710    1.0000 </r>
       <r>    2.4246    1.0000 </r>
       <r>    2.4246    1.0000 </r>
       <r>    2.9509    1.0000 </r>
       <r>    2.9509    1.0000 </r>
       <r>    3.0763    1.0000 </r>
       <r>    3.0763    1.0000 </r>
       <r>    3.2815    1.0000 </r>
       <r>    3.2815    1.0000 </r>
       <r>    3.6137    1.0000 </r>
       <r>    3.6137    1.0000 </r>
       <r>    3.9349    1.0000 </r>
       <r>    3.9349    1.0000 </r>
       <r>    4.1951    1.0000 </r>
       <r>    4.1951    1.0000 </r>
       <r>    4.6196    1.0000 </r>
       <r>    4.6196    1.0000 </r>
       <r>    4.7826    1.0000 </r>
       <r>    4.7826    1.0000 </r>
       <r>    4.9684    1.0000 </r>
       <r>    4.9684    1.0000 </r>
       <r>    5.2423    1.0000 </r>
       <r>    5.2423    1.0000 </r>
       <r>    5.6131    1.0000 </r>
       <r>    5.6131    1.0000 </r>
       <r>    5.8779    1.0000 </r>
       <r>    5.8779    1.0000 </r>
       <r>    6.2330    1.0000 </r>
       <r>    6.2330    1.0000 </r>
       <r>    6.9482    1.0000 </r>
       <r>    6.9482    1.0000 </r>
       <r>    7.5978    1.0000 </r>
       <r>    7.5978    1.0000 </r>
       <r>   10.7929    0.0000 </r>
       <r>   10.7929    0.0000 </r>
       <r>   11.3954    0.0000 </r>
       <r>   11.3954    0.0000 </r>
       <r>   11.6849    0.0000 </r>
       <r>   11.6851    0.0000 </r>
       <r>   11.9590    0.0000 </r>
       <r>   11.9591    0.0000 </r>
       <r>   12.0530    0.0000 </r>
       <r>   12.0531    0.0000 </r>
       <r>   12.4828    0.0000 </r>
       <r>   12.4838    0.0000 </r>
       <r>   12.5693    0.0000 </r>
       <r>   12.5695    0.0000 </r>
       <r>   13.0718    0.0000 </r>
       <r>   13.0730    0.0000 </r>
       <r>   13.5839    0.0000 </r>
       <r>   13.6343    0.0000 </r>
       <r>   14.1635    0.0000 </r>
       <r>   14.3813    0.0000 </r>
      </set>
      <set comment="kpoint 16">
       <r>   -8.0728    1.0000 </r>
       <r>   -8.0728    1.0000 </r>
       <r>   -7.6501    1.0000 </r>
       <r>   -7.6501    1.0000 </r>
       <r>   -7.4645    1.0000 </r>
       <r>   -7.4645    1.0000 </r>
       <r>   -6.6445    1.0000 </r>
       <r>   -6.6445    1.0000 </r>
       <r>   -4.0357    1.0000 </r>
       <r>   -4.0357    1.0000 </r>
       <r>   -3.4511    1.0000 </r>
       <r>   -3.4511    1.0000 </r>
       <r>   -2.6143    1.0000 </r>
       <r>   -2.6143    1.0000 </r>
       <r>   -1.4756    1.0000 </r>
       <r>   -1.4756    1.0000 </r>
       <r>   -1.0089    1.0000 </r>
       <r>   -1.0089    1.0000 </r>
       <r>   -0.2660    1.0000 </r>
       <r>   -0.2660    1.0000 </r>
       <r>   -0.0881    1.0000 </r>
       <r>   -0.0881    1.0000 </r>
       <r>    0.3697    1.0000 </r>
       <r>    0.3697    1.0000 </r>
       <r>    1.0435    1.0000 </r>
       <r>    1.0435    1.0000 </r>
       <r>    1.4335    1.0000 </r>
       <r>    1.4335    1.0000 </r>
       <r>    1.6254    1.0000 </r>
       <r>    1.6254    1.0000 </r>
       <r>    2.0197    1.0000 </r>
       <r>    2.0197    1.0000 </r>
       <r>    2.6830    1.0000 </r>
       <r>    2.6830    1.0000 </r>
       <r>    2.6953    1.0000 </r>
       <r>    2.6953    1.0000 </r>
       <r>    3.1259    1.0000 </r>
       <r>    3.1259    1.0000 </r>
       <r>    3.3014    1.0000 </r>
       <r>    3.3014    1.0000 </r>
       <r>    3.4846    1.0000 </r>
       <r>    3.4846    1.0000 </r>
       <r>    4.0614    1.0000 </r>
       <r>    4.0614    1.0000 </r>
       <r>    4.2396    1.0000 </r>
       <r>    4.2396    1.0000 </r>
       <r>    4.5515    1.0000 </r>
       <r>    4.5515    1.0000 </r>
       <r>    4.7602    1.0000 </r>
       <r>    4.7602    1.0000 </r>
       <r>    4.9032    1.0000 </r>
       <r>    4.9032    1.0000 </r>
       <r>    5.3473    1.0000 </r>
       <r>    5.3473    1.0000 </r>
       <r>    5.5995    1.0000 </r>
       <r>    5.5995    1.0000 </r>
       <r>    6.0671    1.0000 </r>
       <r>    6.0671    1.0000 </r>
       <r>    6.1931    1.0000 </r>
       <r>    6.1931    1.0000 </r>
       <r>    6.9607    1.0000 </r>
       <r>    6.9607    1.0000 </r>
       <r>    7.4570    1.0000 </r>
       <r>    7.4570    1.0000 </r>
       <r>   10.7259    0.0000 </r>
       <r>   10.7259    0.0000 </r>
       <r>   11.2792    0.0000 </r>
       <r>   11.2792    0.0000 </r>
       <r>   11.7652    0.0000 </r>
       <r>   11.7652    0.0000 </r>
       <r>   11.8979    0.0000 </r>
       <r>   11.8980    0.0000 </r>
       <r>   12.1908    0.0000 </r>
       <r>   12.1910    0.0000 </r>
       <r>   12.2956    0.0000 </r>
       <r>   12.2958    0.0000 </r>
       <r>   12.9050    0.0000 </r>
       <r>   12.9081    0.0000 </r>
       <r>   13.2067    0.0000 </r>
       <r>   13.2178    0.0000 </r>
       <r>   13.4975    0.0000 </r>
       <r>   13.5195    0.0000 </r>
       <r>   13.8212    0.0000 </r>
       <r>   14.1144    0.0000 </r>
      </set>
     </set>
    </set>
   </array>
  </eigenvalues>
  <separator name="orbital magnetization" >
   <v name="MAGDIPOLOUT">      0.00000000      0.00000000      0.00000000</v>
  </separator>
  <dos>
   <i name="efermi">      9.21658632 </i>
   <total>
    <array>
     <dimension dim="1">gridpoints</dimension>
     <dimension dim="2">spin</dimension>
     <field>energy</field>
     <field>total</field>
     <field>integrated</field>
     <set>
      <set comment="spin 1">
       <r>   -10.8389     0.0000     0.0000 </r>
       <r>   -10.7486     0.0000     0.0000 </r>
       <r>   -10.6583     0.0000     0.0000 </r>
       <r>   -10.5679     0.0000     0.0000 </r>
       <r>   -10.4776     0.0000     0.0000 </r>
       <r>   -10.3873     0.0000     0.0000 </r>
       <r>   -10.2969     0.0000     0.0000 </r>
       <r>   -10.2066     0.0000     0.0000 </r>
       <r>   -10.1163     0.0000     0.0000 </r>
       <r>   -10.0259     0.0000     0.0000 </r>
       <r>    -9.9356     0.0000     0.0000 </r>
       <r>    -9.8453     0.0006     0.0001 </r>
       <r>    -9.7549     0.0286     0.0026 </r>
       <r>    -9.6646     0.3280     0.0323 </r>
       <r>    -9.5743     1.0153     0.1240 </r>
       <r>    -9.4839     1.7279     0.2801 </r>
       <r>    -9.3936     2.7762     0.5308 </r>
       <r>    -9.3033     3.2414     0.8236 </r>
       <r>    -9.2129     4.4425     1.2250 </r>
       <r>    -9.1226     3.9386     1.5807 </r>
       <r>    -9.0323     1.6706     1.7317 </r>
       <r>    -8.9419     1.7965     1.8939 </r>
       <r>    -8.8516     1.0987     1.9932 </r>
       <r>    -8.7613     0.9169     2.0760 </r>
       <r>    -8.6709     2.6275     2.3134 </r>
       <r>    -8.5806     4.8968     2.7557 </r>
       <r>    -8.4903     5.7023     3.2708 </r>
       <r>    -8.3999     5.8936     3.8032 </r>
       <r>    -8.3096     7.2125     4.4548 </r>
       <r>    -8.2193     7.3200     5.1160 </r>
       <r>    -8.1289     5.8618     5.6455 </r>
       <r>    -8.0386     7.6626     6.3377 </r>
       <r>    -7.9482     8.9315     7.1445 </r>
       <r>    -7.8579     8.3558     7.8993 </r>
       <r>    -7.7676     7.7597     8.6003 </r>
       <r>    -7.6772    10.9386     9.5884 </r>
       <r>    -7.5869    12.7543    10.7406 </r>
       <r>    -7.4966     8.8024    11.5357 </r>
       <r>    -7.4062     7.6675    12.2284 </r>
       <r>    -7.3159     4.2053    12.6083 </r>
       <r>    -7.2256     2.8283    12.8637 </r>
       <r>    -7.1352     3.9449    13.2201 </r>
       <r>    -7.0449     4.4764    13.6245 </r>
       <r>    -6.9546     4.1392    13.9984 </r>
       <r>    -6.8642     4.4712    14.4023 </r>
       <r>    -6.7739     4.9677    14.8510 </r>
       <r>    -6.6836     5.0253    15.3050 </r>
       <r>    -6.5932     5.3821    15.7912 </r>
       <r>    -6.5029     2.1036    15.9812 </r>
       <r>    -6.4126     0.2037    15.9996 </r>
       <r>    -6.3222     0.0045    16.0000 </r>
       <r>    -6.2319     0.0000    16.0000 </r>
       <r>    -6.1416     0.0000    16.0000 </r>
       <r>    -6.0512     0.0000    16.0000 </r>
       <r>    -5.9609     0.0023    16.0002 </r>
       <r>    -5.8706     0.0565    16.0053 </r>
       <r>    -5.7802     0.3421    16.0362 </r>
       <r>    -5.6899     0.8922    16.1168 </r>
       <r>    -5.5996     2.1128    16.3077 </r>
       <r>    -5.5092     2.7845    16.5592 </r>
       <r>    -5.4189     2.9148    16.8225 </r>
       <r>    -5.3286     4.4628    17.2257 </r>
       <r>    -5.2382     4.6943    17.6497 </r>
       <r>    -5.1479     2.6396    17.8881 </r>
       <r>    -5.0576     1.0511    17.9831 </r>
       <r>    -4.9672     0.1790    17.9993 </r>
       <r>    -4.8769     0.0260    18.0016 </r>
       <r>    -4.7866     0.3139    18.0300 </r>
       <r>    -4.6962     1.6513    18.1791 </r>
       <r>    -4.6059     3.7677    18.5195 </r>
       <r>    -4.5156     4.4796    18.9241 </r>
       <r>    -4.4252     4.4460    19.3258 </r>
       <r>    -4.3349     5.1888    19.7945 </r>
       <r>    -4.2446     3.7174    20.1303 </r>
       <r>    -4.1542     5.4318    20.6210 </r>
       <r>    -4.0639     9.3163    21.4625 </r>
       <r>    -3.9736     8.9656    22.2724 </r>
       <r>    -3.8832     6.1674    22.8296 </r>
       <r>    -3.7929     5.7195    23.3462 </r>
       <r>    -3.7026     6.9048    23.9700 </r>
       <r>    -3.6122     6.6584    24.5714 </r>
       <r>    -3.5219     5.2825    25.0486 </r>
       <r>    -3.4316     5.6804    25.5618 </r>
       <r>    -3.3412     4.1730    25.9387 </r>
       <r>    -3.2509     2.1909    26.1366 </r>
       <r>    -3.1606     4.6031    26.5525 </r>
       <r>    -3.0702     5.5612    27.0548 </r>
       <r>    -2.9799     2.6088    27.2905 </r>
       <r>    -2.8896     0.4509    27.3312 </r>
       <r>    -2.7992     0.0518    27.3359 </r>
       <r>    -2.7089     0.5865    27.3889 </r>
       <r>    -2.6186     2.8579    27.6470 </r>
       <r>    -2.5282     3.7472    27.9855 </r>
       <r>    -2.4379     2.1495    28.1797 </r>
       <r>    -2.3476     2.3880    28.3954 </r>
       <r>    -2.2572     3.5792    28.7187 </r>
       <r>    -2.1669     3.5494    29.0394 </r>
       <r>    -2.0766     4.1625    29.4154 </r>
       <r>    -1.9862     3.4325    29.7255 </r>
       <r>    -1.8959     1.9816    29.9045 </r>
       <r>    -1.8056     1.1194    30.0056 </r>
       <r>    -1.7152     1.3713    30.1295 </r>
       <r>    -1.6249     2.0333    30.3131 </r>
       <r>    -1.5345     3.6891    30.6464 </r>
       <r>    -1.4442     6.6537    31.2474 </r>
       <r>    -1.3539     4.4155    31.6463 </r>
       <r>    -1.2635     2.3315    31.8569 </r>
       <r>    -1.1732     1.4125    31.9845 </r>
       <r>    -1.0829     1.5056    32.1205 </r>
       <r>    -0.9925     4.3713    32.5154 </r>
       <r>    -0.9022     4.4372    32.9162 </r>
       <r>    -0.8119     2.1942    33.1144 </r>
       <r>    -0.7215     3.6929    33.4480 </r>
       <r>    -0.6312     6.1376    34.0025 </r>
       <r>    -0.5409     5.3920    34.4896 </r>
       <r>    -0.4505     7.0439    35.1259 </r>
       <r>    -0.3602     7.5671    35.8094 </r>
       <r>    -0.2699     7.1114    36.4518 </r>
       <r>    -0.1795     6.5335    37.0420 </r>
       <r>    -0.0892     7.2632    37.6981 </r>
       <r>     0.0011     7.8618    38.4083 </r>
       <r>     0.0915     4.9823    38.8584 </r>
       <r>     0.1818     3.0054    39.1299 </r>
       <r>     0.2721     4.1233    39.5023 </r>
       <r>     0.3625     7.1311    40.1465 </r>
       <r>     0.4528     7.5408    40.8277 </r>
       <r>     0.5431     5.4995    41.3245 </r>
       <r>     0.6335     3.9463    41.6810 </r>
       <r>     0.7238     5.0738    42.1393 </r>
       <r>     0.8141     7.7782    42.8420 </r>
       <r>     0.9045     9.7879    43.7261 </r>
       <r>     0.9948    11.7711    44.7895 </r>
       <r>     1.0851    13.5082    46.0097 </r>
       <r>     1.1755    10.3606    46.9456 </r>
       <r>     1.2658     6.8275    47.5624 </r>
       <r>     1.3561     6.5723    48.1561 </r>
       <r>     1.4465     6.7556    48.7664 </r>
       <r>     1.5368     9.2883    49.6054 </r>
       <r>     1.6271    11.6784    50.6604 </r>
       <r>     1.7175    15.6716    52.0760 </r>
       <r>     1.8078    16.3857    53.5562 </r>
       <r>     1.8981    12.8611    54.7180 </r>
       <r>     1.9885    13.6085    55.9473 </r>
       <r>     2.0788    11.7813    57.0116 </r>
       <r>     2.1691     8.2363    57.7556 </r>
       <r>     2.2595     9.6227    58.6248 </r>
       <r>     2.3498     9.5576    59.4882 </r>
       <r>     2.4401     9.2556    60.3243 </r>
       <r>     2.5305    11.4095    61.3550 </r>
       <r>     2.6208    11.3227    62.3778 </r>
       <r>     2.7111    12.6793    63.5232 </r>
       <r>     2.8015    14.4311    64.8268 </r>
       <r>     2.8918    14.8222    66.1657 </r>
       <r>     2.9821    14.8483    67.5070 </r>
       <r>     3.0725    15.5643    68.9130 </r>
       <r>     3.1628    15.0560    70.2731 </r>
       <r>     3.2531    13.8945    71.5282 </r>
       <r>     3.3435    13.7504    72.7704 </r>
       <r>     3.4338    12.9103    73.9366 </r>
       <r>     3.5241    14.4661    75.2434 </r>
       <r>     3.6145    13.6077    76.4726 </r>
       <r>     3.7048    10.0607    77.3814 </r>
       <r>     3.7951     9.0283    78.1970 </r>
       <r>     3.8855    10.3514    79.1321 </r>
       <r>     3.9758    10.8450    80.1117 </r>
       <r>     4.0661    11.0503    81.1100 </r>
       <r>     4.1565    12.7919    82.2655 </r>
       <r>     4.2468    11.3164    83.2877 </r>
       <r>     4.3371    10.8192    84.2651 </r>
       <r>     4.4275    14.0377    85.5332 </r>
       <r>     4.5178    14.6281    86.8546 </r>
       <r>     4.6082    12.6608    87.9983 </r>
       <r>     4.6985    12.4005    89.1185 </r>
       <r>     4.7888    16.4882    90.6079 </r>
       <r>     4.8792    20.3642    92.4475 </r>
       <r>     4.9695    20.6116    94.3094 </r>
       <r>     5.0598    14.8606    95.6518 </r>
       <r>     5.1502    10.7117    96.6194 </r>
       <r>     5.2405    14.4536    97.9251 </r>
       <r>     5.3308    20.2748    99.7566 </r>
       <r>     5.4212    18.5665   101.4338 </r>
       <r>     5.5115    14.2056   102.7170 </r>
       <r>     5.6018    13.1029   103.9006 </r>
       <r>     5.6922    13.0730   105.0816 </r>
       <r>     5.7825    16.1553   106.5410 </r>
       <r>     5.8728    16.5382   108.0349 </r>
       <r>     5.9632    11.7590   109.0972 </r>
       <r>     6.0535     9.0612   109.9157 </r>
       <r>     6.1438    13.1641   111.1049 </r>
       <r>     6.2342    18.8279   112.8056 </r>
       <r>     6.3245    16.1932   114.2684 </r>
       <r>     6.4148     9.1546   115.0954 </r>
       <r>     6.5052     6.5472   115.6868 </r>
       <r>     6.5955     7.1614   116.3338 </r>
       <r>     6.6858     7.0134   116.9673 </r>
       <r>     6.7762     8.4109   117.7271 </r>
       <r>     6.8665    11.5322   118.7689 </r>
       <r>     6.9568    13.5116   119.9894 </r>
       <r>     7.0472    14.2398   121.2758 </r>
       <r>     7.1375     9.7799   122.1592 </r>
       <r>     7.2278     5.4785   122.6541 </r>
       <r>     7.3182     2.5068   122.8806 </r>
       <r>     7.4085     4.4044   123.2784 </r>
       <r>     7.4988     7.1636   123.9255 </r>
       <r>     7.5892     6.2564   124.4907 </r>
       <r>     7.6795     4.5945   124.9057 </r>
       <r>     7.7698     5.5263   125.4049 </r>
       <r>     7.8602     5.2454   125.8788 </r>
       <r>     7.9505     4.1768   126.2561 </r>
       <r>     8.0408     2.4653   126.4788 </r>
       <r>     8.1312     1.4282   126.6078 </r>
       <r>     8.2215     1.9454   126.7835 </r>
       <r>     8.3118     1.5769   126.9260 </r>
       <r>     8.4022     1.8603   127.0940 </r>
       <r>     8.4925     1.9550   127.2706 </r>
       <r>     8.5828     1.3709   127.3945 </r>
       <r>     8.6732     2.8659   127.6534 </r>
       <r>     8.7635     2.9624   127.9210 </r>
       <r>     8.8538     0.8171   127.9948 </r>
       <r>     8.9442     0.0569   127.9999 </r>
       <r>     9.0345     0.0009   128.0000 </r>
       <r>     9.1248     0.0000   128.0000 </r>
       <r>     9.2152     0.0000   128.0000 </r>
       <r>     9.3055     0.0000   128.0000 </r>
       <r>     9.3958     0.0000   128.0000 </r>
       <r>     9.4862     0.0000   128.0000 </r>
       <r>     9.5765     0.0000   128.0000 </r>
       <r>     9.6668     0.0029   128.0003 </r>
       <r>     9.7572     0.0683   128.0064 </r>
       <r>     9.8475     0.4427   128.0464 </r>
       <r>     9.9378     1.1750   128.1526 </r>
       <r>    10.0282     1.8725   128.3217 </r>
       <r>    10.1185     2.1230   128.5135 </r>
       <r>    10.2088     1.3751   128.6377 </r>
       <r>    10.2992     0.3630   128.6705 </r>
       <r>    10.3895     0.5466   128.7199 </r>
       <r>    10.4798     1.5677   128.8615 </r>
       <r>    10.5702     2.2733   129.0669 </r>
       <r>    10.6605     2.6253   129.3040 </r>
       <r>    10.7508     5.6387   129.8134 </r>
       <r>    10.8412     8.8906   130.6165 </r>
       <r>    10.9315     8.0645   131.3450 </r>
       <r>    11.0219     7.2302   131.9981 </r>
       <r>    11.1122     7.1477   132.6438 </r>
       <r>    11.2025     4.8270   133.0798 </r>
       <r>    11.2929     4.3424   133.4721 </r>
       <r>    11.3832     5.8201   133.9979 </r>
       <r>    11.4735     5.7637   134.5185 </r>
       <r>    11.5639     4.3533   134.9118 </r>
       <r>    11.6542     4.9996   135.3634 </r>
       <r>    11.7445     9.3617   136.2091 </r>
       <r>    11.8349    12.0099   137.2940 </r>
       <r>    11.9252    14.2619   138.5823 </r>
       <r>    12.0155    14.2454   139.8692 </r>
       <r>    12.1059     9.6690   140.7426 </r>
       <r>    12.1962     9.1648   141.5705 </r>
       <r>    12.2865    11.4530   142.6051 </r>
       <r>    12.3769     9.8216   143.4923 </r>
       <r>    12.4672     8.7637   144.2840 </r>
       <r>    12.5575    10.5270   145.2349 </r>
       <r>    12.6479    10.1581   146.1525 </r>
       <r>    12.7382     9.5424   147.0145 </r>
       <r>    12.8285    11.0429   148.0121 </r>
       <r>    12.9189    12.7142   149.1606 </r>
       <r>    13.0092    10.7854   150.1349 </r>
       <r>    13.0995     9.3290   150.9776 </r>
       <r>    13.1899     9.6708   151.8512 </r>
       <r>    13.2802    10.2729   152.7792 </r>
       <r>    13.3705    10.4096   153.7195 </r>
       <r>    13.4609     9.7905   154.6039 </r>
       <r>    13.5512    13.3368   155.8087 </r>
       <r>    13.6415    15.1074   157.1734 </r>
       <r>    13.7319    11.5063   158.2128 </r>
       <r>    13.8222    10.6147   159.1717 </r>
       <r>    13.9125    13.0661   160.3520 </r>
       <r>    14.0029    13.8780   161.6057 </r>
       <r>    14.0932    12.2242   162.7099 </r>
       <r>    14.1835    10.2201   163.6331 </r>
       <r>    14.2739     8.9910   164.4453 </r>
       <r>    14.3642     7.9601   165.1644 </r>
       <r>    14.4545     6.2576   165.7297 </r>
       <r>    14.5449     5.2271   166.2019 </r>
       <r>    14.6352     5.6705   166.7141 </r>
       <r>    14.7255     5.3673   167.1990 </r>
       <r>    14.8159     4.0489   167.5647 </r>
       <r>    14.9062     2.5518   167.7952 </r>
       <r>    14.9965     1.3137   167.9139 </r>
       <r>    15.0869     0.7270   167.9796 </r>
       <r>    15.1772     0.2083   167.9984 </r>
       <r>    15.2675     0.0175   168.0000 </r>
       <r>    15.3579     0.0004   168.0000 </r>
       <r>    15.4482     0.0000   168.0000 </r>
       <r>    15.5385     0.0000   168.0000 </r>
       <r>    15.6289     0.0000   168.0000 </r>
       <r>    15.7192     0.0000   168.0000 </r>
       <r>    15.8095     0.0000   168.0000 </r>
       <r>    15.8999     0.0000   168.0000 </r>
       <r>    15.9902     0.0000   168.0000 </r>
       <r>    16.0805     0.0000   168.0000 </r>
       <r>    16.1709     0.0000   168.0000 </r>
       <r>    16.2612     0.0000   168.0000 </r>
      </set>
     </set>
    </array>
   </total>
  </dos>
 </calculation>
 <structure name="finalpos" >
  <crystal>
   <varray name="basis" >
    <v>      11.44365518       0.00000000       0.05876400 </v>
    <v>       0.00000000       3.12768838       0.00000000 </v>
    <v>      -5.13617953       0.00000000       9.49636010 </v>
   </varray>
   <i name="volume">    340.83950664 </i>
   <varray name="rec_basis" >
    <v>       0.08714264       0.00000000       0.04713177 </v>
    <v>       0.00000000       0.31972495       0.00000000 </v>
    <v>      -0.00053924       0.00000000       0.10501185 </v>
   </varray>
  </crystal>
  <varray name="positions" >
   <v>       0.00228481       0.00000000       0.33653421 </v>
   <v>       0.99567724       0.50000000       0.57314412 </v>
   <v>       0.75008817       0.00000000       0.04691334 </v>
   <v>       0.24575726       0.50000000       0.54156257 </v>
   <v>       0.50228481       0.50000000       0.33653421 </v>
   <v>       0.49567724       0.00000000       0.57314412 </v>
   <v>       0.25008817       0.50000000       0.04691334 </v>
   <v>       0.74575726       0.00000000       0.54156257 </v>
   <v>       0.00714822       0.00000000       0.84162515 </v>
   <v>       0.99019753       0.50000000       0.07340939 </v>
   <v>       0.74661585       0.50000000       0.28678548 </v>
   <v>       0.25153674       0.00000000       0.79477712 </v>
   <v>       0.50714822       0.50000000       0.84162515 </v>
   <v>       0.49019753       0.00000000       0.07340939 </v>
   <v>       0.24661585       0.00000000       0.28678548 </v>
   <v>       0.75153674       0.50000000       0.79477712 </v>
   <v>       0.20403941       0.00000000       0.94646659 </v>
   <v>       0.19041848       0.00000000       0.43691851 </v>
   <v>       0.94358142       0.50000000       0.38516384 </v>
   <v>       0.43680016       0.00000000       0.87587054 </v>
   <v>       0.70403941       0.50000000       0.94646659 </v>
   <v>       0.69041848       0.50000000       0.43691851 </v>
   <v>       0.44358142       0.00000000       0.38516384 </v>
   <v>       0.93680016       0.50000000       0.87587054 </v>
   <v>       0.68720921       0.00000000       0.17370361 </v>
   <v>       0.17430289       0.50000000       0.66578416 </v>
   <v>       0.93905802       0.00000000       0.14987798 </v>
   <v>       0.93528458       0.00000000       0.62146339 </v>
   <v>       0.18720921       0.50000000       0.17370361 </v>
   <v>       0.67430289       0.00000000       0.66578416 </v>
   <v>       0.43905802       0.50000000       0.14987798 </v>
   <v>       0.43528458       0.50000000       0.62146339 </v>
  </varray>
 </structure>
</modeling>
