<?xml version="1.0" encoding="ISO-8859-1"?>
<modeling>
 <generator>
  <i name="program" type="string">vasp </i>
  <i name="version" type="string">5.3.5  </i>
  <i name="subversion" type="string">31Mar14 (build Jun 20 2014 13:15:13) complex                          parallel </i>
  <i name="platform" type="string">LinuxIFC </i>
  <i name="date" type="string">2025 12 16 </i>
  <i name="time" type="string">17:32:45 </i>
 </generator>
 <incar>
  <i type="string" name="PREC">accurate</i>
  <i type="int" name="IALGO">    68</i>
  <i type="logical" name="ADDGRID"> T  </i>
  <i type="int" name="NELM">   100</i>
  <i type="int" name="NELMIN">     4</i>
  <i type="int" name="IBRION">     2</i>
  <i name="EDIFF">      0.00000100</i>
  <i name="EDIFFG">     -0.02000000</i>
  <i type="int" name="NSW">    30</i>
  <i type="int" name="ISIF">     3</i>
  <i name="ENCUT">    600.00000000</i>
  <i type="logical" name="LREAL"> F  </i>
  <i type="int" name="ISMEAR">     0</i>
  <i name="SIGMA">      0.10000000</i>
  <i type="logical" name="LWAVE"> F  </i>
  <i type="logical" name="LCHARG"> F  </i>
  <i type="int" name="NELM">   100</i>
 </incar>
 <kpoints>
  <generation param="Auto">
   <i name="subdivisionlength">     20.00000000 </i>
   <v type="int" name="divisions">       4        6        2 </v>
   <v name="usershift">      0.00000000       0.00000000       0.00000000 </v>
   <v name="genvec1">      0.25000000       0.00000000       0.00000000 </v>
   <v name="genvec2">      0.00000000       0.16666667       0.00000000 </v>
   <v name="genvec3">      0.00000000       0.00000000       0.50000000 </v>
   <v name="shift">      0.00000000       0.00000000       0.00000000 </v>
  </generation>
  <varray name="kpointlist" >
   <v>       0.00000000       0.00000000       0.00000000 </v>
   <v>       0.25000000       0.00000000       0.00000000 </v>
   <v>       0.50000000       0.00000000       0.00000000 </v>
   <v>       0.00000000       0.16666667       0.00000000 </v>
   <v>       0.25000000       0.16666667       0.00000000 </v>
   <v>       0.50000000       0.16666667       0.00000000 </v>
   <v>       0.00000000       0.33333333       0.00000000 </v>
   <v>       0.25000000       0.33333333       0.00000000 </v>
   <v>       0.50000000       0.33333333       0.00000000 </v>
   <v>       0.00000000       0.50000000       0.00000000 </v>
   <v>       0.25000000       0.50000000       0.00000000 </v>
   <v>       0.50000000       0.50000000       0.00000000 </v>
   <v>       0.00000000       0.00000000       0.50000000 </v>
   <v>       0.25000000       0.00000000       0.50000000 </v>
   <v>       0.50000000       0.00000000       0.50000000 </v>
   <v>       0.00000000       0.16666667       0.50000000 </v>
   <v>       0.25000000       0.16666667       0.50000000 </v>
   <v>       0.50000000       0.16666667       0.50000000 </v>
   <v>       0.00000000       0.33333333       0.50000000 </v>
   <v>       0.25000000       0.33333333       0.50000000 </v>
   <v>       0.50000000       0.33333333       0.50000000 </v>
   <v>       0.00000000       0.50000000       0.50000000 </v>
   <v>       0.25000000       0.50000000       0.50000000 </v>
   <v>       0.50000000       0.50000000       0.50000000 </v>
  </varray>
  <varray name="weights" >
   <v>       0.02083333 </v>
   <v>       0.04166667 </v>
   <v>       0.02083333 </v>
   <v>       0.04166667 </v>
   <v>       0.08333333 </v>
   <v>       0.04166667 </v>
   <v>       0.04166667 </v>
   <v>       0.08333333 </v>
   <v>       0.04166667 </v>
   <v>       0.02083333 </v>
   <v>       0.04166667 </v>
   <v>       0.02083333 </v>
   <v>       0.02083333 </v>
   <v>       0.04166667 </v>
   <v>       0.02083333 </v>
   <v>       0.04166667 </v>
   <v>       0.08333333 </v>
   <v>       0.04166667 </v>
   <v>       0.04166667 </v>
   <v>       0.08333333 </v>
   <v>       0.04166667 </v>
   <v>       0.02083333 </v>
   <v>       0.04166667 </v>
   <v>       0.02083333 </v>
  </varray>
 </kpoints>
 <parameters>
  <separator name="general" >
   <i type="string" name="SYSTEM">unknown system</i>
   <i type="logical" name="LCOMPAT"> F  </i>
  </separator>
  <separator name="electronic" >
   <i type="string" name="PREC">accura</i>
   <i name="ENMAX">    600.00000000</i>
   <i name="ENAUG">    644.87300000</i>
   <i name="EDIFF">      0.00000100</i>
   <i type="int" name="IALGO">    68</i>
   <i type="int" name="IWAVPR">    11</i>
   <i type="int" name="NBANDS">    44</i>
   <i name="NELECT">     64.00000000</i>
   <i type="int" name="TURBO">     0</i>
   <i type="int" name="IRESTART">     0</i>
   <i type="int" name="NREBOOT">     0</i>
   <i type="int" name="NMIN">     0</i>
   <i name="EREF">      0.00000000</i>
   <separator name="electronic smearing" >
    <i type="int" name="ISMEAR">     0</i>
    <i name="SIGMA">      0.10000000</i>
    <i name="KSPACING">      0.50000000</i>
    <i type="logical" name="KGAMMA"> T  </i>
   </separator>
   <separator name="electronic projectors" >
    <i type="logical" name="LREAL"> F  </i>
    <v name="ROPT">      0.00000000      0.00000000      0.00000000      0.00000000</v>
    <i type="int" name="LMAXPAW">  -100</i>
    <i type="int" name="LMAXMIX">     2</i>
    <i type="logical" name="NLSPLINE"> F  </i>
   </separator>
   <separator name="electronic startup" >
    <i type="int" name="ISTART">     0</i>
    <i type="int" name="ICHARG">     2</i>
    <i type="int" name="INIWAV">     1</i>
   </separator>
   <separator name="electronic spin" >
    <i type="int" name="ISPIN">     1</i>
    <i type="logical" name="LNONCOLLINEAR"> F  </i>
    <v name="MAGMOM">      1.00000000      1.00000000      1.00000000      1.00000000      1.00000000      1.00000000      1.00000000      1.00000000      1.00000000      1.00000000      1.00000000      1.00000000      1.00000000      1.00000000      1.00000000      1.00000000</v>
    <i name="NUPDOWN">     -1.00000000</i>
    <i type="logical" name="LSORBIT"> F  </i>
    <v name="SAXIS">      0.00000000      0.00000000      1.00000000</v>
    <i type="logical" name="LSPIRAL"> F  </i>
    <v name="QSPIRAL">      0.00000000      0.00000000      0.00000000</v>
    <i type="logical" name="LZEROZ"> F  </i>
   </separator>
   <separator name="electronic exchange-correlation" >
    <i type="logical" name="LASPH"> F  </i>
    <i type="logical" name="LMETAGGA"> F  </i>
   </separator>
   <separator name="electronic convergence" >
    <i type="int" name="NELM">   100</i>
    <i type="int" name="NELMDL">     0</i>
    <i type="int" name="NELMIN">     4</i>
    <i name="ENINI">    600.00000000</i>
    <separator name="electronic convergence detail" >
     <i type="logical" name="LDIAG"> T  </i>
     <i type="logical" name="LSUBROT"> F  </i>
     <i name="WEIMIN">      0.00100000</i>
     <i name="EBREAK">      0.00000001</i>
     <i name="DEPER">      0.30000000</i>
     <i type="int" name="NRMM">     4</i>
     <i name="TIME">      0.40000000</i>
    </separator>
   </separator>
   <separator name="electronic mixer" >
    <i name="AMIX">      0.40000000</i>
    <i name="BMIX">      1.00000000</i>
    <i name="AMIN">      0.10000000</i>
    <i name="AMIX_MAG">      1.60000000</i>
    <i name="BMIX_MAG">      1.00000000</i>
    <separator name="electronic mixer details" >
     <i type="int" name="IMIX">     4</i>
     <i type="int" name="MAXMIX">   -45</i>
     <i name="WC">    100.00000000</i>
     <i type="int" name="INIMIX">     1</i>
     <i type="int" name="MIXPRE">     1</i>
     <i type="int" name="MREMOVE">     5</i>
    </separator>
   </separator>
   <separator name="electronic dipolcorrection" >
    <i type="logical" name="LDIPOL"> F  </i>
    <i type="logical" name="LMONO"> F  </i>
    <i type="int" name="IDIPOL">     0</i>
    <i name="EPSILON">      1.00000000</i>
    <v name="DIPOL">   -100.00000000   -100.00000000   -100.00000000</v>
    <i name="EFIELD">      0.00000000</i>
   </separator>
  </separator>
  <separator name="grids" >
   <i type="int" name="NGX">    48</i>
   <i type="int" name="NGY">    28</i>
   <i type="int" name="NGZ">    84</i>
   <i type="int" name="NGXF">    96</i>
   <i type="int" name="NGYF">    56</i>
   <i type="int" name="NGZF">   168</i>
   <i type="logical" name="ADDGRID"> T  </i>
  </separator>
  <separator name="ionic" >
   <i type="int" name="NSW">    30</i>
   <i type="int" name="IBRION">     2</i>
   <i type="int" name="ISIF">     3</i>
   <i name="PSTRESS">      0.00000000</i>
   <i name="EDIFFG">     -0.02000000</i>
   <i type="int" name="NFREE">     1</i>
   <i name="POTIM">      0.50000000</i>
   <i name="SMASS">     -3.00000000</i>
   <i name="SCALEE">      1.00000000</i>
  </separator>
  <separator name="ionic md" >
   <i name="TEBEG">      0.00010000</i>
   <i name="TEEND">      0.00010000</i>
   <i type="int" name="NBLOCK">     1</i>
   <i type="int" name="KBLOCK">    30</i>
   <i type="int" name="NPACO">   256</i>
   <i name="APACO">     16.00000000</i>
  </separator>
  <separator name="symmetry" >
   <i type="int" name="ISYM">     2</i>
   <i name="SYMPREC">      0.00001000</i>
  </separator>
  <separator name="dos" >
   <i type="logical" name="LORBIT"> F  </i>
   <v name="RWIGS">     -1.00000000     -1.00000000     -1.00000000     -1.00000000</v>
   <i type="int" name="NEDOS">   301</i>
   <i name="EMIN">     10.00000000</i>
   <i name="EMAX">    -10.00000000</i>
   <i name="EFERMI">      0.00000000</i>
  </separator>
  <separator name="writing" >
   <i type="int" name="NWRITE">     2</i>
   <i type="logical" name="LWAVE"> F  </i>
   <i type="logical" name="LCHARG"> F  </i>
   <i type="logical" name="LPARD"> F  </i>
   <i type="logical" name="LVTOT"> F  </i>
   <i type="logical" name="LVHAR"> F  </i>
   <i type="logical" name="LELF"> F  </i>
   <i type="logical" name="LOPTICS"> F  </i>
   <v name="STM">      0.00000000      0.00000000      0.00000000      0.00000000      0.00000000      0.00000000      0.00000000</v>
  </separator>
  <separator name="performance" >
   <i type="int" name="NPAR">     4</i>
   <i type="int" name="NSIM">     4</i>
   <i type="int" name="NBLK">    -1</i>
   <i type="logical" name="LPLANE"> T  </i>
   <i type="logical" name="LSCALAPACK"> T  </i>
   <i type="logical" name="LSCAAWARE"> F  </i>
   <i type="logical" name="LSCALU"> F  </i>
   <i type="logical" name="LASYNC"> F  </i>
   <i type="logical" name="LORBITALREAL"> F  </i>
  </separator>
  <separator name="miscellaneous" >
   <i type="int" name="IDIOT">     3</i>
   <i type="logical" name="LMUSIC"> F  </i>
   <v name="POMASS">     28.08500000     26.98100000     12.01100000     14.00100000</v>
   <v name="DARWINR">      0.00000000      0.00000000      0.00000000      0.00000000</v>
   <v name="DARWINV">      1.00000000      1.00000000      1.00000000      1.00000000</v>
   <i type="logical" name="LCORR"> T  </i>
  </separator>
  <i type="logical" name="GGA_COMPAT"> T  </i>
  <i type="logical" name="LBERRY"> F  </i>
  <i type="int" name="ICORELEVEL">     0</i>
  <i type="logical" name="LDAU"> F  </i>
  <i type="int" name="I_CONSTRAINED_M">     0</i>
  <separator name="electronic exchange-correlation" >
   <i type="string" name="GGA">--</i>
   <i type="int" name="VOSKOWN">     0</i>
   <i type="logical" name="LHFCALC"> F  </i>
   <i type="string" name="PRECFOCK"></i>
   <i type="logical" name="LSYMGRAD"> F  </i>
   <i type="logical" name="LHFONE"> F  </i>
   <i type="logical" name="LRHFCALC"> F  </i>
   <i type="logical" name="LTHOMAS"> F  </i>
   <i type="logical" name="LMODELHF"> F  </i>
   <i name="ENCUT4O">     -1.00000000</i>
   <i type="int" name="EXXOEP">     0</i>
   <i type="int" name="FOURORBIT">     0</i>
   <i name="AEXX">      0.00000000</i>
   <i name="HFALPHA">      0.00000000</i>
   <i name="MCALPHA">      0.00000000</i>
   <i name="ALDAX">      1.00000000</i>
   <i name="AGGAX">      1.00000000</i>
   <i name="ALDAC">      1.00000000</i>
   <i name="AGGAC">      1.00000000</i>
   <i type="int" name="NKREDX">     1</i>
   <i type="int" name="NKREDY">     1</i>
   <i type="int" name="NKREDZ">     1</i>
   <i type="logical" name="SHIFTRED"> F  </i>
   <i type="logical" name="ODDONLY"> F  </i>
   <i type="logical" name="EVENONLY"> F  </i>
   <i type="int" name="LMAXFOCK">     0</i>
   <i type="int" name="NMAXFOCKAE">     0</i>
   <i type="logical" name="LFOCKAEDFT"> F  </i>
   <i name="HFSCREEN">      0.00000000</i>
   <i name="HFSCREENC">      0.00000000</i>
   <i type="int" name="NBANDSGWLOW">     0</i>
  </separator>
  <separator name="vdW DFT" >
   <i type="logical" name="LUSE_VDW"> F  </i>
   <i name="Zab_VDW">     -0.84910000</i>
   <i name="PARAM1">      0.12340000</i>
   <i name="PARAM2">      1.00000000</i>
   <i name="PARAM3">      0.00000000</i>
  </separator>
  <separator name="model GW" >
   <i type="int" name="MODEL_GW">     0</i>
   <i name="MODEL_EPS0">      6.42341948</i>
   <i name="MODEL_ALPHA">      1.00000000</i>
  </separator>
  <separator name="linear response parameters" >
   <i type="logical" name="LEPSILON"> F  </i>
   <i type="logical" name="LRPA"> F  </i>
   <i type="logical" name="LNABLA"> F  </i>
   <i type="logical" name="LVEL"> F  </i>
   <i type="int" name="KINTER">     0</i>
   <i name="CSHIFT">      0.10000000</i>
   <i name="OMEGAMAX">     -1.00000000</i>
   <i name="DEG_THRESHOLD">      0.00200000</i>
  </separator>
  <separator name="orbital magnetization" >
   <i type="logical" name="NUCIND"> F  </i>
   <v name="MAGPOS">      0.00000000      0.00000000      0.00000000</v>
   <i type="logical" name="LNICSALL"> T  </i>
   <i type="logical" name="ORBITALMAG"> F  </i>
   <i type="logical" name="LMAGBLOCH"> F  </i>
   <i type="logical" name="LCHIMAG"> F  </i>
   <i type="logical" name="LGAUGE"> T  </i>
   <i type="int" name="MAGATOM">     0</i>
   <v name="MAGDIPOL">      0.00000000      0.00000000      0.00000000</v>
   <v name="AVECCONST">      0.00000000      0.00000000      0.00000000</v>
  </separator>
  <separator name="response functions" >
   <i type="logical" name="LADDER"> F  </i>
   <i type="logical" name="LFXC"> F  </i>
   <i type="logical" name="LHARTREE"> T  </i>
   <i type="int" name="IBSE">     0</i>
   <i type="logical" name="LTCTE"> F  </i>
   <i type="logical" name="LTETE"> F  </i>
   <i type="logical" name="LTRIPLET"> F  </i>
   <i type="logical" name="LFXCEPS"> F  </i>
   <i type="logical" name="LFXHEG"> F  </i>
   <i type="logical" name="L2ORDER"> F  </i>
   <i type="logical" name="LUSEW"> F  </i>
   <i name="ENCUTGW">     -2.00000000</i>
   <i name="ENCUTGWSOFT">     -2.00000000</i>
   <i name="ENCUTLF">     -1.00000000</i>
   <i type="int" name="LMAXMP2">    -1</i>
   <i name="SCISSOR">      0.00000000</i>
   <i type="int" name="NOMEGA">     0</i>
   <i type="int" name="NOMEGAR">     0</i>
   <i type="int" name="NBANDSGW">    -1</i>
   <i type="int" name="NBANDSO">    -1</i>
   <i type="int" name="NBANDSV">    -1</i>
   <i type="int" name="NELM">   100</i>
   <i type="int" name="DIM">     3</i>
   <i type="int" name="ANTIRES">     0</i>
   <i name="OMEGAMAX">    -30.00000000</i>
   <i name="OMEGAMIN">    -30.00000000</i>
   <i name="OMEGATL">   -200.00000000</i>
   <i type="int" name="OMEGAGRID">     0</i>
   <i name="CSHIFT">     -0.10000000</i>
   <i type="logical" name="SELFENERGY"> F  </i>
   <i type="logical" name="LSPECTRAL"> F  </i>
   <i type="logical" name="ODDONLYGW"> F  </i>
   <i type="logical" name="EVENONLYGW"> F  </i>
   <i type="int" name="NKREDLFX">     1</i>
   <i type="int" name="NKREDLFY">     1</i>
   <i type="int" name="NKREDLFZ">     1</i>
   <i type="int" name="MAXMEM">  1800</i>
   <i type="int" name="TELESCOPE">     0</i>
   <i type="int" name="TAUPAR">     1</i>
  </separator>
  <separator name="External order field" >
   <i name="OFIELD_KAPPA">      0.00000000</i>
   <v name="OFIELD_K">      0.00000000      0.00000000      0.00000000</v>
   <i name="OFIELD_Q6_NEAR">      0.00000000</i>
   <i name="OFIELD_Q6_FAR">      0.00000000</i>
   <i name="OFIELD_A">      0.00000000</i>
  </separator>
 </parameters>
 <atominfo>
  <atoms>      16 </atoms>
  <types>       4 </types>
  <array name="atoms" >
   <dimension dim="1">ion</dimension>
   <field type="string">element</field>
   <field type="int">atomtype</field>
   <set>
    <rc><c>Si</c><c>   1</c></rc>
    <rc><c>Si</c><c>   1</c></rc>
    <rc><c>Si</c><c>   1</c></rc>
    <rc><c>Si</c><c>   1</c></rc>
    <rc><c>Si</c><c>   1</c></rc>
    <rc><c>Al</c><c>   2</c></rc>
    <rc><c>Al</c><c>   2</c></rc>
    <rc><c>Al</c><c>   2</c></rc>
    <rc><c>C </c><c>   3</c></rc>
    <rc><c>C </c><c>   3</c></rc>
    <rc><c>C </c><c>   3</c></rc>
    <rc><c>C </c><c>   3</c></rc>
    <rc><c>C </c><c>   3</c></rc>
    <rc><c>N </c><c>   4</c></rc>
    <rc><c>N </c><c>   4</c></rc>
    <rc><c>N </c><c>   4</c></rc>
   </set>
  </array>
  <array name="atomtypes" >
   <dimension dim="1">type</dimension>
   <field type="int">atomspertype</field>
   <field type="string">element</field>
   <field>mass</field>
   <field>valence</field>
   <field type="string">pseudopotential</field>
   <set>
    <rc><c>   5</c><c>Si</c><c>     28.08500000</c><c>      4.00000000</c><c>  PAW_PBE Si 05Jan2001                  </c></rc>
    <rc><c>   3</c><c>Al</c><c>     26.98100000</c><c>      3.00000000</c><c>  PAW_PBE Al 04Jan2001                  </c></rc>
    <rc><c>   5</c><c>C </c><c>     12.01100000</c><c>      4.00000000</c><c>  PAW_PBE C 08Apr2002                   </c></rc>
    <rc><c>   3</c><c>N </c><c>     14.00100000</c><c>      5.00000000</c><c>  PAW_PBE N_s 07Sep2000                 </c></rc>
   </set>
  </array>
 </atominfo>
 <structure name="initialpos" >
  <crystal>
   <varray name="basis" >
    <v>       5.38954928       0.00000000      -0.00227678 </v>
    <v>       0.00000000       3.12813377       0.00000000 </v>
    <v>      -0.00418985       0.00000000      10.16008471 </v>
   </varray>
   <i name="volume">    171.29118619 </i>
   <varray name="rec_basis" >
    <v>       0.18554430       0.00000000       0.00007652 </v>
    <v>       0.00000000       0.31967942       0.00000000 </v>
    <v>       0.00004158       0.00000000       0.09842439 </v>
   </varray>
  </crystal>
  <varray name="positions" >
   <v>       0.33358468       0.00000000       0.50044228 </v>
   <v>       0.83199651       0.50000000       0.49673107 </v>
   <v>       0.66434348       0.00000000       0.24177642 </v>
   <v>       0.16782787       0.50000000       0.75561875 </v>
   <v>       0.66171271       0.00000000       0.75505518 </v>
   <v>       0.33783648       0.00000000       0.99933674 </v>
   <v>       0.83212706       0.50000000       0.00059473 </v>
   <v>       0.16928606       0.50000000       0.24135261 </v>
   <v>       0.34316398       0.00000000       0.19317535 </v>
   <v>       0.82391493       0.50000000       0.19778715 </v>
   <v>       0.32616510       0.00000000       0.68587149 </v>
   <v>       0.66777808       0.00000000       0.44516252 </v>
   <v>       0.67276308       0.00000000       0.92566521 </v>
   <v>       0.83732761       0.50000000       0.68213719 </v>
   <v>       0.16471427       0.50000000       0.45361818 </v>
   <v>       0.16545812       0.50000000       0.92567514 </v>
  </varray>
 </structure>
 <calculation>
  <scstep>
   <time name="dav">    0.77    0.77</time>
   <time name="total">    0.84    0.85</time>
   <energy>
    <i name="alphaZ">     69.25844944 </i>
    <i name="ewald">  -2232.74724971 </i>
    <i name="hartreedc">   -343.28347929 </i>
    <i name="XCdc">      4.53958628 </i>
    <i name="pawpsdc">   1796.64489807 </i>
    <i name="pawaedc">  -1619.21785927 </i>
    <i name="eentropy">     -0.01762948 </i>
    <i name="bandstr">    424.24061375 </i>
    <i name="atom">   2205.34103330 </i>
    <i name="e_fr_energy">    304.75836309 </i>
    <i name="e_wo_entrp">    304.77599257 </i>
    <i name="e_0_energy">    304.76717783 </i>
   </energy>
  </scstep>
  <scstep>
   <time name="dav">    0.92    0.92</time>
   <time name="total">    0.92    0.94</time>
   <energy>
    <i name="e_fr_energy">   -103.31839468 </i>
    <i name="e_wo_entrp">   -103.31839468 </i>
    <i name="e_0_energy">   -103.31839468 </i>
   </energy>
  </scstep>
  <scstep>
   <time name="dav">    0.92    0.92</time>
   <time name="total">    0.92    0.93</time>
   <energy>
    <i name="e_fr_energy">   -133.43936128 </i>
    <i name="e_wo_entrp">   -133.43936128 </i>
    <i name="e_0_energy">   -133.43936128 </i>
   </energy>
  </scstep>
  <scstep>
   <time name="dav">    0.91    0.91</time>
   <time name="total">    0.91    0.92</time>
   <energy>
    <i name="e_fr_energy">   -134.23082544 </i>
    <i name="e_wo_entrp">   -134.23082544 </i>
    <i name="e_0_energy">   -134.23082544 </i>
   </energy>
  </scstep>
  <scstep>
   <time name="dav">    0.91    0.91</time>
   <time name="total">    1.03    1.04</time>
   <energy>
    <i name="e_fr_energy">   -134.25578508 </i>
    <i name="e_wo_entrp">   -134.25578508 </i>
    <i name="e_0_energy">   -134.25578508 </i>
   </energy>
  </scstep>
  <scstep>
   <time name="diag">    0.17    0.17</time>
   <time name="diis">    0.57    0.57</time>
   <time name="orth">    0.02    0.02</time>
   <time name="total">    0.94    0.95</time>
   <energy>
    <i name="e_fr_energy">   -115.98248576 </i>
    <i name="e_wo_entrp">   -115.98248576 </i>
    <i name="e_0_energy">   -115.98248576 </i>
   </energy>
  </scstep>
  <scstep>
   <time name="diag">    0.17    0.17</time>
   <time name="diis">    0.58    0.58</time>
   <time name="orth">    0.02    0.02</time>
   <time name="total">    0.96    0.97</time>
   <energy>
    <i name="e_fr_energy">   -115.54697661 </i>
    <i name="e_wo_entrp">   -115.54697661 </i>
    <i name="e_0_energy">   -115.54697661 </i>
   </energy>
  </scstep>
  <scstep>
   <time name="diag">    0.17    0.17</time>
   <time name="diis">    0.57    0.57</time>
   <time name="orth">    0.02    0.02</time>
   <time name="total">    0.94    0.95</time>
   <energy>
    <i name="e_fr_energy">   -115.57962738 </i>
    <i name="e_wo_entrp">   -115.57962717 </i>
    <i name="e_0_energy">   -115.57962728 </i>
   </energy>
  </scstep>
  <scstep>
   <time name="diag">    0.17    0.17</time>
   <time name="diis">    0.54    0.54</time>
   <time name="orth">    0.02    0.02</time>
   <time name="total">    0.91    0.92</time>
   <energy>
    <i name="e_fr_energy">   -115.34705331 </i>
    <i name="e_wo_entrp">   -115.34458713 </i>
    <i name="e_0_energy">   -115.34582022 </i>
   </energy>
  </scstep>
  <scstep>
   <time name="diag">    0.17    0.17</time>
   <time name="diis">    0.58    0.58</time>
   <time name="orth">    0.02    0.02</time>
   <time name="total">    0.95    0.96</time>
   <energy>
    <i name="e_fr_energy">   -115.35052345 </i>
    <i name="e_wo_entrp">   -115.34872060 </i>
    <i name="e_0_energy">   -115.34962203 </i>
   </energy>
  </scstep>
  <scstep>
   <time name="diag">    0.17    0.17</time>
   <time name="diis">    0.56    0.56</time>
   <time name="orth">    0.02    0.02</time>
   <time name="total">    0.93    0.94</time>
   <energy>
    <i name="e_fr_energy">   -115.35053686 </i>
    <i name="e_wo_entrp">   -115.34958223 </i>
    <i name="e_0_energy">   -115.35005954 </i>
   </energy>
  </scstep>
  <scstep>
   <time name="diag">    0.17    0.17</time>
   <time name="diis">    0.55    0.55</time>
   <time name="orth">    0.02    0.02</time>
   <time name="total">    0.92    0.93</time>
   <energy>
    <i name="e_fr_energy">   -115.35041552 </i>
    <i name="e_wo_entrp">   -115.34921646 </i>
    <i name="e_0_energy">   -115.34981599 </i>
   </energy>
  </scstep>
  <scstep>
   <time name="diag">    0.17    0.17</time>
   <time name="diis">    0.56    0.56</time>
   <time name="orth">    0.02    0.02</time>
   <time name="total">    0.92    0.94</time>
   <energy>
    <i name="e_fr_energy">   -115.35036599 </i>
    <i name="e_wo_entrp">   -115.34923194 </i>
    <i name="e_0_energy">   -115.34979897 </i>
   </energy>
  </scstep>
  <scstep>
   <time name="diag">    0.17    0.17</time>
   <time name="diis">    0.56    0.56</time>
   <time name="orth">    0.02    0.02</time>
   <time name="total">    0.92    0.94</time>
   <energy>
    <i name="e_fr_energy">   -115.35037208 </i>
    <i name="e_wo_entrp">   -115.34921903 </i>
    <i name="e_0_energy">   -115.34979555 </i>
   </energy>
  </scstep>
  <scstep>
   <time name="diag">    0.17    0.17</time>
   <time name="diis">    0.55    0.55</time>
   <time name="orth">    0.02    0.02</time>
   <time name="total">    0.92    0.94</time>
   <energy>
    <i name="e_fr_energy">   -115.35037320 </i>
    <i name="e_wo_entrp">   -115.34922645 </i>
    <i name="e_0_energy">   -115.34979983 </i>
   </energy>
  </scstep>
  <scstep>
   <time name="diag">    0.17    0.17</time>
   <time name="diis">    0.37    0.37</time>
   <time name="orth">    0.02    0.02</time>
   <time name="total">    0.63    0.64</time>
   <energy>
    <i name="alphaZ">     69.25844944 </i>
    <i name="ewald">  -2232.74724971 </i>
    <i name="hartreedc">   -439.65662655 </i>
    <i name="XCdc">     13.66691414 </i>
    <i name="pawpsdc">   9444.97290822 </i>
    <i name="pawaedc">  -9270.92462444 </i>
    <i name="eentropy">     -0.00114140 </i>
    <i name="bandstr">     94.73996383 </i>
    <i name="atom">   2205.34103330 </i>
    <i name="e_fr_energy">   -115.35037317 </i>
    <i name="e_wo_entrp">   -115.34923177 </i>
    <i name="e_0_energy">   -115.34980247 </i>
   </energy>
  </scstep>
  <structure>
   <crystal>
    <varray name="basis" >
     <v>       5.38954928       0.00000000      -0.00227678 </v>
     <v>       0.00000000       3.12813377       0.00000000 </v>
     <v>      -0.00418985       0.00000000      10.16008471 </v>
    </varray>
    <i name="volume">    171.29118619 </i>
    <varray name="rec_basis" >
     <v>       0.18554430       0.00000000       0.00007652 </v>
     <v>       0.00000000       0.31967942       0.00000000 </v>
     <v>       0.00004158       0.00000000       0.09842439 </v>
    </varray>
   </crystal>
   <varray name="positions" >
    <v>       0.33358468       0.00000000       0.50044228 </v>
    <v>       0.83199651       0.50000000       0.49673107 </v>
    <v>       0.66434348       0.00000000       0.24177642 </v>
    <v>       0.16782787       0.50000000       0.75561875 </v>
    <v>       0.66171271       0.00000000       0.75505518 </v>
    <v>       0.33783648       0.00000000       0.99933674 </v>
    <v>       0.83212706       0.50000000       0.00059473 </v>
    <v>       0.16928606       0.50000000       0.24135261 </v>
    <v>       0.34316398       0.00000000       0.19317535 </v>
    <v>       0.82391493       0.50000000       0.19778715 </v>
    <v>       0.32616510       0.00000000       0.68587149 </v>
    <v>       0.66777808       0.00000000       0.44516252 </v>
    <v>       0.67276308       0.00000000       0.92566521 </v>
    <v>       0.83732761       0.50000000       0.68213719 </v>
    <v>       0.16471427       0.50000000       0.45361818 </v>
    <v>       0.16545812       0.50000000       0.92567514 </v>
   </varray>
  </structure>
  <varray name="forces" >
   <v>       0.00096755       0.00000000       0.00375752 </v>
   <v>      -0.00669025       0.00000000      -0.00109223 </v>
   <v>       0.00615959       0.00000000       0.00048548 </v>
   <v>       0.00235784       0.00000000       0.00757039 </v>
   <v>       0.00138908       0.00000000       0.01103017 </v>
   <v>       0.00637200       0.00000000       0.00729458 </v>
   <v>       0.00782100       0.00000000       0.00205542 </v>
   <v>      -0.00508053       0.00000000      -0.00277668 </v>
   <v>       0.00153889       0.00000000       0.00369402 </v>
   <v>       0.00344592       0.00000000       0.00188873 </v>
   <v>      -0.00234155       0.00000000      -0.01219780 </v>
   <v>      -0.00339873       0.00000000      -0.00198608 </v>
   <v>       0.00353422       0.00000000      -0.00373898 </v>
   <v>      -0.00901407       0.00000000      -0.00271529 </v>
   <v>      -0.00991141       0.00000000       0.00086235 </v>
   <v>       0.00285044       0.00000000      -0.01413159 </v>
  </varray>
  <varray name="stress" >
   <v>       0.18658147       0.00000000       0.02328466 </v>
   <v>       0.00000000       0.23969071       0.00000000 </v>
   <v>       0.02328431       0.00000000      -0.56275143 </v>
  </varray>
  <energy>
   <i name="e_fr_energy">   -115.35037317 </i>
   <i name="e_wo_entrp">   -115.34980247 </i>
   <i name="e_0_energy">     -0.00114140 </i>
  </energy>
  <time name="totalsc">   16.50   16.74</time>
  <eigenvalues>
   <array>
    <dimension dim="1">band</dimension>
    <dimension dim="2">kpoint</dimension>
    <dimension dim="3">spin</dimension>
    <field>eigene</field>
    <field>occ</field>
    <set>
     <set comment="spin 1">
      <set comment="kpoint 1">
       <r>  -10.1243    1.0000 </r>
       <r>   -9.1065    1.0000 </r>
       <r>   -7.6444    1.0000 </r>
       <r>   -5.5643    1.0000 </r>
       <r>   -5.2637    1.0000 </r>
       <r>   -4.2637    1.0000 </r>
       <r>   -3.1657    1.0000 </r>
       <r>   -2.0148    1.0000 </r>
       <r>   -1.1878    1.0000 </r>
       <r>   -0.8358    1.0000 </r>
       <r>   -0.4763    1.0000 </r>
       <r>    1.5230    1.0000 </r>
       <r>    2.0125    1.0000 </r>
       <r>    2.4268    1.0000 </r>
       <r>    2.5749    1.0000 </r>
       <r>    3.1874    1.0000 </r>
       <r>    3.2971    1.0000 </r>
       <r>    3.4418    1.0000 </r>
       <r>    4.1784    1.0000 </r>
       <r>    4.4764    1.0000 </r>
       <r>    5.0263    1.0000 </r>
       <r>    5.1079    1.0000 </r>
       <r>    5.3683    1.0000 </r>
       <r>    5.4242    1.0000 </r>
       <r>    6.0469    1.0000 </r>
       <r>    6.4805    1.0000 </r>
       <r>    6.7854    1.0000 </r>
       <r>    7.4440    1.0000 </r>
       <r>    7.6648    1.0000 </r>
       <r>    8.3902    1.0000 </r>
       <r>    8.6713    1.0000 </r>
       <r>    8.9352    0.9539 </r>
       <r>    9.1677    0.0543 </r>
       <r>    9.7603    0.0000 </r>
       <r>   11.0735    0.0000 </r>
       <r>   11.3193    0.0000 </r>
       <r>   11.8769    0.0000 </r>
       <r>   12.0746    0.0000 </r>
       <r>   12.8475    0.0000 </r>
       <r>   13.5129    0.0000 </r>
       <r>   13.6714    0.0000 </r>
       <r>   13.9593    0.0000 </r>
       <r>   14.6842    0.0000 </r>
       <r>   15.2702    0.0000 </r>
      </set>
      <set comment="kpoint 2">
       <r>   -9.9936    1.0000 </r>
       <r>   -9.1222    1.0000 </r>
       <r>   -7.7115    1.0000 </r>
       <r>   -5.9926    1.0000 </r>
       <r>   -5.3205    1.0000 </r>
       <r>   -4.2579    1.0000 </r>
       <r>   -3.0509    1.0000 </r>
       <r>   -2.1765    1.0000 </r>
       <r>   -0.9452    1.0000 </r>
       <r>   -0.3808    1.0000 </r>
       <r>    0.0097    1.0000 </r>
       <r>    1.4720    1.0000 </r>
       <r>    2.3883    1.0000 </r>
       <r>    2.5263    1.0000 </r>
       <r>    2.6970    1.0000 </r>
       <r>    2.9838    1.0000 </r>
       <r>    3.3110    1.0000 </r>
       <r>    3.5048    1.0000 </r>
       <r>    3.8279    1.0000 </r>
       <r>    4.3718    1.0000 </r>
       <r>    4.7614    1.0000 </r>
       <r>    4.8900    1.0000 </r>
       <r>    5.2411    1.0000 </r>
       <r>    5.2684    1.0000 </r>
       <r>    6.0313    1.0000 </r>
       <r>    6.3711    1.0000 </r>
       <r>    6.8363    1.0000 </r>
       <r>    6.9099    1.0000 </r>
       <r>    7.4707    1.0000 </r>
       <r>    7.7149    1.0000 </r>
       <r>    8.3314    1.0000 </r>
       <r>    8.7749    1.0000 </r>
       <r>    9.5663    0.0000 </r>
       <r>   10.2706    0.0000 </r>
       <r>   11.4528    0.0000 </r>
       <r>   11.9471    0.0000 </r>
       <r>   12.3491    0.0000 </r>
       <r>   12.5723    0.0000 </r>
       <r>   12.8669    0.0000 </r>
       <r>   13.1921    0.0000 </r>
       <r>   13.5873    0.0000 </r>
       <r>   14.2071    0.0000 </r>
       <r>   14.6175    0.0000 </r>
       <r>   15.0004    0.0000 </r>
      </set>
      <set comment="kpoint 3">
       <r>   -9.8136    1.0000 </r>
       <r>   -9.1940    1.0000 </r>
       <r>   -7.7825    1.0000 </r>
       <r>   -6.2275    1.0000 </r>
       <r>   -5.5161    1.0000 </r>
       <r>   -4.1811    1.0000 </r>
       <r>   -2.9405    1.0000 </r>
       <r>   -2.6480    1.0000 </r>
       <r>   -0.2080    1.0000 </r>
       <r>    0.1825    1.0000 </r>
       <r>    1.0412    1.0000 </r>
       <r>    1.5242    1.0000 </r>
       <r>    1.6973    1.0000 </r>
       <r>    1.7490    1.0000 </r>
       <r>    2.6518    1.0000 </r>
       <r>    3.2835    1.0000 </r>
       <r>    3.2986    1.0000 </r>
       <r>    3.5231    1.0000 </r>
       <r>    3.8548    1.0000 </r>
       <r>    4.5732    1.0000 </r>
       <r>    4.7704    1.0000 </r>
       <r>    4.7788    1.0000 </r>
       <r>    5.1396    1.0000 </r>
       <r>    5.5346    1.0000 </r>
       <r>    5.9412    1.0000 </r>
       <r>    6.0305    1.0000 </r>
       <r>    6.0594    1.0000 </r>
       <r>    6.6776    1.0000 </r>
       <r>    6.8955    1.0000 </r>
       <r>    7.4323    1.0000 </r>
       <r>    8.2735    1.0000 </r>
       <r>    8.6064    1.0000 </r>
       <r>   10.2865    0.0000 </r>
       <r>   10.6161    0.0000 </r>
       <r>   11.3130    0.0000 </r>
       <r>   11.8743    0.0000 </r>
       <r>   12.9689    0.0000 </r>
       <r>   13.1749    0.0000 </r>
       <r>   13.4722    0.0000 </r>
       <r>   13.7081    0.0000 </r>
       <r>   13.8137    0.0000 </r>
       <r>   14.3490    0.0000 </r>
       <r>   14.6617    0.0000 </r>
       <r>   14.9018    0.0000 </r>
      </set>
      <set comment="kpoint 4">
       <r>   -9.8783    1.0000 </r>
       <r>   -8.9004    1.0000 </r>
       <r>   -7.4650    1.0000 </r>
       <r>   -5.2919    1.0000 </r>
       <r>   -5.1303    1.0000 </r>
       <r>   -3.9781    1.0000 </r>
       <r>   -2.9509    1.0000 </r>
       <r>   -1.7903    1.0000 </r>
       <r>   -0.9937    1.0000 </r>
       <r>   -0.6312    1.0000 </r>
       <r>   -0.2225    1.0000 </r>
       <r>    1.0132    1.0000 </r>
       <r>    1.8509    1.0000 </r>
       <r>    2.1474    1.0000 </r>
       <r>    2.2338    1.0000 </r>
       <r>    2.7327    1.0000 </r>
       <r>    3.0639    1.0000 </r>
       <r>    3.4508    1.0000 </r>
       <r>    3.8619    1.0000 </r>
       <r>    3.9159    1.0000 </r>
       <r>    4.1339    1.0000 </r>
       <r>    4.4141    1.0000 </r>
       <r>    4.7994    1.0000 </r>
       <r>    5.0432    1.0000 </r>
       <r>    5.3816    1.0000 </r>
       <r>    5.8314    1.0000 </r>
       <r>    6.6633    1.0000 </r>
       <r>    7.2083    1.0000 </r>
       <r>    7.3282    1.0000 </r>
       <r>    7.4818    1.0000 </r>
       <r>    7.7555    1.0000 </r>
       <r>    8.3717    1.0000 </r>
       <r>   10.5428    0.0000 </r>
       <r>   10.6648    0.0000 </r>
       <r>   11.3890    0.0000 </r>
       <r>   12.0731    0.0000 </r>
       <r>   12.5080    0.0000 </r>
       <r>   12.7041    0.0000 </r>
       <r>   12.9176    0.0000 </r>
       <r>   13.2753    0.0000 </r>
       <r>   13.5241    0.0000 </r>
       <r>   14.5396    0.0000 </r>
       <r>   14.7025    0.0000 </r>
       <r>   15.0142    0.0000 </r>
      </set>
      <set comment="kpoint 5">
       <r>   -9.7589    1.0000 </r>
       <r>   -8.9165    1.0000 </r>
       <r>   -7.5201    1.0000 </r>
       <r>   -5.7372    1.0000 </r>
       <r>   -5.0984    1.0000 </r>
       <r>   -3.9577    1.0000 </r>
       <r>   -2.8570    1.0000 </r>
       <r>   -1.9784    1.0000 </r>
       <r>   -0.8072    1.0000 </r>
       <r>   -0.1715    1.0000 </r>
       <r>    0.0594    1.0000 </r>
       <r>    1.2648    1.0000 </r>
       <r>    1.6814    1.0000 </r>
       <r>    1.9726    1.0000 </r>
       <r>    2.4581    1.0000 </r>
       <r>    2.6668    1.0000 </r>
       <r>    2.9782    1.0000 </r>
       <r>    3.4158    1.0000 </r>
       <r>    3.7084    1.0000 </r>
       <r>    3.8909    1.0000 </r>
       <r>    4.2741    1.0000 </r>
       <r>    4.5385    1.0000 </r>
       <r>    4.7944    1.0000 </r>
       <r>    5.0936    1.0000 </r>
       <r>    5.4226    1.0000 </r>
       <r>    5.7376    1.0000 </r>
       <r>    6.4392    1.0000 </r>
       <r>    6.8041    1.0000 </r>
       <r>    7.0610    1.0000 </r>
       <r>    7.3376    1.0000 </r>
       <r>    7.5790    1.0000 </r>
       <r>    8.2600    1.0000 </r>
       <r>   10.8200    0.0000 </r>
       <r>   11.0071    0.0000 </r>
       <r>   11.5120    0.0000 </r>
       <r>   12.3106    0.0000 </r>
       <r>   12.3967    0.0000 </r>
       <r>   12.7121    0.0000 </r>
       <r>   13.0651    0.0000 </r>
       <r>   13.5375    0.0000 </r>
       <r>   14.1199    0.0000 </r>
       <r>   14.4221    0.0000 </r>
       <r>   14.5746    0.0000 </r>
       <r>   14.9680    0.0000 </r>
      </set>
      <set comment="kpoint 6">
       <r>   -9.5996    1.0000 </r>
       <r>   -8.9771    1.0000 </r>
       <r>   -7.5791    1.0000 </r>
       <r>   -5.9658    1.0000 </r>
       <r>   -5.2528    1.0000 </r>
       <r>   -3.8693    1.0000 </r>
       <r>   -2.7406    1.0000 </r>
       <r>   -2.4196    1.0000 </r>
       <r>   -0.2074    1.0000 </r>
       <r>    0.1125    1.0000 </r>
       <r>    1.0644    1.0000 </r>
       <r>    1.1849    1.0000 </r>
       <r>    1.2894    1.0000 </r>
       <r>    1.4563    1.0000 </r>
       <r>    2.3394    1.0000 </r>
       <r>    2.6393    1.0000 </r>
       <r>    3.2848    1.0000 </r>
       <r>    3.5925    1.0000 </r>
       <r>    3.6414    1.0000 </r>
       <r>    3.9480    1.0000 </r>
       <r>    4.0147    1.0000 </r>
       <r>    4.5179    1.0000 </r>
       <r>    4.9024    1.0000 </r>
       <r>    5.2660    1.0000 </r>
       <r>    5.4648    1.0000 </r>
       <r>    5.7412    1.0000 </r>
       <r>    6.1765    1.0000 </r>
       <r>    6.3151    1.0000 </r>
       <r>    6.9896    1.0000 </r>
       <r>    7.2189    1.0000 </r>
       <r>    7.3813    1.0000 </r>
       <r>    7.7124    1.0000 </r>
       <r>   11.5409    0.0000 </r>
       <r>   11.7502    0.0000 </r>
       <r>   11.9812    0.0000 </r>
       <r>   12.0482    0.0000 </r>
       <r>   12.4761    0.0000 </r>
       <r>   12.7614    0.0000 </r>
       <r>   13.3976    0.0000 </r>
       <r>   13.6703    0.0000 </r>
       <r>   13.8543    0.0000 </r>
       <r>   14.0714    0.0000 </r>
       <r>   14.1372    0.0000 </r>
       <r>   14.7305    0.0000 </r>
      </set>
      <set comment="kpoint 7">
       <r>   -9.2713    1.0000 </r>
       <r>   -8.4167    1.0000 </r>
       <r>   -7.0532    1.0000 </r>
       <r>   -5.1194    1.0000 </r>
       <r>   -4.4817    1.0000 </r>
       <r>   -3.2159    1.0000 </r>
       <r>   -2.4395    1.0000 </r>
       <r>   -1.4939    1.0000 </r>
       <r>   -0.7350    1.0000 </r>
       <r>   -0.3274    1.0000 </r>
       <r>   -0.1449    1.0000 </r>
       <r>    0.1545    1.0000 </r>
       <r>    1.0665    1.0000 </r>
       <r>    1.4206    1.0000 </r>
       <r>    1.7008    1.0000 </r>
       <r>    2.2772    1.0000 </r>
       <r>    2.3825    1.0000 </r>
       <r>    2.7344    1.0000 </r>
       <r>    3.3118    1.0000 </r>
       <r>    3.4588    1.0000 </r>
       <r>    3.5307    1.0000 </r>
       <r>    3.8294    1.0000 </r>
       <r>    3.9593    1.0000 </r>
       <r>    4.3972    1.0000 </r>
       <r>    4.7053    1.0000 </r>
       <r>    5.5189    1.0000 </r>
       <r>    5.8334    1.0000 </r>
       <r>    6.0333    1.0000 </r>
       <r>    6.5921    1.0000 </r>
       <r>    6.8351    1.0000 </r>
       <r>    7.0475    1.0000 </r>
       <r>    7.5346    1.0000 </r>
       <r>   10.4101    0.0000 </r>
       <r>   11.7681    0.0000 </r>
       <r>   12.0417    0.0000 </r>
       <r>   12.2316    0.0000 </r>
       <r>   12.4794    0.0000 </r>
       <r>   13.0908    0.0000 </r>
       <r>   13.4294    0.0000 </r>
       <r>   13.6828    0.0000 </r>
       <r>   13.8102    0.0000 </r>
       <r>   13.9977    0.0000 </r>
       <r>   14.2083    0.0000 </r>
       <r>   14.9934    0.0000 </r>
      </set>
      <set comment="kpoint 8">
       <r>   -9.1908    1.0000 </r>
       <r>   -8.4308    1.0000 </r>
       <r>   -7.0794    1.0000 </r>
       <r>   -5.2339    1.0000 </r>
       <r>   -4.4979    1.0000 </r>
       <r>   -3.1528    1.0000 </r>
       <r>   -2.4727    1.0000 </r>
       <r>   -1.7307    1.0000 </r>
       <r>   -0.9420    1.0000 </r>
       <r>   -0.3817    1.0000 </r>
       <r>   -0.2439    1.0000 </r>
       <r>    0.6037    1.0000 </r>
       <r>    0.8639    1.0000 </r>
       <r>    1.3504    1.0000 </r>
       <r>    2.0766    1.0000 </r>
       <r>    2.2048    1.0000 </r>
       <r>    2.2818    1.0000 </r>
       <r>    2.8613    1.0000 </r>
       <r>    3.2359    1.0000 </r>
       <r>    3.4147    1.0000 </r>
       <r>    3.6521    1.0000 </r>
       <r>    4.0384    1.0000 </r>
       <r>    4.3467    1.0000 </r>
       <r>    4.7754    1.0000 </r>
       <r>    4.9513    1.0000 </r>
       <r>    5.4915    1.0000 </r>
       <r>    5.6597    1.0000 </r>
       <r>    6.0052    1.0000 </r>
       <r>    6.6777    1.0000 </r>
       <r>    6.9289    1.0000 </r>
       <r>    7.1548    1.0000 </r>
       <r>    7.7878    1.0000 </r>
       <r>   10.2211    0.0000 </r>
       <r>   10.8190    0.0000 </r>
       <r>   11.2342    0.0000 </r>
       <r>   11.9647    0.0000 </r>
       <r>   12.4124    0.0000 </r>
       <r>   12.7162    0.0000 </r>
       <r>   13.0595    0.0000 </r>
       <r>   13.2829    0.0000 </r>
       <r>   13.5896    0.0000 </r>
       <r>   13.9957    0.0000 </r>
       <r>   14.3694    0.0000 </r>
       <r>   14.8384    0.0000 </r>
      </set>
      <set comment="kpoint 9">
       <r>   -9.0941    1.0000 </r>
       <r>   -8.4617    1.0000 </r>
       <r>   -7.1072    1.0000 </r>
       <r>   -5.3352    1.0000 </r>
       <r>   -4.5314    1.0000 </r>
       <r>   -3.0628    1.0000 </r>
       <r>   -2.4260    1.0000 </r>
       <r>   -1.9913    1.0000 </r>
       <r>   -1.0637    1.0000 </r>
       <r>   -0.6388    1.0000 </r>
       <r>    0.0013    1.0000 </r>
       <r>    0.0535    1.0000 </r>
       <r>    1.1673    1.0000 </r>
       <r>    1.8543    1.0000 </r>
       <r>    1.9452    1.0000 </r>
       <r>    2.2305    1.0000 </r>
       <r>    2.6004    1.0000 </r>
       <r>    3.0833    1.0000 </r>
       <r>    3.1811    1.0000 </r>
       <r>    3.3566    1.0000 </r>
       <r>    3.5992    1.0000 </r>
       <r>    4.0297    1.0000 </r>
       <r>    4.5075    1.0000 </r>
       <r>    4.8318    1.0000 </r>
       <r>    5.0492    1.0000 </r>
       <r>    5.6660    1.0000 </r>
       <r>    6.0464    1.0000 </r>
       <r>    6.4572    1.0000 </r>
       <r>    6.5164    1.0000 </r>
       <r>    6.9167    1.0000 </r>
       <r>    7.3166    1.0000 </r>
       <r>    7.5352    1.0000 </r>
       <r>   10.0381    0.0000 </r>
       <r>   10.5406    0.0000 </r>
       <r>   10.7987    0.0000 </r>
       <r>   11.4821    0.0000 </r>
       <r>   12.1829    0.0000 </r>
       <r>   12.5711    0.0000 </r>
       <r>   12.7049    0.0000 </r>
       <r>   12.7963    0.0000 </r>
       <r>   13.1746    0.0000 </r>
       <r>   13.6594    0.0000 </r>
       <r>   14.3392    0.0000 </r>
       <r>   14.8792    0.0000 </r>
      </set>
      <set comment="kpoint 10">
       <r>   -8.8673    1.0000 </r>
       <r>   -8.1211    1.0000 </r>
       <r>   -6.8060    1.0000 </r>
       <r>   -5.2934    1.0000 </r>
       <r>   -3.9564    1.0000 </r>
       <r>   -2.5015    1.0000 </r>
       <r>   -2.0177    1.0000 </r>
       <r>   -1.7915    1.0000 </r>
       <r>   -0.7877    1.0000 </r>
       <r>   -0.7344    1.0000 </r>
       <r>   -0.1661    1.0000 </r>
       <r>    0.0886    1.0000 </r>
       <r>    0.6253    1.0000 </r>
       <r>    1.3512    1.0000 </r>
       <r>    1.5937    1.0000 </r>
       <r>    1.9363    1.0000 </r>
       <r>    1.9420    1.0000 </r>
       <r>    2.7048    1.0000 </r>
       <r>    2.7216    1.0000 </r>
       <r>    3.0020    1.0000 </r>
       <r>    3.2912    1.0000 </r>
       <r>    3.3480    1.0000 </r>
       <r>    4.2547    1.0000 </r>
       <r>    4.3960    1.0000 </r>
       <r>    4.9427    1.0000 </r>
       <r>    5.1214    1.0000 </r>
       <r>    5.2307    1.0000 </r>
       <r>    5.8925    1.0000 </r>
       <r>    6.0751    1.0000 </r>
       <r>    6.1573    1.0000 </r>
       <r>    6.9152    1.0000 </r>
       <r>    7.1695    1.0000 </r>
       <r>   10.9522    0.0000 </r>
       <r>   11.2726    0.0000 </r>
       <r>   11.6314    0.0000 </r>
       <r>   12.3577    0.0000 </r>
       <r>   12.6820    0.0000 </r>
       <r>   13.1749    0.0000 </r>
       <r>   13.1898    0.0000 </r>
       <r>   13.4898    0.0000 </r>
       <r>   13.6814    0.0000 </r>
       <r>   14.2403    0.0000 </r>
       <r>   14.7731    0.0000 </r>
       <r>   15.0270    0.0000 </r>
      </set>
      <set comment="kpoint 11">
       <r>   -8.8269    1.0000 </r>
       <r>   -8.1293    1.0000 </r>
       <r>   -6.8143    1.0000 </r>
       <r>   -5.1484    1.0000 </r>
       <r>   -3.9081    1.0000 </r>
       <r>   -2.6312    1.0000 </r>
       <r>   -2.0677    1.0000 </r>
       <r>   -1.9175    1.0000 </r>
       <r>   -1.1425    1.0000 </r>
       <r>   -1.0713    1.0000 </r>
       <r>   -0.6081    1.0000 </r>
       <r>   -0.2166    1.0000 </r>
       <r>    1.1367    1.0000 </r>
       <r>    1.4075    1.0000 </r>
       <r>    1.9107    1.0000 </r>
       <r>    1.9123    1.0000 </r>
       <r>    2.5077    1.0000 </r>
       <r>    2.8032    1.0000 </r>
       <r>    2.8379    1.0000 </r>
       <r>    3.0792    1.0000 </r>
       <r>    3.1019    1.0000 </r>
       <r>    3.7126    1.0000 </r>
       <r>    3.8349    1.0000 </r>
       <r>    4.7428    1.0000 </r>
       <r>    4.8609    1.0000 </r>
       <r>    5.4392    1.0000 </r>
       <r>    5.7203    1.0000 </r>
       <r>    6.1682    1.0000 </r>
       <r>    6.5080    1.0000 </r>
       <r>    6.5817    1.0000 </r>
       <r>    7.0978    1.0000 </r>
       <r>    7.2094    1.0000 </r>
       <r>   10.2032    0.0000 </r>
       <r>   10.6731    0.0000 </r>
       <r>   11.0978    0.0000 </r>
       <r>   11.5969    0.0000 </r>
       <r>   11.9493    0.0000 </r>
       <r>   12.3431    0.0000 </r>
       <r>   12.4164    0.0000 </r>
       <r>   12.7157    0.0000 </r>
       <r>   13.2341    0.0000 </r>
       <r>   13.3240    0.0000 </r>
       <r>   14.6656    0.0000 </r>
       <r>   15.0522    0.0000 </r>
      </set>
      <set comment="kpoint 12">
       <r>   -8.7831    1.0000 </r>
       <r>   -8.1410    1.0000 </r>
       <r>   -6.8228    1.0000 </r>
       <r>   -4.9550    1.0000 </r>
       <r>   -3.9213    1.0000 </r>
       <r>   -2.7971    1.0000 </r>
       <r>   -2.1483    1.0000 </r>
       <r>   -1.9625    1.0000 </r>
       <r>   -1.3354    1.0000 </r>
       <r>   -1.3045    1.0000 </r>
       <r>   -0.9190    1.0000 </r>
       <r>   -0.4041    1.0000 </r>
       <r>    1.0688    1.0000 </r>
       <r>    1.3177    1.0000 </r>
       <r>    1.9677    1.0000 </r>
       <r>    2.3136    1.0000 </r>
       <r>    2.3790    1.0000 </r>
       <r>    2.9683    1.0000 </r>
       <r>    3.0881    1.0000 </r>
       <r>    3.4787    1.0000 </r>
       <r>    3.4807    1.0000 </r>
       <r>    3.5750    1.0000 </r>
       <r>    4.4829    1.0000 </r>
       <r>    4.6539    1.0000 </r>
       <r>    4.7113    1.0000 </r>
       <r>    5.8747    1.0000 </r>
       <r>    5.9829    1.0000 </r>
       <r>    6.5163    1.0000 </r>
       <r>    6.6029    1.0000 </r>
       <r>    6.7912    1.0000 </r>
       <r>    7.5364    1.0000 </r>
       <r>    7.7251    1.0000 </r>
       <r>    9.1873    0.0299 </r>
       <r>    9.8743    0.0000 </r>
       <r>   10.0328    0.0000 </r>
       <r>   11.0441    0.0000 </r>
       <r>   11.7934    0.0000 </r>
       <r>   11.9241    0.0000 </r>
       <r>   12.0060    0.0000 </r>
       <r>   12.2760    0.0000 </r>
       <r>   12.9913    0.0000 </r>
       <r>   13.0137    0.0000 </r>
       <r>   14.1447    0.0000 </r>
       <r>   14.3180    0.0000 </r>
      </set>
      <set comment="kpoint 13">
       <r>  -10.1220    1.0000 </r>
       <r>   -9.1130    1.0000 </r>
       <r>   -7.6455    1.0000 </r>
       <r>   -5.5084    1.0000 </r>
       <r>   -5.2645    1.0000 </r>
       <r>   -4.2751    1.0000 </r>
       <r>   -3.3403    1.0000 </r>
       <r>   -1.9594    1.0000 </r>
       <r>   -1.2957    1.0000 </r>
       <r>   -0.7660    1.0000 </r>
       <r>    0.1494    1.0000 </r>
       <r>    1.3287    1.0000 </r>
       <r>    1.4777    1.0000 </r>
       <r>    2.1461    1.0000 </r>
       <r>    2.4277    1.0000 </r>
       <r>    3.1369    1.0000 </r>
       <r>    3.2958    1.0000 </r>
       <r>    3.7941    1.0000 </r>
       <r>    4.4731    1.0000 </r>
       <r>    4.9413    1.0000 </r>
       <r>    4.9995    1.0000 </r>
       <r>    5.2630    1.0000 </r>
       <r>    5.3654    1.0000 </r>
       <r>    5.4017    1.0000 </r>
       <r>    6.0548    1.0000 </r>
       <r>    6.3238    1.0000 </r>
       <r>    6.7778    1.0000 </r>
       <r>    6.9330    1.0000 </r>
       <r>    7.7253    1.0000 </r>
       <r>    8.3749    1.0000 </r>
       <r>    8.6732    1.0000 </r>
       <r>    8.9338    0.9558 </r>
       <r>    9.2414    0.0041 </r>
       <r>    9.5240    0.0000 </r>
       <r>   10.9196    0.0000 </r>
       <r>   11.5267    0.0000 </r>
       <r>   11.6559    0.0000 </r>
       <r>   12.3046    0.0000 </r>
       <r>   13.3387    0.0000 </r>
       <r>   13.5195    0.0000 </r>
       <r>   13.8353    0.0000 </r>
       <r>   13.9858    0.0000 </r>
       <r>   14.3639    0.0000 </r>
       <r>   14.7715    0.0000 </r>
      </set>
      <set comment="kpoint 14">
       <r>   -9.9916    1.0000 </r>
       <r>   -9.1260    1.0000 </r>
       <r>   -7.7162    1.0000 </r>
       <r>   -5.9609    1.0000 </r>
       <r>   -5.3598    1.0000 </r>
       <r>   -4.1017    1.0000 </r>
       <r>   -3.3188    1.0000 </r>
       <r>   -2.1378    1.0000 </r>
       <r>   -1.0913    1.0000 </r>
       <r>   -0.0776    1.0000 </r>
       <r>    0.2839    1.0000 </r>
       <r>    1.5396    1.0000 </r>
       <r>    1.7093    1.0000 </r>
       <r>    2.5270    1.0000 </r>
       <r>    2.7945    1.0000 </r>
       <r>    3.1170    1.0000 </r>
       <r>    3.3106    1.0000 </r>
       <r>    3.4294    1.0000 </r>
       <r>    3.6322    1.0000 </r>
       <r>    4.2240    1.0000 </r>
       <r>    4.8751    1.0000 </r>
       <r>    5.1299    1.0000 </r>
       <r>    5.2818    1.0000 </r>
       <r>    5.5241    1.0000 </r>
       <r>    6.0369    1.0000 </r>
       <r>    6.2994    1.0000 </r>
       <r>    6.8449    1.0000 </r>
       <r>    6.9514    1.0000 </r>
       <r>    7.3015    1.0000 </r>
       <r>    7.8029    1.0000 </r>
       <r>    8.3137    1.0000 </r>
       <r>    8.7692    1.0000 </r>
       <r>    9.5341    0.0000 </r>
       <r>   10.1765    0.0000 </r>
       <r>   11.3129    0.0000 </r>
       <r>   11.9726    0.0000 </r>
       <r>   12.2314    0.0000 </r>
       <r>   12.6509    0.0000 </r>
       <r>   12.9628    0.0000 </r>
       <r>   13.2465    0.0000 </r>
       <r>   13.9687    0.0000 </r>
       <r>   14.2823    0.0000 </r>
       <r>   14.4807    0.0000 </r>
       <r>   14.8198    0.0000 </r>
      </set>
      <set comment="kpoint 15">
       <r>   -9.8123    1.0000 </r>
       <r>   -9.1951    1.0000 </r>
       <r>   -7.7866    1.0000 </r>
       <r>   -6.2265    1.0000 </r>
       <r>   -5.5470    1.0000 </r>
       <r>   -3.8560    1.0000 </r>
       <r>   -3.3133    1.0000 </r>
       <r>   -2.7398    1.0000 </r>
       <r>   -0.0773    1.0000 </r>
       <r>    0.4154    1.0000 </r>
       <r>    1.1659    1.0000 </r>
       <r>    1.2990    1.0000 </r>
       <r>    1.8019    1.0000 </r>
       <r>    2.2001    1.0000 </r>
       <r>    2.5172    1.0000 </r>
       <r>    2.6520    1.0000 </r>
       <r>    3.2299    1.0000 </r>
       <r>    3.2990    1.0000 </r>
       <r>    4.0904    1.0000 </r>
       <r>    4.2661    1.0000 </r>
       <r>    4.7753    1.0000 </r>
       <r>    4.8879    1.0000 </r>
       <r>    5.1350    1.0000 </r>
       <r>    5.5131    1.0000 </r>
       <r>    5.9548    1.0000 </r>
       <r>    6.0336    1.0000 </r>
       <r>    6.3096    1.0000 </r>
       <r>    6.9217    1.0000 </r>
       <r>    6.9904    1.0000 </r>
       <r>    7.4753    1.0000 </r>
       <r>    8.2538    1.0000 </r>
       <r>    8.5930    1.0000 </r>
       <r>   10.1205    0.0000 </r>
       <r>   10.6950    0.0000 </r>
       <r>   11.2618    0.0000 </r>
       <r>   11.9206    0.0000 </r>
       <r>   12.6242    0.0000 </r>
       <r>   13.2062    0.0000 </r>
       <r>   13.3909    0.0000 </r>
       <r>   13.5775    0.0000 </r>
       <r>   13.8222    0.0000 </r>
       <r>   14.3700    0.0000 </r>
       <r>   14.5101    0.0000 </r>
       <r>   14.9745    0.0000 </r>
      </set>
      <set comment="kpoint 16">
       <r>   -9.8762    1.0000 </r>
       <r>   -8.9060    1.0000 </r>
       <r>   -7.4655    1.0000 </r>
       <r>   -5.2835    1.0000 </r>
       <r>   -5.0902    1.0000 </r>
       <r>   -3.9721    1.0000 </r>
       <r>   -3.1223    1.0000 </r>
       <r>   -1.7632    1.0000 </r>
       <r>   -1.0537    1.0000 </r>
       <r>   -0.5657    1.0000 </r>
       <r>    0.3141    1.0000 </r>
       <r>    1.0591    1.0000 </r>
       <r>    1.4989    1.0000 </r>
       <r>    1.6861    1.0000 </r>
       <r>    2.1877    1.0000 </r>
       <r>    2.3818    1.0000 </r>
       <r>    3.2331    1.0000 </r>
       <r>    3.7032    1.0000 </r>
       <r>    3.9554    1.0000 </r>
       <r>    4.1324    1.0000 </r>
       <r>    4.2029    1.0000 </r>
       <r>    4.6445    1.0000 </r>
       <r>    4.8904    1.0000 </r>
       <r>    5.0799    1.0000 </r>
       <r>    5.3850    1.0000 </r>
       <r>    5.6338    1.0000 </r>
       <r>    6.5259    1.0000 </r>
       <r>    6.9252    1.0000 </r>
       <r>    7.3125    1.0000 </r>
       <r>    7.4896    1.0000 </r>
       <r>    7.7875    1.0000 </r>
       <r>    8.3706    1.0000 </r>
       <r>   10.3745    0.0000 </r>
       <r>   10.8083    0.0000 </r>
       <r>   11.6307    0.0000 </r>
       <r>   12.2265    0.0000 </r>
       <r>   12.4405    0.0000 </r>
       <r>   12.8376    0.0000 </r>
       <r>   12.9438    0.0000 </r>
       <r>   13.7315    0.0000 </r>
       <r>   13.9169    0.0000 </r>
       <r>   14.2794    0.0000 </r>
       <r>   14.5053    0.0000 </r>
       <r>   14.6580    0.0000 </r>
      </set>
      <set comment="kpoint 17">
       <r>   -9.7571    1.0000 </r>
       <r>   -8.9199    1.0000 </r>
       <r>   -7.5233    1.0000 </r>
       <r>   -5.7136    1.0000 </r>
       <r>   -5.1309    1.0000 </r>
       <r>   -3.7968    1.0000 </r>
       <r>   -3.1156    1.0000 </r>
       <r>   -1.9228    1.0000 </r>
       <r>   -0.9462    1.0000 </r>
       <r>   -0.0245    1.0000 </r>
       <r>    0.3679    1.0000 </r>
       <r>    1.2426    1.0000 </r>
       <r>    1.5274    1.0000 </r>
       <r>    1.9392    1.0000 </r>
       <r>    2.2070    1.0000 </r>
       <r>    2.8693    1.0000 </r>
       <r>    3.1859    1.0000 </r>
       <r>    3.3264    1.0000 </r>
       <r>    3.6284    1.0000 </r>
       <r>    3.7541    1.0000 </r>
       <r>    4.1347    1.0000 </r>
       <r>    4.6547    1.0000 </r>
       <r>    4.7801    1.0000 </r>
       <r>    5.1371    1.0000 </r>
       <r>    5.3483    1.0000 </r>
       <r>    5.8498    1.0000 </r>
       <r>    6.4042    1.0000 </r>
       <r>    6.8262    1.0000 </r>
       <r>    7.1789    1.0000 </r>
       <r>    7.2729    1.0000 </r>
       <r>    7.6486    1.0000 </r>
       <r>    8.2504    1.0000 </r>
       <r>   10.7086    0.0000 </r>
       <r>   11.0696    0.0000 </r>
       <r>   11.6022    0.0000 </r>
       <r>   12.2245    0.0000 </r>
       <r>   12.4437    0.0000 </r>
       <r>   13.0518    0.0000 </r>
       <r>   13.1697    0.0000 </r>
       <r>   13.6419    0.0000 </r>
       <r>   13.8703    0.0000 </r>
       <r>   14.0856    0.0000 </r>
       <r>   14.2786    0.0000 </r>
       <r>   15.0790    0.0000 </r>
      </set>
      <set comment="kpoint 18">
       <r>   -9.5984    1.0000 </r>
       <r>   -8.9783    1.0000 </r>
       <r>   -7.5822    1.0000 </r>
       <r>   -5.9607    1.0000 </r>
       <r>   -5.2894    1.0000 </r>
       <r>   -3.5564    1.0000 </r>
       <r>   -3.0845    1.0000 </r>
       <r>   -2.4774    1.0000 </r>
       <r>   -0.2248    1.0000 </r>
       <r>    0.2279    1.0000 </r>
       <r>    0.9402    1.0000 </r>
       <r>    1.2119    1.0000 </r>
       <r>    1.4207    1.0000 </r>
       <r>    1.8856    1.0000 </r>
       <r>    2.3243    1.0000 </r>
       <r>    2.7515    1.0000 </r>
       <r>    3.0082    1.0000 </r>
       <r>    3.4047    1.0000 </r>
       <r>    3.6312    1.0000 </r>
       <r>    3.9207    1.0000 </r>
       <r>    4.0474    1.0000 </r>
       <r>    4.1806    1.0000 </r>
       <r>    4.6132    1.0000 </r>
       <r>    5.0746    1.0000 </r>
       <r>    5.5811    1.0000 </r>
       <r>    6.0284    1.0000 </r>
       <r>    6.2367    1.0000 </r>
       <r>    6.4244    1.0000 </r>
       <r>    7.1025    1.0000 </r>
       <r>    7.2715    1.0000 </r>
       <r>    7.6101    1.0000 </r>
       <r>    7.7288    1.0000 </r>
       <r>   11.4642    0.0000 </r>
       <r>   11.8663    0.0000 </r>
       <r>   11.9715    0.0000 </r>
       <r>   11.9880    0.0000 </r>
       <r>   12.3497    0.0000 </r>
       <r>   12.6920    0.0000 </r>
       <r>   13.2124    0.0000 </r>
       <r>   13.5904    0.0000 </r>
       <r>   13.7619    0.0000 </r>
       <r>   14.1441    0.0000 </r>
       <r>   14.3837    0.0000 </r>
       <r>   14.6872    0.0000 </r>
      </set>
      <set comment="kpoint 19">
       <r>   -9.2699    1.0000 </r>
       <r>   -8.4199    1.0000 </r>
       <r>   -7.0525    1.0000 </r>
       <r>   -5.1217    1.0000 </r>
       <r>   -4.4721    1.0000 </r>
       <r>   -3.1162    1.0000 </r>
       <r>   -2.6091    1.0000 </r>
       <r>   -1.5234    1.0000 </r>
       <r>   -0.6667    1.0000 </r>
       <r>   -0.2649    1.0000 </r>
       <r>   -0.1328    1.0000 </r>
       <r>    0.1773    1.0000 </r>
       <r>    1.1069    1.0000 </r>
       <r>    1.3047    1.0000 </r>
       <r>    1.7748    1.0000 </r>
       <r>    2.1294    1.0000 </r>
       <r>    2.2526    1.0000 </r>
       <r>    2.9750    1.0000 </r>
       <r>    3.1424    1.0000 </r>
       <r>    3.2821    1.0000 </r>
       <r>    3.8162    1.0000 </r>
       <r>    3.8959    1.0000 </r>
       <r>    4.1827    1.0000 </r>
       <r>    4.5512    1.0000 </r>
       <r>    4.7422    1.0000 </r>
       <r>    5.0380    1.0000 </r>
       <r>    5.6675    1.0000 </r>
       <r>    6.0418    1.0000 </r>
       <r>    6.5332    1.0000 </r>
       <r>    6.8076    1.0000 </r>
       <r>    7.2784    1.0000 </r>
       <r>    7.4335    1.0000 </r>
       <r>   10.9772    0.0000 </r>
       <r>   11.7784    0.0000 </r>
       <r>   11.9988    0.0000 </r>
       <r>   12.2709    0.0000 </r>
       <r>   12.3455    0.0000 </r>
       <r>   12.8544    0.0000 </r>
       <r>   13.3165    0.0000 </r>
       <r>   13.7435    0.0000 </r>
       <r>   14.0544    0.0000 </r>
       <r>   14.0889    0.0000 </r>
       <r>   14.4757    0.0000 </r>
       <r>   14.8073    0.0000 </r>
      </set>
      <set comment="kpoint 20">
       <r>   -9.1896    1.0000 </r>
       <r>   -8.4329    1.0000 </r>
       <r>   -7.0797    1.0000 </r>
       <r>   -5.2267    1.0000 </r>
       <r>   -4.5184    1.0000 </r>
       <r>   -3.0142    1.0000 </r>
       <r>   -2.6227    1.0000 </r>
       <r>   -1.6713    1.0000 </r>
       <r>   -1.0290    1.0000 </r>
       <r>   -0.3711    1.0000 </r>
       <r>   -0.2845    1.0000 </r>
       <r>    0.5448    1.0000 </r>
       <r>    0.8909    1.0000 </r>
       <r>    1.6596    1.0000 </r>
       <r>    1.8878    1.0000 </r>
       <r>    2.1790    1.0000 </r>
       <r>    2.3548    1.0000 </r>
       <r>    2.9822    1.0000 </r>
       <r>    3.2548    1.0000 </r>
       <r>    3.3590    1.0000 </r>
       <r>    3.8403    1.0000 </r>
       <r>    4.0193    1.0000 </r>
       <r>    4.2631    1.0000 </r>
       <r>    4.5458    1.0000 </r>
       <r>    4.7310    1.0000 </r>
       <r>    5.4809    1.0000 </r>
       <r>    5.7018    1.0000 </r>
       <r>    5.9679    1.0000 </r>
       <r>    6.6838    1.0000 </r>
       <r>    7.0895    1.0000 </r>
       <r>    7.2641    1.0000 </r>
       <r>    7.7492    1.0000 </r>
       <r>   10.1748    0.0000 </r>
       <r>   10.8993    0.0000 </r>
       <r>   11.3394    0.0000 </r>
       <r>   11.8680    0.0000 </r>
       <r>   12.3055    0.0000 </r>
       <r>   12.8483    0.0000 </r>
       <r>   13.2731    0.0000 </r>
       <r>   13.3808    0.0000 </r>
       <r>   13.8751    0.0000 </r>
       <r>   14.0516    0.0000 </r>
       <r>   14.4101    0.0000 </r>
       <r>   14.6695    0.0000 </r>
      </set>
      <set comment="kpoint 21">
       <r>   -9.0933    1.0000 </r>
       <r>   -8.4629    1.0000 </r>
       <r>   -7.1079    1.0000 </r>
       <r>   -5.3253    1.0000 </r>
       <r>   -4.5711    1.0000 </r>
       <r>   -2.9272    1.0000 </r>
       <r>   -2.4811    1.0000 </r>
       <r>   -1.9155    1.0000 </r>
       <r>   -1.2282    1.0000 </r>
       <r>   -0.7562    1.0000 </r>
       <r>   -0.0862    1.0000 </r>
       <r>    0.0865    1.0000 </r>
       <r>    1.2666    1.0000 </r>
       <r>    1.8964    1.0000 </r>
       <r>    2.2968    1.0000 </r>
       <r>    2.3242    1.0000 </r>
       <r>    2.7677    1.0000 </r>
       <r>    2.9735    1.0000 </r>
       <r>    3.1835    1.0000 </r>
       <r>    3.4270    1.0000 </r>
       <r>    3.6794    1.0000 </r>
       <r>    3.7852    1.0000 </r>
       <r>    4.0466    1.0000 </r>
       <r>    4.3864    1.0000 </r>
       <r>    5.1098    1.0000 </r>
       <r>    5.7974    1.0000 </r>
       <r>    6.1367    1.0000 </r>
       <r>    6.4639    1.0000 </r>
       <r>    6.6278    1.0000 </r>
       <r>    7.2108    1.0000 </r>
       <r>    7.3671    1.0000 </r>
       <r>    7.5130    1.0000 </r>
       <r>   10.0397    0.0000 </r>
       <r>   10.4155    0.0000 </r>
       <r>   10.7310    0.0000 </r>
       <r>   11.3195    0.0000 </r>
       <r>   11.7656    0.0000 </r>
       <r>   12.5587    0.0000 </r>
       <r>   12.9805    0.0000 </r>
       <r>   13.2822    0.0000 </r>
       <r>   13.4809    0.0000 </r>
       <r>   13.8446    0.0000 </r>
       <r>   14.2974    0.0000 </r>
       <r>   14.6723    0.0000 </r>
      </set>
      <set comment="kpoint 22">
       <r>   -8.8665    1.0000 </r>
       <r>   -8.1227    1.0000 </r>
       <r>   -6.8052    1.0000 </r>
       <r>   -5.2857    1.0000 </r>
       <r>   -4.0020    1.0000 </r>
       <r>   -2.4168    1.0000 </r>
       <r>   -1.9872    1.0000 </r>
       <r>   -1.7260    1.0000 </r>
       <r>   -0.8845    1.0000 </r>
       <r>   -0.8503    1.0000 </r>
       <r>   -0.0994    1.0000 </r>
       <r>   -0.0028    1.0000 </r>
       <r>    0.6184    1.0000 </r>
       <r>    1.2710    1.0000 </r>
       <r>    1.5892    1.0000 </r>
       <r>    1.9588    1.0000 </r>
       <r>    2.0732    1.0000 </r>
       <r>    2.4663    1.0000 </r>
       <r>    2.8103    1.0000 </r>
       <r>    2.9993    1.0000 </r>
       <r>    3.6720    1.0000 </r>
       <r>    3.8024    1.0000 </r>
       <r>    4.1821    1.0000 </r>
       <r>    4.4726    1.0000 </r>
       <r>    4.5525    1.0000 </r>
       <r>    5.0090    1.0000 </r>
       <r>    5.0650    1.0000 </r>
       <r>    5.7476    1.0000 </r>
       <r>    5.8062    1.0000 </r>
       <r>    6.2873    1.0000 </r>
       <r>    6.8706    1.0000 </r>
       <r>    7.3411    1.0000 </r>
       <r>   11.0854    0.0000 </r>
       <r>   11.7789    0.0000 </r>
       <r>   11.9164    0.0000 </r>
       <r>   12.6431    0.0000 </r>
       <r>   12.6777    0.0000 </r>
       <r>   12.8882    0.0000 </r>
       <r>   13.0579    0.0000 </r>
       <r>   13.4141    0.0000 </r>
       <r>   13.6661    0.0000 </r>
       <r>   14.0429    0.0000 </r>
       <r>   14.4587    0.0000 </r>
       <r>   14.8812    0.0000 </r>
      </set>
      <set comment="kpoint 23">
       <r>   -8.8263    1.0000 </r>
       <r>   -8.1306    1.0000 </r>
       <r>   -6.8138    1.0000 </r>
       <r>   -5.1410    1.0000 </r>
       <r>   -3.9427    1.0000 </r>
       <r>   -2.6460    1.0000 </r>
       <r>   -2.0298    1.0000 </r>
       <r>   -1.6731    1.0000 </r>
       <r>   -1.2500    1.0000 </r>
       <r>   -1.2440    1.0000 </r>
       <r>   -0.5273    1.0000 </r>
       <r>   -0.3165    1.0000 </r>
       <r>    1.1414    1.0000 </r>
       <r>    1.3762    1.0000 </r>
       <r>    1.8591    1.0000 </r>
       <r>    1.9458    1.0000 </r>
       <r>    2.5086    1.0000 </r>
       <r>    2.6040    1.0000 </r>
       <r>    2.7206    1.0000 </r>
       <r>    3.3980    1.0000 </r>
       <r>    3.4583    1.0000 </r>
       <r>    3.7871    1.0000 </r>
       <r>    3.9443    1.0000 </r>
       <r>    4.6217    1.0000 </r>
       <r>    4.6927    1.0000 </r>
       <r>    5.4326    1.0000 </r>
       <r>    5.5290    1.0000 </r>
       <r>    6.1006    1.0000 </r>
       <r>    6.4706    1.0000 </r>
       <r>    6.6320    1.0000 </r>
       <r>    7.0504    1.0000 </r>
       <r>    7.2631    1.0000 </r>
       <r>   10.1682    0.0000 </r>
       <r>   10.6135    0.0000 </r>
       <r>   11.0189    0.0000 </r>
       <r>   11.4418    0.0000 </r>
       <r>   11.6996    0.0000 </r>
       <r>   12.3881    0.0000 </r>
       <r>   13.1500    0.0000 </r>
       <r>   13.3403    0.0000 </r>
       <r>   13.7786    0.0000 </r>
       <r>   14.0690    0.0000 </r>
       <r>   14.1206    0.0000 </r>
       <r>   14.3444    0.0000 </r>
      </set>
      <set comment="kpoint 24">
       <r>   -8.7825    1.0000 </r>
       <r>   -8.1420    1.0000 </r>
       <r>   -6.8225    1.0000 </r>
       <r>   -4.9481    1.0000 </r>
       <r>   -3.9378    1.0000 </r>
       <r>   -2.8546    1.0000 </r>
       <r>   -2.1175    1.0000 </r>
       <r>   -1.7561    1.0000 </r>
       <r>   -1.4156    1.0000 </r>
       <r>   -1.3938    1.0000 </r>
       <r>   -0.8115    1.0000 </r>
       <r>   -0.4982    1.0000 </r>
       <r>    1.0504    1.0000 </r>
       <r>    1.2242    1.0000 </r>
       <r>    1.7705    1.0000 </r>
       <r>    2.2087    1.0000 </r>
       <r>    2.4999    1.0000 </r>
       <r>    3.0823    1.0000 </r>
       <r>    3.3504    1.0000 </r>
       <r>    3.4005    1.0000 </r>
       <r>    3.6960    1.0000 </r>
       <r>    3.7613    1.0000 </r>
       <r>    4.3193    1.0000 </r>
       <r>    4.5653    1.0000 </r>
       <r>    4.7467    1.0000 </r>
       <r>    5.4921    1.0000 </r>
       <r>    6.0086    1.0000 </r>
       <r>    6.5816    1.0000 </r>
       <r>    6.6467    1.0000 </r>
       <r>    6.9107    1.0000 </r>
       <r>    7.5108    1.0000 </r>
       <r>    7.7241    1.0000 </r>
       <r>    9.2563    0.0021 </r>
       <r>    9.7140    0.0000 </r>
       <r>    9.8612    0.0000 </r>
       <r>   10.7377    0.0000 </r>
       <r>   11.0951    0.0000 </r>
       <r>   11.9531    0.0000 </r>
       <r>   12.2807    0.0000 </r>
       <r>   12.7433    0.0000 </r>
       <r>   13.7275    0.0000 </r>
       <r>   13.8825    0.0000 </r>
       <r>   14.1391    0.0000 </r>
       <r>   14.3180    0.0000 </r>
      </set>
     </set>
    </set>
   </array>
  </eigenvalues>
  <separator name="orbital magnetization" >
   <v name="MAGDIPOLOUT">      0.00000000      0.00000000      0.00000000</v>
  </separator>
  <dos>
   <i name="efermi">      9.05425460 </i>
   <total>
    <array>
     <dimension dim="1">gridpoints</dimension>
     <dimension dim="2">spin</dimension>
     <field>energy</field>
     <field>total</field>
     <field>integrated</field>
     <set>
      <set comment="spin 1">
       <r>   -11.3940     0.0000     0.0000 </r>
       <r>   -11.3009     0.0000     0.0000 </r>
       <r>   -11.2078     0.0000     0.0000 </r>
       <r>   -11.1147     0.0000     0.0000 </r>
       <r>   -11.0216     0.0000     0.0000 </r>
       <r>   -10.9285     0.0000     0.0000 </r>
       <r>   -10.8354     0.0000     0.0000 </r>
       <r>   -10.7423     0.0000     0.0000 </r>
       <r>   -10.6491     0.0000     0.0000 </r>
       <r>   -10.5560     0.0000     0.0000 </r>
       <r>   -10.4629     0.0000     0.0000 </r>
       <r>   -10.3698     0.0002     0.0000 </r>
       <r>   -10.2767     0.0132     0.0013 </r>
       <r>   -10.1836     0.1685     0.0169 </r>
       <r>   -10.0905     0.5760     0.0706 </r>
       <r>    -9.9973     1.0355     0.1670 </r>
       <r>    -9.9042     1.4873     0.3055 </r>
       <r>    -9.8111     2.1408     0.5048 </r>
       <r>    -9.7180     2.4852     0.7362 </r>
       <r>    -9.6249     1.5715     0.8826 </r>
       <r>    -9.5318     0.9533     0.9713 </r>
       <r>    -9.4387     0.3038     0.9996 </r>
       <r>    -9.3456     0.3297     1.0303 </r>
       <r>    -9.2524     1.7176     1.1902 </r>
       <r>    -9.1593     3.7525     1.5396 </r>
       <r>    -9.0662     3.8076     1.8942 </r>
       <r>    -8.9731     3.1108     2.1838 </r>
       <r>    -8.8800     4.1741     2.5725 </r>
       <r>    -8.7869     3.2846     2.8783 </r>
       <r>    -8.6938     1.1490     2.9853 </r>
       <r>    -8.6006     0.2361     3.0073 </r>
       <r>    -8.5075     1.0832     3.1082 </r>
       <r>    -8.4144     3.2543     3.4112 </r>
       <r>    -8.3213     2.3518     3.6302 </r>
       <r>    -8.2282     0.6831     3.6938 </r>
       <r>    -8.1351     1.4136     3.8254 </r>
       <r>    -8.0420     1.4976     3.9648 </r>
       <r>    -7.9488     0.3687     3.9992 </r>
       <r>    -7.8557     0.1908     4.0170 </r>
       <r>    -7.7626     0.8668     4.0977 </r>
       <r>    -7.6695     1.6966     4.2556 </r>
       <r>    -7.5764     2.4659     4.4852 </r>
       <r>    -7.4833     3.2409     4.7870 </r>
       <r>    -7.3902     1.9105     4.9649 </r>
       <r>    -7.2971     0.3695     4.9993 </r>
       <r>    -7.2039     0.3316     5.0302 </r>
       <r>    -7.1108     2.0849     5.2243 </r>
       <r>    -7.0177     3.3379     5.5351 </r>
       <r>    -6.9246     1.5046     5.6752 </r>
       <r>    -6.8315     1.3490     5.8008 </r>
       <r>    -6.7384     1.6271     5.9523 </r>
       <r>    -6.6453     0.4808     5.9971 </r>
       <r>    -6.5521     0.0307     6.0000 </r>
       <r>    -6.4590     0.0009     6.0000 </r>
       <r>    -6.3659     0.0217     6.0021 </r>
       <r>    -6.2728     0.2093     6.0216 </r>
       <r>    -6.1797     0.4447     6.0630 </r>
       <r>    -6.0866     0.3866     6.0990 </r>
       <r>    -5.9935     1.1631     6.2073 </r>
       <r>    -5.9004     1.6793     6.3636 </r>
       <r>    -5.8072     0.9818     6.4550 </r>
       <r>    -5.7141     1.6140     6.6053 </r>
       <r>    -5.6210     1.5099     6.7459 </r>
       <r>    -5.5279     1.0011     6.8391 </r>
       <r>    -5.4348     1.0602     6.9379 </r>
       <r>    -5.3417     2.6691     7.1864 </r>
       <r>    -5.2486     5.6054     7.7083 </r>
       <r>    -5.1554     6.1016     8.2765 </r>
       <r>    -5.0623     4.9984     8.7419 </r>
       <r>    -4.9692     2.0657     8.9342 </r>
       <r>    -4.8761     0.5746     8.9877 </r>
       <r>    -4.7830     0.1257     8.9994 </r>
       <r>    -4.6899     0.0809     9.0070 </r>
       <r>    -4.5968     0.8712     9.0881 </r>
       <r>    -4.5037     2.8938     9.3575 </r>
       <r>    -4.4105     2.6857     9.6076 </r>
       <r>    -4.3174     1.0128     9.7019 </r>
       <r>    -4.2243     1.0514     9.7998 </r>
       <r>    -4.1312     1.0090     9.8938 </r>
       <r>    -4.0381     1.4490    10.0287 </r>
       <r>    -3.9450     3.3334    10.3391 </r>
       <r>    -3.8519     3.5947    10.6738 </r>
       <r>    -3.7587     1.9566    10.8560 </r>
       <r>    -3.6656     0.6460    10.9161 </r>
       <r>    -3.5725     0.3720    10.9508 </r>
       <r>    -3.4794     0.4311    10.9909 </r>
       <r>    -3.3863     0.4342    11.0313 </r>
       <r>    -3.2932     1.0523    11.1293 </r>
       <r>    -3.2001     1.9696    11.3127 </r>
       <r>    -3.1070     3.9108    11.6769 </r>
       <r>    -3.0138     4.2404    12.0717 </r>
       <r>    -2.9207     3.0125    12.3522 </r>
       <r>    -2.8276     2.3335    12.5695 </r>
       <r>    -2.7345     1.9207    12.7483 </r>
       <r>    -2.6414     2.5036    12.9814 </r>
       <r>    -2.5483     3.0273    13.2633 </r>
       <r>    -2.4552     3.4352    13.5832 </r>
       <r>    -2.3620     2.8131    13.8451 </r>
       <r>    -2.2689     0.8636    13.9255 </r>
       <r>    -2.1758     0.9635    14.0152 </r>
       <r>    -2.0827     2.1899    14.2192 </r>
       <r>    -1.9896     3.7344    14.5669 </r>
       <r>    -1.8965     4.2314    14.9609 </r>
       <r>    -1.8034     2.9145    15.2323 </r>
       <r>    -1.7103     3.1934    15.5296 </r>
       <r>    -1.6171     2.6314    15.7746 </r>
       <r>    -1.5240     1.3660    15.9018 </r>
       <r>    -1.4309     1.1996    16.0135 </r>
       <r>    -1.3378     1.3040    16.1349 </r>
       <r>    -1.2447     2.0111    16.3222 </r>
       <r>    -1.1516     2.4275    16.5482 </r>
       <r>    -1.0585     3.2794    16.8536 </r>
       <r>    -0.9653     4.4158    17.2648 </r>
       <r>    -0.8722     4.1238    17.6488 </r>
       <r>    -0.7791     3.5326    17.9777 </r>
       <r>    -0.6860     3.1998    18.2756 </r>
       <r>    -0.5929     2.8008    18.5364 </r>
       <r>    -0.4998     2.3353    18.7539 </r>
       <r>    -0.4067     2.7582    19.0107 </r>
       <r>    -0.3136     4.6513    19.4438 </r>
       <r>    -0.2204     5.9790    20.0005 </r>
       <r>    -0.1273     5.7048    20.5317 </r>
       <r>    -0.0342     4.6300    20.9628 </r>
       <r>     0.0589     4.5361    21.3852 </r>
       <r>     0.1520     3.9782    21.7556 </r>
       <r>     0.2451     2.7771    22.0142 </r>
       <r>     0.3382     2.1517    22.2146 </r>
       <r>     0.4314     1.7078    22.3736 </r>
       <r>     0.5245     1.4131    22.5052 </r>
       <r>     0.6176     2.0280    22.6940 </r>
       <r>     0.7107     1.3066    22.8157 </r>
       <r>     0.8038     0.7562    22.8861 </r>
       <r>     0.8969     1.9393    23.0666 </r>
       <r>     0.9900     2.6197    23.3106 </r>
       <r>     1.0831     3.6200    23.6476 </r>
       <r>     1.1763     4.7351    24.0885 </r>
       <r>     1.2694     5.7552    24.6244 </r>
       <r>     1.3625     5.8976    25.1736 </r>
       <r>     1.4556     5.0650    25.6452 </r>
       <r>     1.5487     4.5094    26.0651 </r>
       <r>     1.6418     3.9621    26.4340 </r>
       <r>     1.7349     4.3986    26.8436 </r>
       <r>     1.8281     4.5104    27.2635 </r>
       <r>     1.9212     6.5495    27.8734 </r>
       <r>     2.0143     6.2679    28.4570 </r>
       <r>     2.1074     4.2987    28.8573 </r>
       <r>     2.2005     6.1067    29.4259 </r>
       <r>     2.2936     7.6989    30.1428 </r>
       <r>     2.3867     6.8903    30.7844 </r>
       <r>     2.4798     5.4938    31.2959 </r>
       <r>     2.5730     4.7009    31.7336 </r>
       <r>     2.6661     4.7705    32.1778 </r>
       <r>     2.7592     5.5250    32.6923 </r>
       <r>     2.8523     5.2277    33.1790 </r>
       <r>     2.9454     5.0767    33.6517 </r>
       <r>     3.0385     6.0205    34.2123 </r>
       <r>     3.1316     6.0300    34.7738 </r>
       <r>     3.2248     7.0264    35.4281 </r>
       <r>     3.3179     9.1838    36.2832 </r>
       <r>     3.4110     9.7462    37.1907 </r>
       <r>     3.5041     7.6755    37.9054 </r>
       <r>     3.5972     5.7752    38.4431 </r>
       <r>     3.6903     7.0494    39.0995 </r>
       <r>     3.7834     7.5459    39.8022 </r>
       <r>     3.8766     7.7727    40.5259 </r>
       <r>     3.9697     7.2073    41.1970 </r>
       <r>     4.0628     6.4051    41.7934 </r>
       <r>     4.1559     5.6797    42.3222 </r>
       <r>     4.2490     5.4927    42.8337 </r>
       <r>     4.3421     5.0051    43.2997 </r>
       <r>     4.4352     4.5511    43.7235 </r>
       <r>     4.5283     5.1831    44.2061 </r>
       <r>     4.6215     6.0436    44.7689 </r>
       <r>     4.7146     6.9366    45.4148 </r>
       <r>     4.8077     8.4268    46.1994 </r>
       <r>     4.9008     6.8262    46.8350 </r>
       <r>     4.9939     5.2081    47.3200 </r>
       <r>     5.0870     5.9484    47.8738 </r>
       <r>     5.1801     5.6626    48.4011 </r>
       <r>     5.2733     4.0028    48.7738 </r>
       <r>     5.3664     4.6578    49.2075 </r>
       <r>     5.4595     6.4732    49.8103 </r>
       <r>     5.5526     6.3068    50.3975 </r>
       <r>     5.6457     4.8442    50.8486 </r>
       <r>     5.7388     5.3720    51.3488 </r>
       <r>     5.8319     4.9218    51.8071 </r>
       <r>     5.9250     4.2973    52.2072 </r>
       <r>     6.0182     5.9787    52.7639 </r>
       <r>     6.1113     6.3614    53.3562 </r>
       <r>     6.2044     3.7610    53.7064 </r>
       <r>     6.2975     2.8485    53.9717 </r>
       <r>     6.3906     3.8734    54.3323 </r>
       <r>     6.4837     5.5223    54.8465 </r>
       <r>     6.5768     5.6901    55.3764 </r>
       <r>     6.6700     5.3690    55.8763 </r>
       <r>     6.7631     5.0039    56.3422 </r>
       <r>     6.8562     6.0786    56.9082 </r>
       <r>     6.9493     6.6441    57.5269 </r>
       <r>     7.0424     5.6033    58.0486 </r>
       <r>     7.1355     5.8243    58.5909 </r>
       <r>     7.2286     7.0541    59.2477 </r>
       <r>     7.3217     7.9612    59.9890 </r>
       <r>     7.4149     6.1777    60.5643 </r>
       <r>     7.5080     5.0558    61.0350 </r>
       <r>     7.6011     4.8040    61.4823 </r>
       <r>     7.6942     4.7664    61.9262 </r>
       <r>     7.7873     5.3806    62.4272 </r>
       <r>     7.8804     2.9481    62.7017 </r>
       <r>     7.9735     0.4975    62.7480 </r>
       <r>     8.0667     0.0381    62.7516 </r>
       <r>     8.1598     0.3908    62.7879 </r>
       <r>     8.2529     2.1388    62.9871 </r>
       <r>     8.3460     3.5028    63.3132 </r>
       <r>     8.4391     2.3052    63.5279 </r>
       <r>     8.5322     0.7312    63.5960 </r>
       <r>     8.6253     0.6985    63.6610 </r>
       <r>     8.7184     1.0863    63.7622 </r>
       <r>     8.8116     1.1568    63.8699 </r>
       <r>     8.9047     0.7489    63.9396 </r>
       <r>     8.9978     0.4869    63.9849 </r>
       <r>     9.0909     0.2621    64.0093 </r>
       <r>     9.1840     0.5412    64.0597 </r>
       <r>     9.2771     0.7664    64.1311 </r>
       <r>     9.3702     0.3578    64.1644 </r>
       <r>     9.4634     0.3176    64.1940 </r>
       <r>     9.5565     0.9729    64.2846 </r>
       <r>     9.6496     0.9098    64.3693 </r>
       <r>     9.7427     0.5629    64.4217 </r>
       <r>     9.8358     0.6073    64.4783 </r>
       <r>     9.9289     0.6441    64.5382 </r>
       <r>    10.0220     1.0501    64.6360 </r>
       <r>    10.1151     2.0914    64.8307 </r>
       <r>    10.2083     3.4564    65.1526 </r>
       <r>    10.3014     3.0529    65.4369 </r>
       <r>    10.3945     1.8892    65.6128 </r>
       <r>    10.4876     1.6217    65.7638 </r>
       <r>    10.5807     1.8318    65.9343 </r>
       <r>    10.6738     2.9030    66.2046 </r>
       <r>    10.7669     4.0146    66.5784 </r>
       <r>    10.8601     4.2378    66.9730 </r>
       <r>    10.9532     3.6022    67.3085 </r>
       <r>    11.0463     3.8332    67.6654 </r>
       <r>    11.1394     3.2729    67.9701 </r>
       <r>    11.2325     2.3014    68.1844 </r>
       <r>    11.3256     3.3198    68.4935 </r>
       <r>    11.4187     3.7078    68.8388 </r>
       <r>    11.5118     3.9085    69.2027 </r>
       <r>    11.6050     3.9488    69.5704 </r>
       <r>    11.6981     3.4037    69.8873 </r>
       <r>    11.7912     3.5386    70.2168 </r>
       <r>    11.8843     4.5500    70.6405 </r>
       <r>    11.9774     6.2829    71.2255 </r>
       <r>    12.0705     5.3848    71.7269 </r>
       <r>    12.1636     3.1582    72.0210 </r>
       <r>    12.2568     4.7669    72.4648 </r>
       <r>    12.3499     7.3330    73.1476 </r>
       <r>    12.4430     7.4798    73.8441 </r>
       <r>    12.5361     5.2204    74.3302 </r>
       <r>    12.6292     4.0966    74.7116 </r>
       <r>    12.7223     5.6380    75.2366 </r>
       <r>    12.8154     5.6531    75.7630 </r>
       <r>    12.9085     4.7830    76.2084 </r>
       <r>    13.0017     4.6917    76.6452 </r>
       <r>    13.0948     5.4668    77.1542 </r>
       <r>    13.1879     6.1159    77.7237 </r>
       <r>    13.2810     6.9991    78.3754 </r>
       <r>    13.3741     6.2775    78.9599 </r>
       <r>    13.4672     4.7843    79.4054 </r>
       <r>    13.5603     5.0109    79.8720 </r>
       <r>    13.6535     5.8597    80.4176 </r>
       <r>    13.7466     5.6762    80.9462 </r>
       <r>    13.8397     5.5302    81.4611 </r>
       <r>    13.9328     5.5198    81.9751 </r>
       <r>    14.0259     5.8310    82.5180 </r>
       <r>    14.1190     7.1311    83.1820 </r>
       <r>    14.2121     5.8786    83.7294 </r>
       <r>    14.3052     5.5218    84.2435 </r>
       <r>    14.3984     6.5258    84.8512 </r>
       <r>    14.4915     5.4936    85.3627 </r>
       <r>    14.5846     4.2862    85.7618 </r>
       <r>    14.6777     4.9317    86.2210 </r>
       <r>    14.7708     4.7500    86.6633 </r>
       <r>    14.8639     3.7632    87.0137 </r>
       <r>    14.9570     3.5739    87.3465 </r>
       <r>    15.0502     3.7858    87.6990 </r>
       <r>    15.1433     2.2846    87.9117 </r>
       <r>    15.2364     0.6126    87.9687 </r>
       <r>    15.3295     0.2454    87.9916 </r>
       <r>    15.4226     0.0834    87.9994 </r>
       <r>    15.5157     0.0069    88.0000 </r>
       <r>    15.6088     0.0001    88.0000 </r>
       <r>    15.7020     0.0000    88.0000 </r>
       <r>    15.7951     0.0000    88.0000 </r>
       <r>    15.8882     0.0000    88.0000 </r>
       <r>    15.9813     0.0000    88.0000 </r>
       <r>    16.0744     0.0000    88.0000 </r>
       <r>    16.1675     0.0000    88.0000 </r>
       <r>    16.2606     0.0000    88.0000 </r>
       <r>    16.3537     0.0000    88.0000 </r>
       <r>    16.4469     0.0000    88.0000 </r>
       <r>    16.5400     0.0000    88.0000 </r>
      </set>
     </set>
    </array>
   </total>
  </dos>
 </calculation>
 <structure name="finalpos" >
  <crystal>
   <varray name="basis" >
    <v>       5.38954928       0.00000000      -0.00227678 </v>
    <v>       0.00000000       3.12813377       0.00000000 </v>
    <v>      -0.00418985       0.00000000      10.16008471 </v>
   </varray>
   <i name="volume">    171.29118619 </i>
   <varray name="rec_basis" >
    <v>       0.18554430       0.00000000       0.00007652 </v>
    <v>       0.00000000       0.31967942       0.00000000 </v>
    <v>       0.00004158       0.00000000       0.09842439 </v>
   </varray>
  </crystal>
  <varray name="positions" >
   <v>       0.33358468       0.00000000       0.50044228 </v>
   <v>       0.83199651       0.50000000       0.49673107 </v>
   <v>       0.66434348       0.00000000       0.24177642 </v>
   <v>       0.16782787       0.50000000       0.75561875 </v>
   <v>       0.66171271       0.00000000       0.75505518 </v>
   <v>       0.33783648       0.00000000       0.99933674 </v>
   <v>       0.83212706       0.50000000       0.00059473 </v>
   <v>       0.16928606       0.50000000       0.24135261 </v>
   <v>       0.34316398       0.00000000       0.19317535 </v>
   <v>       0.82391493       0.50000000       0.19778715 </v>
   <v>       0.32616510       0.00000000       0.68587149 </v>
   <v>       0.66777808       0.00000000       0.44516252 </v>
   <v>       0.67276308       0.00000000       0.92566521 </v>
   <v>       0.83732761       0.50000000       0.68213719 </v>
   <v>       0.16471427       0.50000000       0.45361818 </v>
   <v>       0.16545812       0.50000000       0.92567514 </v>
  </varray>
 </structure>
</modeling>
