<?xml version="1.0" encoding="ISO-8859-1"?>
<modeling>
 <generator>
  <i name="program" type="string">vasp </i>
  <i name="version" type="string">5.3.5  </i>
  <i name="subversion" type="string">31Mar14 (build Jun 20 2014 13:15:13) complex                          parallel </i>
  <i name="platform" type="string">LinuxIFC </i>
  <i name="date" type="string">2025 12 16 </i>
  <i name="time" type="string">17:55:43 </i>
 </generator>
 <incar>
  <i type="string" name="PREC">accurate</i>
  <i type="int" name="IALGO">    68</i>
  <i type="logical" name="ADDGRID"> T  </i>
  <i type="int" name="NELM">   100</i>
  <i type="int" name="NELMIN">     4</i>
  <i type="int" name="IBRION">     2</i>
  <i name="EDIFF">      0.00000100</i>
  <i name="EDIFFG">     -0.02000000</i>
  <i type="int" name="NSW">    30</i>
  <i type="int" name="ISIF">     3</i>
  <i name="ENCUT">    600.00000000</i>
  <i type="logical" name="LREAL"> F  </i>
  <i type="int" name="ISMEAR">     0</i>
  <i name="SIGMA">      0.10000000</i>
  <i type="logical" name="LWAVE"> F  </i>
  <i type="logical" name="LCHARG"> F  </i>
  <i type="int" name="NELM">   100</i>
 </incar>
 <kpoints>
  <generation param="Auto">
   <i name="subdivisionlength">     20.00000000 </i>
   <v type="int" name="divisions">       4        6        2 </v>
   <v name="usershift">      0.00000000       0.00000000       0.00000000 </v>
   <v name="genvec1">      0.25000000       0.00000000       0.00000000 </v>
   <v name="genvec2">      0.00000000       0.16666667       0.00000000 </v>
   <v name="genvec3">      0.00000000       0.00000000       0.50000000 </v>
   <v name="shift">      0.00000000       0.00000000       0.00000000 </v>
  </generation>
  <varray name="kpointlist" >
   <v>       0.00000000       0.00000000       0.00000000 </v>
   <v>       0.25000000       0.00000000       0.00000000 </v>
   <v>       0.50000000       0.00000000       0.00000000 </v>
   <v>       0.00000000       0.16666667       0.00000000 </v>
   <v>       0.25000000       0.16666667       0.00000000 </v>
   <v>       0.50000000       0.16666667       0.00000000 </v>
   <v>       0.00000000       0.33333333       0.00000000 </v>
   <v>       0.25000000       0.33333333       0.00000000 </v>
   <v>       0.50000000       0.33333333       0.00000000 </v>
   <v>       0.00000000       0.50000000       0.00000000 </v>
   <v>       0.25000000       0.50000000       0.00000000 </v>
   <v>       0.50000000       0.50000000       0.00000000 </v>
   <v>       0.00000000       0.00000000       0.50000000 </v>
   <v>       0.25000000       0.00000000       0.50000000 </v>
   <v>       0.50000000       0.00000000       0.50000000 </v>
   <v>       0.00000000       0.16666667       0.50000000 </v>
   <v>       0.25000000       0.16666667       0.50000000 </v>
   <v>       0.50000000       0.16666667       0.50000000 </v>
   <v>       0.00000000       0.33333333       0.50000000 </v>
   <v>       0.25000000       0.33333333       0.50000000 </v>
   <v>       0.50000000       0.33333333       0.50000000 </v>
   <v>       0.00000000       0.50000000       0.50000000 </v>
   <v>       0.25000000       0.50000000       0.50000000 </v>
   <v>       0.50000000       0.50000000       0.50000000 </v>
  </varray>
  <varray name="weights" >
   <v>       0.02083333 </v>
   <v>       0.04166667 </v>
   <v>       0.02083333 </v>
   <v>       0.04166667 </v>
   <v>       0.08333333 </v>
   <v>       0.04166667 </v>
   <v>       0.04166667 </v>
   <v>       0.08333333 </v>
   <v>       0.04166667 </v>
   <v>       0.02083333 </v>
   <v>       0.04166667 </v>
   <v>       0.02083333 </v>
   <v>       0.02083333 </v>
   <v>       0.04166667 </v>
   <v>       0.02083333 </v>
   <v>       0.04166667 </v>
   <v>       0.08333333 </v>
   <v>       0.04166667 </v>
   <v>       0.04166667 </v>
   <v>       0.08333333 </v>
   <v>       0.04166667 </v>
   <v>       0.02083333 </v>
   <v>       0.04166667 </v>
   <v>       0.02083333 </v>
  </varray>
 </kpoints>
 <parameters>
  <separator name="general" >
   <i type="string" name="SYSTEM">unknown system</i>
   <i type="logical" name="LCOMPAT"> F  </i>
  </separator>
  <separator name="electronic" >
   <i type="string" name="PREC">accura</i>
   <i name="ENMAX">    600.00000000</i>
   <i name="ENAUG">    644.87300000</i>
   <i name="EDIFF">      0.00000100</i>
   <i type="int" name="IALGO">    68</i>
   <i type="int" name="IWAVPR">    11</i>
   <i type="int" name="NBANDS">    44</i>
   <i name="NELECT">     64.00000000</i>
   <i type="int" name="TURBO">     0</i>
   <i type="int" name="IRESTART">     0</i>
   <i type="int" name="NREBOOT">     0</i>
   <i type="int" name="NMIN">     0</i>
   <i name="EREF">      0.00000000</i>
   <separator name="electronic smearing" >
    <i type="int" name="ISMEAR">     0</i>
    <i name="SIGMA">      0.10000000</i>
    <i name="KSPACING">      0.50000000</i>
    <i type="logical" name="KGAMMA"> T  </i>
   </separator>
   <separator name="electronic projectors" >
    <i type="logical" name="LREAL"> F  </i>
    <v name="ROPT">      0.00000000      0.00000000      0.00000000      0.00000000</v>
    <i type="int" name="LMAXPAW">  -100</i>
    <i type="int" name="LMAXMIX">     2</i>
    <i type="logical" name="NLSPLINE"> F  </i>
   </separator>
   <separator name="electronic startup" >
    <i type="int" name="ISTART">     0</i>
    <i type="int" name="ICHARG">     2</i>
    <i type="int" name="INIWAV">     1</i>
   </separator>
   <separator name="electronic spin" >
    <i type="int" name="ISPIN">     1</i>
    <i type="logical" name="LNONCOLLINEAR"> F  </i>
    <v name="MAGMOM">      1.00000000      1.00000000      1.00000000      1.00000000      1.00000000      1.00000000      1.00000000      1.00000000      1.00000000      1.00000000      1.00000000      1.00000000      1.00000000      1.00000000      1.00000000      1.00000000</v>
    <i name="NUPDOWN">     -1.00000000</i>
    <i type="logical" name="LSORBIT"> F  </i>
    <v name="SAXIS">      0.00000000      0.00000000      1.00000000</v>
    <i type="logical" name="LSPIRAL"> F  </i>
    <v name="QSPIRAL">      0.00000000      0.00000000      0.00000000</v>
    <i type="logical" name="LZEROZ"> F  </i>
   </separator>
   <separator name="electronic exchange-correlation" >
    <i type="logical" name="LASPH"> F  </i>
    <i type="logical" name="LMETAGGA"> F  </i>
   </separator>
   <separator name="electronic convergence" >
    <i type="int" name="NELM">   100</i>
    <i type="int" name="NELMDL">     0</i>
    <i type="int" name="NELMIN">     4</i>
    <i name="ENINI">    600.00000000</i>
    <separator name="electronic convergence detail" >
     <i type="logical" name="LDIAG"> T  </i>
     <i type="logical" name="LSUBROT"> F  </i>
     <i name="WEIMIN">      0.00100000</i>
     <i name="EBREAK">      0.00000001</i>
     <i name="DEPER">      0.30000000</i>
     <i type="int" name="NRMM">     4</i>
     <i name="TIME">      0.40000000</i>
    </separator>
   </separator>
   <separator name="electronic mixer" >
    <i name="AMIX">      0.40000000</i>
    <i name="BMIX">      1.00000000</i>
    <i name="AMIN">      0.10000000</i>
    <i name="AMIX_MAG">      1.60000000</i>
    <i name="BMIX_MAG">      1.00000000</i>
    <separator name="electronic mixer details" >
     <i type="int" name="IMIX">     4</i>
     <i type="int" name="MAXMIX">   -45</i>
     <i name="WC">    100.00000000</i>
     <i type="int" name="INIMIX">     1</i>
     <i type="int" name="MIXPRE">     1</i>
     <i type="int" name="MREMOVE">     5</i>
    </separator>
   </separator>
   <separator name="electronic dipolcorrection" >
    <i type="logical" name="LDIPOL"> F  </i>
    <i type="logical" name="LMONO"> F  </i>
    <i type="int" name="IDIPOL">     0</i>
    <i name="EPSILON">      1.00000000</i>
    <v name="DIPOL">   -100.00000000   -100.00000000   -100.00000000</v>
    <i name="EFIELD">      0.00000000</i>
   </separator>
  </separator>
  <separator name="grids" >
   <i type="int" name="NGX">    40</i>
   <i type="int" name="NGY">    28</i>
   <i type="int" name="NGZ">    90</i>
   <i type="int" name="NGXF">    80</i>
   <i type="int" name="NGYF">    56</i>
   <i type="int" name="NGZF">   180</i>
   <i type="logical" name="ADDGRID"> T  </i>
  </separator>
  <separator name="ionic" >
   <i type="int" name="NSW">    30</i>
   <i type="int" name="IBRION">     2</i>
   <i type="int" name="ISIF">     3</i>
   <i name="PSTRESS">      0.00000000</i>
   <i name="EDIFFG">     -0.02000000</i>
   <i type="int" name="NFREE">     1</i>
   <i name="POTIM">      0.50000000</i>
   <i name="SMASS">     -3.00000000</i>
   <i name="SCALEE">      1.00000000</i>
  </separator>
  <separator name="ionic md" >
   <i name="TEBEG">      0.00010000</i>
   <i name="TEEND">      0.00010000</i>
   <i type="int" name="NBLOCK">     1</i>
   <i type="int" name="KBLOCK">    30</i>
   <i type="int" name="NPACO">   256</i>
   <i name="APACO">     16.00000000</i>
  </separator>
  <separator name="symmetry" >
   <i type="int" name="ISYM">     2</i>
   <i name="SYMPREC">      0.00001000</i>
  </separator>
  <separator name="dos" >
   <i type="logical" name="LORBIT"> F  </i>
   <v name="RWIGS">     -1.00000000     -1.00000000     -1.00000000     -1.00000000</v>
   <i type="int" name="NEDOS">   301</i>
   <i name="EMIN">     10.00000000</i>
   <i name="EMAX">    -10.00000000</i>
   <i name="EFERMI">      0.00000000</i>
  </separator>
  <separator name="writing" >
   <i type="int" name="NWRITE">     2</i>
   <i type="logical" name="LWAVE"> F  </i>
   <i type="logical" name="LCHARG"> F  </i>
   <i type="logical" name="LPARD"> F  </i>
   <i type="logical" name="LVTOT"> F  </i>
   <i type="logical" name="LVHAR"> F  </i>
   <i type="logical" name="LELF"> F  </i>
   <i type="logical" name="LOPTICS"> F  </i>
   <v name="STM">      0.00000000      0.00000000      0.00000000      0.00000000      0.00000000      0.00000000      0.00000000</v>
  </separator>
  <separator name="performance" >
   <i type="int" name="NPAR">     4</i>
   <i type="int" name="NSIM">     4</i>
   <i type="int" name="NBLK">    -1</i>
   <i type="logical" name="LPLANE"> T  </i>
   <i type="logical" name="LSCALAPACK"> T  </i>
   <i type="logical" name="LSCAAWARE"> F  </i>
   <i type="logical" name="LSCALU"> F  </i>
   <i type="logical" name="LASYNC"> F  </i>
   <i type="logical" name="LORBITALREAL"> F  </i>
  </separator>
  <separator name="miscellaneous" >
   <i type="int" name="IDIOT">     3</i>
   <i type="logical" name="LMUSIC"> F  </i>
   <v name="POMASS">     28.08500000     26.98100000     12.01100000     14.00100000</v>
   <v name="DARWINR">      0.00000000      0.00000000      0.00000000      0.00000000</v>
   <v name="DARWINV">      1.00000000      1.00000000      1.00000000      1.00000000</v>
   <i type="logical" name="LCORR"> T  </i>
  </separator>
  <i type="logical" name="GGA_COMPAT"> T  </i>
  <i type="logical" name="LBERRY"> F  </i>
  <i type="int" name="ICORELEVEL">     0</i>
  <i type="logical" name="LDAU"> F  </i>
  <i type="int" name="I_CONSTRAINED_M">     0</i>
  <separator name="electronic exchange-correlation" >
   <i type="string" name="GGA">--</i>
   <i type="int" name="VOSKOWN">     0</i>
   <i type="logical" name="LHFCALC"> F  </i>
   <i type="string" name="PRECFOCK"></i>
   <i type="logical" name="LSYMGRAD"> F  </i>
   <i type="logical" name="LHFONE"> F  </i>
   <i type="logical" name="LRHFCALC"> F  </i>
   <i type="logical" name="LTHOMAS"> F  </i>
   <i type="logical" name="LMODELHF"> F  </i>
   <i name="ENCUT4O">     -1.00000000</i>
   <i type="int" name="EXXOEP">     0</i>
   <i type="int" name="FOURORBIT">     0</i>
   <i name="AEXX">      0.00000000</i>
   <i name="HFALPHA">      0.00000000</i>
   <i name="MCALPHA">      0.00000000</i>
   <i name="ALDAX">      1.00000000</i>
   <i name="AGGAX">      1.00000000</i>
   <i name="ALDAC">      1.00000000</i>
   <i name="AGGAC">      1.00000000</i>
   <i type="int" name="NKREDX">     1</i>
   <i type="int" name="NKREDY">     1</i>
   <i type="int" name="NKREDZ">     1</i>
   <i type="logical" name="SHIFTRED"> F  </i>
   <i type="logical" name="ODDONLY"> F  </i>
   <i type="logical" name="EVENONLY"> F  </i>
   <i type="int" name="LMAXFOCK">     0</i>
   <i type="int" name="NMAXFOCKAE">     0</i>
   <i type="logical" name="LFOCKAEDFT"> F  </i>
   <i name="HFSCREEN">      0.00000000</i>
   <i name="HFSCREENC">      0.00000000</i>
   <i type="int" name="NBANDSGWLOW">     0</i>
  </separator>
  <separator name="vdW DFT" >
   <i type="logical" name="LUSE_VDW"> F  </i>
   <i name="Zab_VDW">     -0.84910000</i>
   <i name="PARAM1">      0.12340000</i>
   <i name="PARAM2">      1.00000000</i>
   <i name="PARAM3">      0.00000000</i>
  </separator>
  <separator name="model GW" >
   <i type="int" name="MODEL_GW">     0</i>
   <i name="MODEL_EPS0">      6.49695609</i>
   <i name="MODEL_ALPHA">      1.00000000</i>
  </separator>
  <separator name="linear response parameters" >
   <i type="logical" name="LEPSILON"> F  </i>
   <i type="logical" name="LRPA"> F  </i>
   <i type="logical" name="LNABLA"> F  </i>
   <i type="logical" name="LVEL"> F  </i>
   <i type="int" name="KINTER">     0</i>
   <i name="CSHIFT">      0.10000000</i>
   <i name="OMEGAMAX">     -1.00000000</i>
   <i name="DEG_THRESHOLD">      0.00200000</i>
  </separator>
  <separator name="orbital magnetization" >
   <i type="logical" name="NUCIND"> F  </i>
   <v name="MAGPOS">      0.00000000      0.00000000      0.00000000</v>
   <i type="logical" name="LNICSALL"> T  </i>
   <i type="logical" name="ORBITALMAG"> F  </i>
   <i type="logical" name="LMAGBLOCH"> F  </i>
   <i type="logical" name="LCHIMAG"> F  </i>
   <i type="logical" name="LGAUGE"> T  </i>
   <i type="int" name="MAGATOM">     0</i>
   <v name="MAGDIPOL">      0.00000000      0.00000000      0.00000000</v>
   <v name="AVECCONST">      0.00000000      0.00000000      0.00000000</v>
  </separator>
  <separator name="response functions" >
   <i type="logical" name="LADDER"> F  </i>
   <i type="logical" name="LFXC"> F  </i>
   <i type="logical" name="LHARTREE"> T  </i>
   <i type="int" name="IBSE">     0</i>
   <i type="logical" name="LTCTE"> F  </i>
   <i type="logical" name="LTETE"> F  </i>
   <i type="logical" name="LTRIPLET"> F  </i>
   <i type="logical" name="LFXCEPS"> F  </i>
   <i type="logical" name="LFXHEG"> F  </i>
   <i type="logical" name="L2ORDER"> F  </i>
   <i type="logical" name="LUSEW"> F  </i>
   <i name="ENCUTGW">     -2.00000000</i>
   <i name="ENCUTGWSOFT">     -2.00000000</i>
   <i name="ENCUTLF">     -1.00000000</i>
   <i type="int" name="LMAXMP2">    -1</i>
   <i name="SCISSOR">      0.00000000</i>
   <i type="int" name="NOMEGA">     0</i>
   <i type="int" name="NOMEGAR">     0</i>
   <i type="int" name="NBANDSGW">    -1</i>
   <i type="int" name="NBANDSO">    -1</i>
   <i type="int" name="NBANDSV">    -1</i>
   <i type="int" name="NELM">   100</i>
   <i type="int" name="DIM">     3</i>
   <i type="int" name="ANTIRES">     0</i>
   <i name="OMEGAMAX">    -30.00000000</i>
   <i name="OMEGAMIN">    -30.00000000</i>
   <i name="OMEGATL">   -200.00000000</i>
   <i type="int" name="OMEGAGRID">     0</i>
   <i name="CSHIFT">     -0.10000000</i>
   <i type="logical" name="SELFENERGY"> F  </i>
   <i type="logical" name="LSPECTRAL"> F  </i>
   <i type="logical" name="ODDONLYGW"> F  </i>
   <i type="logical" name="EVENONLYGW"> F  </i>
   <i type="int" name="NKREDLFX">     1</i>
   <i type="int" name="NKREDLFY">     1</i>
   <i type="int" name="NKREDLFZ">     1</i>
   <i type="int" name="MAXMEM">  1800</i>
   <i type="int" name="TELESCOPE">     0</i>
   <i type="int" name="TAUPAR">     1</i>
  </separator>
  <separator name="External order field" >
   <i name="OFIELD_KAPPA">      0.00000000</i>
   <v name="OFIELD_K">      0.00000000      0.00000000      0.00000000</v>
   <i name="OFIELD_Q6_NEAR">      0.00000000</i>
   <i name="OFIELD_Q6_FAR">      0.00000000</i>
   <i name="OFIELD_A">      0.00000000</i>
  </separator>
 </parameters>
 <atominfo>
  <atoms>      16 </atoms>
  <types>       4 </types>
  <array name="atoms" >
   <dimension dim="1">ion</dimension>
   <field type="string">element</field>
   <field type="int">atomtype</field>
   <set>
    <rc><c>Si</c><c>   1</c></rc>
    <rc><c>Si</c><c>   1</c></rc>
    <rc><c>Si</c><c>   1</c></rc>
    <rc><c>Al</c><c>   2</c></rc>
    <rc><c>Al</c><c>   2</c></rc>
    <rc><c>Al</c><c>   2</c></rc>
    <rc><c>Al</c><c>   2</c></rc>
    <rc><c>Al</c><c>   2</c></rc>
    <rc><c>C </c><c>   3</c></rc>
    <rc><c>C </c><c>   3</c></rc>
    <rc><c>C </c><c>   3</c></rc>
    <rc><c>N </c><c>   4</c></rc>
    <rc><c>N </c><c>   4</c></rc>
    <rc><c>N </c><c>   4</c></rc>
    <rc><c>N </c><c>   4</c></rc>
    <rc><c>N </c><c>   4</c></rc>
   </set>
  </array>
  <array name="atomtypes" >
   <dimension dim="1">type</dimension>
   <field type="int">atomspertype</field>
   <field type="string">element</field>
   <field>mass</field>
   <field>valence</field>
   <field type="string">pseudopotential</field>
   <set>
    <rc><c>   3</c><c>Si</c><c>     28.08500000</c><c>      4.00000000</c><c>  PAW_PBE Si 05Jan2001                  </c></rc>
    <rc><c>   5</c><c>Al</c><c>     26.98100000</c><c>      3.00000000</c><c>  PAW_PBE Al 04Jan2001                  </c></rc>
    <rc><c>   3</c><c>C </c><c>     12.01100000</c><c>      4.00000000</c><c>  PAW_PBE C 08Apr2002                   </c></rc>
    <rc><c>   5</c><c>N </c><c>     14.00100000</c><c>      5.00000000</c><c>  PAW_PBE N_s 07Sep2000                 </c></rc>
   </set>
  </array>
 </atominfo>
 <structure name="initialpos" >
  <crystal>
   <varray name="basis" >
    <v>       5.03342324       0.00000000       0.01201129 </v>
    <v>       0.00000000       3.12292040       0.00000000 </v>
    <v>       0.02584686       0.00000000      11.02190670 </v>
   </varray>
   <i name="volume">    173.25216251 </i>
   <varray name="rec_basis" >
    <v>       0.19867306       0.00000000      -0.00046590 </v>
    <v>       0.00000000       0.32021309       0.00000000 </v>
    <v>      -0.00021651       0.00000000       0.09072891 </v>
   </varray>
  </crystal>
  <varray name="positions" >
   <v>       0.01434408       0.50000000       0.07961388 </v>
   <v>       0.49586859       0.50000000       0.91786869 </v>
   <v>       0.50562854       0.00000000       0.17244586 </v>
   <v>       0.01206696       0.00000000       0.83167311 </v>
   <v>       0.99821074       0.50000000       0.58350487 </v>
   <v>       0.00021476       0.00000000       0.34072222 </v>
   <v>       0.49314364       0.00000000       0.65489794 </v>
   <v>       0.49347085       0.50000000       0.41513384 </v>
   <v>       0.61478609       0.00000000       0.32063330 </v>
   <v>       0.13647732       0.50000000       0.93002127 </v>
   <v>       0.11412305       0.00000000       0.66773629 </v>
   <v>       0.62003163       0.00000000       0.85450129 </v>
   <v>       0.61818977       0.50000000       0.57733665 </v>
   <v>       0.63358641       0.50000000       0.08219655 </v>
   <v>       0.11685773       0.50000000       0.41248507 </v>
   <v>       0.13299984       0.00000000       0.15922916 </v>
  </varray>
 </structure>
 <calculation>
  <scstep>
   <time name="dav">    0.76    0.76</time>
   <time name="total">    0.82    0.83</time>
   <energy>
    <i name="alphaZ">     57.08344142 </i>
    <i name="ewald">  -2235.87238305 </i>
    <i name="hartreedc">   -434.96514995 </i>
    <i name="XCdc">    -16.58323221 </i>
    <i name="pawpsdc">   1945.63031815 </i>
    <i name="pawaedc">  -1740.71259224 </i>
    <i name="eentropy">     -0.02106797 </i>
    <i name="bandstr">    445.85290416 </i>
    <i name="atom">   2341.07853652 </i>
    <i name="e_fr_energy">    361.49077483 </i>
    <i name="e_wo_entrp">    361.51184280 </i>
    <i name="e_0_energy">    361.50130881 </i>
   </energy>
  </scstep>
  <scstep>
   <time name="dav">    0.87    0.87</time>
   <time name="total">    0.87    0.88</time>
   <energy>
    <i name="e_fr_energy">    -99.86143576 </i>
    <i name="e_wo_entrp">    -99.86143576 </i>
    <i name="e_0_energy">    -99.86143576 </i>
   </energy>
  </scstep>
  <scstep>
   <time name="dav">    0.91    0.91</time>
   <time name="total">    0.91    0.92</time>
   <energy>
    <i name="e_fr_energy">   -134.06715667 </i>
    <i name="e_wo_entrp">   -134.06715667 </i>
    <i name="e_0_energy">   -134.06715667 </i>
   </energy>
  </scstep>
  <scstep>
   <time name="dav">    0.88    0.88</time>
   <time name="total">    0.88    0.90</time>
   <energy>
    <i name="e_fr_energy">   -134.92630672 </i>
    <i name="e_wo_entrp">   -134.92630672 </i>
    <i name="e_0_energy">   -134.92630672 </i>
   </energy>
  </scstep>
  <scstep>
   <time name="dav">    0.89    0.89</time>
   <time name="total">    0.99    1.01</time>
   <energy>
    <i name="e_fr_energy">   -134.95128777 </i>
    <i name="e_wo_entrp">   -134.95128777 </i>
    <i name="e_0_energy">   -134.95128777 </i>
   </energy>
  </scstep>
  <scstep>
   <time name="diag">    0.17    0.17</time>
   <time name="diis">    0.52    0.52</time>
   <time name="orth">    0.03    0.03</time>
   <time name="total">    0.87    0.89</time>
   <energy>
    <i name="e_fr_energy">   -114.73611404 </i>
    <i name="e_wo_entrp">   -114.73611404 </i>
    <i name="e_0_energy">   -114.73611404 </i>
   </energy>
  </scstep>
  <scstep>
   <time name="diag">    0.18    0.18</time>
   <time name="diis">    0.55    0.55</time>
   <time name="orth">    0.02    0.02</time>
   <time name="total">    0.91    0.92</time>
   <energy>
    <i name="e_fr_energy">   -114.44509101 </i>
    <i name="e_wo_entrp">   -114.44509101 </i>
    <i name="e_0_energy">   -114.44509101 </i>
   </energy>
  </scstep>
  <scstep>
   <time name="diag">    0.17    0.17</time>
   <time name="diis">    0.51    0.51</time>
   <time name="orth">    0.03    0.03</time>
   <time name="total">    0.87    0.88</time>
   <energy>
    <i name="e_fr_energy">   -115.35790683 </i>
    <i name="e_wo_entrp">   -115.35790683 </i>
    <i name="e_0_energy">   -115.35790683 </i>
   </energy>
  </scstep>
  <scstep>
   <time name="diag">    0.17    0.17</time>
   <time name="diis">    0.51    0.51</time>
   <time name="orth">    0.02    0.02</time>
   <time name="total">    0.86    0.88</time>
   <energy>
    <i name="e_fr_energy">   -114.11708274 </i>
    <i name="e_wo_entrp">   -114.10303959 </i>
    <i name="e_0_energy">   -114.11006117 </i>
   </energy>
  </scstep>
  <scstep>
   <time name="diag">    0.17    0.17</time>
   <time name="diis">    0.53    0.53</time>
   <time name="orth">    0.03    0.03</time>
   <time name="total">    0.90    0.92</time>
   <energy>
    <i name="e_fr_energy">   -114.11851041 </i>
    <i name="e_wo_entrp">   -114.10586782 </i>
    <i name="e_0_energy">   -114.11218911 </i>
   </energy>
  </scstep>
  <scstep>
   <time name="diag">    0.17    0.17</time>
   <time name="diis">    0.51    0.51</time>
   <time name="orth">    0.02    0.02</time>
   <time name="total">    0.86    0.88</time>
   <energy>
    <i name="e_fr_energy">   -114.10456955 </i>
    <i name="e_wo_entrp">   -114.09755082 </i>
    <i name="e_0_energy">   -114.10106018 </i>
   </energy>
  </scstep>
  <scstep>
   <time name="diag">    0.17    0.17</time>
   <time name="diis">    0.51    0.51</time>
   <time name="orth">    0.03    0.03</time>
   <time name="total">    0.87    0.88</time>
   <energy>
    <i name="e_fr_energy">   -114.10077696 </i>
    <i name="e_wo_entrp">   -114.09420841 </i>
    <i name="e_0_energy">   -114.09749268 </i>
   </energy>
  </scstep>
  <scstep>
   <time name="diag">    0.17    0.17</time>
   <time name="diis">    0.55    0.55</time>
   <time name="orth">    0.02    0.02</time>
   <time name="total">    0.90    0.92</time>
   <energy>
    <i name="e_fr_energy">   -114.10021176 </i>
    <i name="e_wo_entrp">   -114.09330210 </i>
    <i name="e_0_energy">   -114.09675693 </i>
   </energy>
  </scstep>
  <scstep>
   <time name="diag">    0.17    0.17</time>
   <time name="diis">    0.53    0.53</time>
   <time name="orth">    0.03    0.03</time>
   <time name="total">    0.89    0.90</time>
   <energy>
    <i name="e_fr_energy">   -114.10015955 </i>
    <i name="e_wo_entrp">   -114.09313636 </i>
    <i name="e_0_energy">   -114.09664796 </i>
   </energy>
  </scstep>
  <scstep>
   <time name="diag">    0.17    0.17</time>
   <time name="diis">    0.51    0.51</time>
   <time name="orth">    0.02    0.02</time>
   <time name="total">    0.87    0.88</time>
   <energy>
    <i name="e_fr_energy">   -114.09996645 </i>
    <i name="e_wo_entrp">   -114.09291945 </i>
    <i name="e_0_energy">   -114.09644295 </i>
   </energy>
  </scstep>
  <scstep>
   <time name="diag">    0.18    0.18</time>
   <time name="diis">    0.53    0.53</time>
   <time name="orth">    0.03    0.03</time>
   <time name="total">    0.90    0.91</time>
   <energy>
    <i name="e_fr_energy">   -114.09991831 </i>
    <i name="e_wo_entrp">   -114.09307480 </i>
    <i name="e_0_energy">   -114.09649655 </i>
   </energy>
  </scstep>
  <scstep>
   <time name="diag">    0.17    0.17</time>
   <time name="diis">    0.51    0.51</time>
   <time name="orth">    0.02    0.02</time>
   <time name="total">    0.87    0.89</time>
   <energy>
    <i name="e_fr_energy">   -114.09989385 </i>
    <i name="e_wo_entrp">   -114.09306626 </i>
    <i name="e_0_energy">   -114.09648005 </i>
   </energy>
  </scstep>
  <scstep>
   <time name="diag">    0.17    0.17</time>
   <time name="diis">    0.51    0.51</time>
   <time name="orth">    0.03    0.03</time>
   <time name="total">    0.87    0.88</time>
   <energy>
    <i name="e_fr_energy">   -114.09988832 </i>
    <i name="e_wo_entrp">   -114.09309098 </i>
    <i name="e_0_energy">   -114.09648965 </i>
   </energy>
  </scstep>
  <scstep>
   <time name="diag">    0.17    0.17</time>
   <time name="diis">    0.45    0.45</time>
   <time name="orth">    0.02    0.02</time>
   <time name="total">    0.71    0.72</time>
   <energy>
    <i name="alphaZ">     57.08344142 </i>
    <i name="ewald">  -2235.87238305 </i>
    <i name="hartreedc">   -542.28581984 </i>
    <i name="XCdc">     -6.75180162 </i>
    <i name="pawpsdc">  10279.10947922 </i>
    <i name="pawaedc"> -10078.93793879 </i>
    <i name="eentropy">     -0.00678589 </i>
    <i name="bandstr">     72.48338441 </i>
    <i name="atom">   2341.07853652 </i>
    <i name="e_fr_energy">   -114.09988763 </i>
    <i name="e_wo_entrp">   -114.09310174 </i>
    <i name="e_0_energy">   -114.09649468 </i>
   </energy>
  </scstep>
  <structure>
   <crystal>
    <varray name="basis" >
     <v>       5.03342324       0.00000000       0.01201129 </v>
     <v>       0.00000000       3.12292040       0.00000000 </v>
     <v>       0.02584686       0.00000000      11.02190670 </v>
    </varray>
    <i name="volume">    173.25216251 </i>
    <varray name="rec_basis" >
     <v>       0.19867306       0.00000000      -0.00046590 </v>
     <v>       0.00000000       0.32021309       0.00000000 </v>
     <v>      -0.00021651       0.00000000       0.09072891 </v>
    </varray>
   </crystal>
   <varray name="positions" >
    <v>       0.01434408       0.50000000       0.07961388 </v>
    <v>       0.49586859       0.50000000       0.91786869 </v>
    <v>       0.50562854       0.00000000       0.17244586 </v>
    <v>       0.01206696       0.00000000       0.83167311 </v>
    <v>       0.99821074       0.50000000       0.58350487 </v>
    <v>       0.00021476       0.00000000       0.34072222 </v>
    <v>       0.49314364       0.00000000       0.65489794 </v>
    <v>       0.49347085       0.50000000       0.41513384 </v>
    <v>       0.61478609       0.00000000       0.32063330 </v>
    <v>       0.13647732       0.50000000       0.93002127 </v>
    <v>       0.11412305       0.00000000       0.66773629 </v>
    <v>       0.62003163       0.00000000       0.85450129 </v>
    <v>       0.61818977       0.50000000       0.57733665 </v>
    <v>       0.63358641       0.50000000       0.08219655 </v>
    <v>       0.11685773       0.50000000       0.41248507 </v>
    <v>       0.13299984       0.00000000       0.15922916 </v>
   </varray>
  </structure>
  <varray name="forces" >
   <v>      -0.00418568       0.00000000      -0.00332080 </v>
   <v>      -0.00193289       0.00000000      -0.00619404 </v>
   <v>       0.00845290       0.00000000      -0.00493320 </v>
   <v>      -0.00054608       0.00000000       0.00095827 </v>
   <v>      -0.00361370       0.00000000      -0.00119018 </v>
   <v>      -0.00565149       0.00000000      -0.00606998 </v>
   <v>      -0.00764404       0.00000000       0.00074903 </v>
   <v>      -0.00648300       0.00000000       0.00036860 </v>
   <v>       0.00780345       0.00000000       0.01050439 </v>
   <v>       0.01088150       0.00000000      -0.00304303 </v>
   <v>       0.01124607       0.00000000       0.00286224 </v>
   <v>      -0.00744666       0.00000000       0.00391150 </v>
   <v>       0.00017209       0.00000000       0.00795966 </v>
   <v>       0.00404031       0.00000000       0.00408735 </v>
   <v>      -0.00564615       0.00000000      -0.00093105 </v>
   <v>       0.00055337       0.00000000      -0.00571876 </v>
  </varray>
  <varray name="stress" >
   <v>      -0.23929716       0.00000000       0.01517612 </v>
   <v>       0.00000000       0.22127516       0.00000000 </v>
   <v>       0.01517639       0.00000000       0.25505265 </v>
  </varray>
  <energy>
   <i name="e_fr_energy">   -114.09988763 </i>
   <i name="e_wo_entrp">   -114.09649468 </i>
   <i name="e_0_energy">     -0.00678589 </i>
  </energy>
  <time name="totalsc">   18.41   18.70</time>
  <eigenvalues>
   <array>
    <dimension dim="1">band</dimension>
    <dimension dim="2">kpoint</dimension>
    <dimension dim="3">spin</dimension>
    <field>eigene</field>
    <field>occ</field>
    <set>
     <set comment="spin 1">
      <set comment="kpoint 1">
       <r>  -10.9769    1.0000 </r>
       <r>   -9.1866    1.0000 </r>
       <r>   -8.4718    1.0000 </r>
       <r>   -7.2425    1.0000 </r>
       <r>   -6.2549    1.0000 </r>
       <r>   -4.6469    1.0000 </r>
       <r>   -3.7279    1.0000 </r>
       <r>   -2.3304    1.0000 </r>
       <r>   -1.9965    1.0000 </r>
       <r>    0.0266    1.0000 </r>
       <r>    0.4547    1.0000 </r>
       <r>    1.0921    1.0000 </r>
       <r>    1.6926    1.0000 </r>
       <r>    1.7380    1.0000 </r>
       <r>    2.7135    1.0000 </r>
       <r>    2.7862    1.0000 </r>
       <r>    2.7956    1.0000 </r>
       <r>    3.0427    1.0000 </r>
       <r>    3.3996    1.0000 </r>
       <r>    3.5620    1.0000 </r>
       <r>    3.9983    1.0000 </r>
       <r>    4.2848    1.0000 </r>
       <r>    5.3425    1.0000 </r>
       <r>    5.4752    1.0000 </r>
       <r>    5.6277    1.0000 </r>
       <r>    6.0350    1.0000 </r>
       <r>    6.5727    1.0000 </r>
       <r>    7.1393    1.0000 </r>
       <r>    7.2811    1.0000 </r>
       <r>    7.6544    1.0000 </r>
       <r>    7.8164    1.0000 </r>
       <r>    9.1464    0.6524 </r>
       <r>    9.1605    0.5763 </r>
       <r>    9.2901    0.0505 </r>
       <r>   10.0635    0.0000 </r>
       <r>   11.7435    0.0000 </r>
       <r>   12.3475    0.0000 </r>
       <r>   12.8891    0.0000 </r>
       <r>   13.2496    0.0000 </r>
       <r>   13.7385    0.0000 </r>
       <r>   13.8098    0.0000 </r>
       <r>   14.1567    0.0000 </r>
       <r>   14.3468    0.0000 </r>
       <r>   15.4470    0.0000 </r>
      </set>
      <set comment="kpoint 2">
       <r>  -10.7596    1.0000 </r>
       <r>   -9.4233    1.0000 </r>
       <r>   -8.5529    1.0000 </r>
       <r>   -7.0929    1.0000 </r>
       <r>   -6.3406    1.0000 </r>
       <r>   -4.8881    1.0000 </r>
       <r>   -4.0052    1.0000 </r>
       <r>   -2.1900    1.0000 </r>
       <r>   -1.4450    1.0000 </r>
       <r>   -0.3920    1.0000 </r>
       <r>    0.4219    1.0000 </r>
       <r>    1.4156    1.0000 </r>
       <r>    1.9079    1.0000 </r>
       <r>    2.0810    1.0000 </r>
       <r>    2.4121    1.0000 </r>
       <r>    2.7214    1.0000 </r>
       <r>    2.8327    1.0000 </r>
       <r>    3.2555    1.0000 </r>
       <r>    3.4940    1.0000 </r>
       <r>    3.6465    1.0000 </r>
       <r>    3.9906    1.0000 </r>
       <r>    4.6346    1.0000 </r>
       <r>    5.1733    1.0000 </r>
       <r>    5.4286    1.0000 </r>
       <r>    5.5770    1.0000 </r>
       <r>    6.0122    1.0000 </r>
       <r>    6.3238    1.0000 </r>
       <r>    6.9908    1.0000 </r>
       <r>    7.1717    1.0000 </r>
       <r>    7.4660    1.0000 </r>
       <r>    7.7165    1.0000 </r>
       <r>    9.0663    0.9363 </r>
       <r>    9.2996    0.0379 </r>
       <r>    9.4590    0.0000 </r>
       <r>   10.1417    0.0000 </r>
       <r>   11.8012    0.0000 </r>
       <r>   12.2844    0.0000 </r>
       <r>   12.6475    0.0000 </r>
       <r>   13.0261    0.0000 </r>
       <r>   13.4387    0.0000 </r>
       <r>   13.6710    0.0000 </r>
       <r>   13.9575    0.0000 </r>
       <r>   14.3278    0.0000 </r>
       <r>   15.3789    0.0000 </r>
      </set>
      <set comment="kpoint 3">
       <r>  -10.3118    1.0000 </r>
       <r>   -9.9525    1.0000 </r>
       <r>   -8.5574    1.0000 </r>
       <r>   -6.8180    1.0000 </r>
       <r>   -6.5546    1.0000 </r>
       <r>   -5.0689    1.0000 </r>
       <r>   -4.2459    1.0000 </r>
       <r>   -2.2965    1.0000 </r>
       <r>   -0.7505    1.0000 </r>
       <r>   -0.4405    1.0000 </r>
       <r>    0.5482    1.0000 </r>
       <r>    1.2121    1.0000 </r>
       <r>    2.2925    1.0000 </r>
       <r>    2.3150    1.0000 </r>
       <r>    2.3636    1.0000 </r>
       <r>    2.4187    1.0000 </r>
       <r>    2.8082    1.0000 </r>
       <r>    3.1606    1.0000 </r>
       <r>    3.3412    1.0000 </r>
       <r>    3.8214    1.0000 </r>
       <r>    4.4208    1.0000 </r>
       <r>    4.9827    1.0000 </r>
       <r>    5.1377    1.0000 </r>
       <r>    5.5404    1.0000 </r>
       <r>    5.6886    1.0000 </r>
       <r>    5.9635    1.0000 </r>
       <r>    5.9915    1.0000 </r>
       <r>    6.6819    1.0000 </r>
       <r>    7.0674    1.0000 </r>
       <r>    7.1865    1.0000 </r>
       <r>    7.6202    1.0000 </r>
       <r>    8.9871    0.9959 </r>
       <r>    9.3649    0.0035 </r>
       <r>    9.4596    0.0000 </r>
       <r>   10.2959    0.0000 </r>
       <r>   11.6637    0.0000 </r>
       <r>   12.0992    0.0000 </r>
       <r>   12.5757    0.0000 </r>
       <r>   12.9441    0.0000 </r>
       <r>   13.5245    0.0000 </r>
       <r>   13.6591    0.0000 </r>
       <r>   13.9521    0.0000 </r>
       <r>   14.1414    0.0000 </r>
       <r>   15.0641    0.0000 </r>
      </set>
      <set comment="kpoint 4">
       <r>  -10.7126    1.0000 </r>
       <r>   -9.0118    1.0000 </r>
       <r>   -8.3165    1.0000 </r>
       <r>   -7.0374    1.0000 </r>
       <r>   -6.0915    1.0000 </r>
       <r>   -4.5083    1.0000 </r>
       <r>   -3.5694    1.0000 </r>
       <r>   -2.0686    1.0000 </r>
       <r>   -1.7795    1.0000 </r>
       <r>    0.0191    1.0000 </r>
       <r>    0.4824    1.0000 </r>
       <r>    0.7269    1.0000 </r>
       <r>    0.9817    1.0000 </r>
       <r>    1.9167    1.0000 </r>
       <r>    1.9772    1.0000 </r>
       <r>    2.0190    1.0000 </r>
       <r>    2.8118    1.0000 </r>
       <r>    3.0689    1.0000 </r>
       <r>    3.3379    1.0000 </r>
       <r>    3.7104    1.0000 </r>
       <r>    3.8927    1.0000 </r>
       <r>    4.2897    1.0000 </r>
       <r>    4.7006    1.0000 </r>
       <r>    5.1248    1.0000 </r>
       <r>    5.3301    1.0000 </r>
       <r>    5.5402    1.0000 </r>
       <r>    6.2664    1.0000 </r>
       <r>    6.4313    1.0000 </r>
       <r>    6.6984    1.0000 </r>
       <r>    7.1855    1.0000 </r>
       <r>    7.5508    1.0000 </r>
       <r>    7.9531    1.0000 </r>
       <r>   10.3326    0.0000 </r>
       <r>   10.7424    0.0000 </r>
       <r>   10.7923    0.0000 </r>
       <r>   11.5889    0.0000 </r>
       <r>   12.5762    0.0000 </r>
       <r>   12.9338    0.0000 </r>
       <r>   13.1297    0.0000 </r>
       <r>   13.3480    0.0000 </r>
       <r>   13.5231    0.0000 </r>
       <r>   13.7241    0.0000 </r>
       <r>   14.1081    0.0000 </r>
       <r>   14.6130    0.0000 </r>
      </set>
      <set comment="kpoint 5">
       <r>  -10.5056    1.0000 </r>
       <r>   -9.2451    1.0000 </r>
       <r>   -8.3589    1.0000 </r>
       <r>   -6.8954    1.0000 </r>
       <r>   -6.1775    1.0000 </r>
       <r>   -4.7322    1.0000 </r>
       <r>   -3.8257    1.0000 </r>
       <r>   -1.9534    1.0000 </r>
       <r>   -1.3171    1.0000 </r>
       <r>   -0.3991    1.0000 </r>
       <r>    0.4434    1.0000 </r>
       <r>    0.7682    1.0000 </r>
       <r>    1.4418    1.0000 </r>
       <r>    1.6768    1.0000 </r>
       <r>    1.8468    1.0000 </r>
       <r>    2.5522    1.0000 </r>
       <r>    2.7915    1.0000 </r>
       <r>    2.9774    1.0000 </r>
       <r>    3.4591    1.0000 </r>
       <r>    3.7945    1.0000 </r>
       <r>    4.0972    1.0000 </r>
       <r>    4.4200    1.0000 </r>
       <r>    4.8933    1.0000 </r>
       <r>    5.0539    1.0000 </r>
       <r>    5.2218    1.0000 </r>
       <r>    5.5381    1.0000 </r>
       <r>    6.0889    1.0000 </r>
       <r>    6.2563    1.0000 </r>
       <r>    6.7214    1.0000 </r>
       <r>    7.0703    1.0000 </r>
       <r>    7.3768    1.0000 </r>
       <r>    8.0034    1.0000 </r>
       <r>   10.3072    0.0000 </r>
       <r>   10.8299    0.0000 </r>
       <r>   11.0906    0.0000 </r>
       <r>   11.6781    0.0000 </r>
       <r>   12.2476    0.0000 </r>
       <r>   12.7456    0.0000 </r>
       <r>   12.9381    0.0000 </r>
       <r>   13.3427    0.0000 </r>
       <r>   13.6456    0.0000 </r>
       <r>   13.8780    0.0000 </r>
       <r>   14.2716    0.0000 </r>
       <r>   14.5944    0.0000 </r>
      </set>
      <set comment="kpoint 6">
       <r>  -10.0892    1.0000 </r>
       <r>   -9.7299    1.0000 </r>
       <r>   -8.3519    1.0000 </r>
       <r>   -6.6419    1.0000 </r>
       <r>   -6.3776    1.0000 </r>
       <r>   -4.8848    1.0000 </r>
       <r>   -4.0664    1.0000 </r>
       <r>   -2.0556    1.0000 </r>
       <r>   -0.7182    1.0000 </r>
       <r>   -0.5090    1.0000 </r>
       <r>    0.2287    1.0000 </r>
       <r>    0.9561    1.0000 </r>
       <r>    1.3962    1.0000 </r>
       <r>    1.7711    1.0000 </r>
       <r>    2.1314    1.0000 </r>
       <r>    2.4462    1.0000 </r>
       <r>    2.8481    1.0000 </r>
       <r>    2.9667    1.0000 </r>
       <r>    3.4214    1.0000 </r>
       <r>    3.9434    1.0000 </r>
       <r>    4.1482    1.0000 </r>
       <r>    4.7700    1.0000 </r>
       <r>    4.9047    1.0000 </r>
       <r>    5.0250    1.0000 </r>
       <r>    5.1475    1.0000 </r>
       <r>    5.5650    1.0000 </r>
       <r>    6.0699    1.0000 </r>
       <r>    6.2892    1.0000 </r>
       <r>    6.5936    1.0000 </r>
       <r>    7.0227    1.0000 </r>
       <r>    7.1401    1.0000 </r>
       <r>    7.9072    1.0000 </r>
       <r>   10.4471    0.0000 </r>
       <r>   10.5450    0.0000 </r>
       <r>   11.4093    0.0000 </r>
       <r>   11.7439    0.0000 </r>
       <r>   11.9294    0.0000 </r>
       <r>   12.6236    0.0000 </r>
       <r>   13.1267    0.0000 </r>
       <r>   13.4541    0.0000 </r>
       <r>   13.7120    0.0000 </r>
       <r>   13.8345    0.0000 </r>
       <r>   14.1075    0.0000 </r>
       <r>   14.3549    0.0000 </r>
      </set>
      <set comment="kpoint 7">
       <r>  -10.0040    1.0000 </r>
       <r>   -8.7533    1.0000 </r>
       <r>   -7.9330    1.0000 </r>
       <r>   -6.5625    1.0000 </r>
       <r>   -5.7289    1.0000 </r>
       <r>   -4.2796    1.0000 </r>
       <r>   -3.2955    1.0000 </r>
       <r>   -1.6899    1.0000 </r>
       <r>   -1.3088    1.0000 </r>
       <r>   -0.8075    1.0000 </r>
       <r>   -0.6919    1.0000 </r>
       <r>    0.3750    1.0000 </r>
       <r>    0.9814    1.0000 </r>
       <r>    1.0877    1.0000 </r>
       <r>    1.9227    1.0000 </r>
       <r>    2.2883    1.0000 </r>
       <r>    2.6595    1.0000 </r>
       <r>    3.0275    1.0000 </r>
       <r>    3.0938    1.0000 </r>
       <r>    3.4866    1.0000 </r>
       <r>    3.6080    1.0000 </r>
       <r>    3.9875    1.0000 </r>
       <r>    4.2210    1.0000 </r>
       <r>    4.4845    1.0000 </r>
       <r>    4.7074    1.0000 </r>
       <r>    4.8103    1.0000 </r>
       <r>    5.3332    1.0000 </r>
       <r>    5.4104    1.0000 </r>
       <r>    6.0892    1.0000 </r>
       <r>    6.5846    1.0000 </r>
       <r>    7.0929    1.0000 </r>
       <r>    7.1964    1.0000 </r>
       <r>   10.0168    0.0000 </r>
       <r>   11.2149    0.0000 </r>
       <r>   11.4932    0.0000 </r>
       <r>   11.7922    0.0000 </r>
       <r>   11.9715    0.0000 </r>
       <r>   12.3881    0.0000 </r>
       <r>   12.9758    0.0000 </r>
       <r>   13.1313    0.0000 </r>
       <r>   13.2605    0.0000 </r>
       <r>   13.7660    0.0000 </r>
       <r>   14.3314    0.0000 </r>
       <r>   14.7376    0.0000 </r>
      </set>
      <set comment="kpoint 8">
       <r>   -9.8408    1.0000 </r>
       <r>   -8.9073    1.0000 </r>
       <r>   -7.9110    1.0000 </r>
       <r>   -6.4437    1.0000 </r>
       <r>   -5.8147    1.0000 </r>
       <r>   -4.4614    1.0000 </r>
       <r>   -3.5060    1.0000 </r>
       <r>   -1.7237    1.0000 </r>
       <r>   -1.3516    1.0000 </r>
       <r>   -1.0810    1.0000 </r>
       <r>   -0.2335    1.0000 </r>
       <r>    0.1909    1.0000 </r>
       <r>    1.1081    1.0000 </r>
       <r>    1.3965    1.0000 </r>
       <r>    1.9609    1.0000 </r>
       <r>    2.1704    1.0000 </r>
       <r>    2.6274    1.0000 </r>
       <r>    2.7480    1.0000 </r>
       <r>    2.8950    1.0000 </r>
       <r>    3.3945    1.0000 </r>
       <r>    3.9624    1.0000 </r>
       <r>    4.0585    1.0000 </r>
       <r>    4.4256    1.0000 </r>
       <r>    4.5457    1.0000 </r>
       <r>    4.8219    1.0000 </r>
       <r>    4.9720    1.0000 </r>
       <r>    5.4016    1.0000 </r>
       <r>    5.7057    1.0000 </r>
       <r>    6.1727    1.0000 </r>
       <r>    6.6358    1.0000 </r>
       <r>    6.9749    1.0000 </r>
       <r>    7.4413    1.0000 </r>
       <r>   10.0479    0.0000 </r>
       <r>   10.8063    0.0000 </r>
       <r>   11.1845    0.0000 </r>
       <r>   11.7548    0.0000 </r>
       <r>   12.1744    0.0000 </r>
       <r>   12.5350    0.0000 </r>
       <r>   12.9316    0.0000 </r>
       <r>   13.1846    0.0000 </r>
       <r>   13.4554    0.0000 </r>
       <r>   13.7312    0.0000 </r>
       <r>   14.2301    0.0000 </r>
       <r>   14.5522    0.0000 </r>
      </set>
      <set comment="kpoint 9">
       <r>   -9.5523    1.0000 </r>
       <r>   -9.1951    1.0000 </r>
       <r>   -7.8848    1.0000 </r>
       <r>   -6.2481    1.0000 </r>
       <r>   -5.9792    1.0000 </r>
       <r>   -4.5712    1.0000 </r>
       <r>   -3.7553    1.0000 </r>
       <r>   -1.6851    1.0000 </r>
       <r>   -1.3134    1.0000 </r>
       <r>   -1.0730    1.0000 </r>
       <r>   -0.8504    1.0000 </r>
       <r>    0.7757    1.0000 </r>
       <r>    1.1706    1.0000 </r>
       <r>    1.8219    1.0000 </r>
       <r>    1.8535    1.0000 </r>
       <r>    2.2671    1.0000 </r>
       <r>    2.3534    1.0000 </r>
       <r>    2.5815    1.0000 </r>
       <r>    2.9216    1.0000 </r>
       <r>    3.3052    1.0000 </r>
       <r>    3.9582    1.0000 </r>
       <r>    3.9904    1.0000 </r>
       <r>    4.5259    1.0000 </r>
       <r>    4.7848    1.0000 </r>
       <r>    5.0002    1.0000 </r>
       <r>    5.1581    1.0000 </r>
       <r>    5.5535    1.0000 </r>
       <r>    5.9016    1.0000 </r>
       <r>    6.3388    1.0000 </r>
       <r>    6.5421    1.0000 </r>
       <r>    7.0612    1.0000 </r>
       <r>    7.4549    1.0000 </r>
       <r>   10.1015    0.0000 </r>
       <r>   10.5338    0.0000 </r>
       <r>   11.3743    0.0000 </r>
       <r>   11.6458    0.0000 </r>
       <r>   12.1790    0.0000 </r>
       <r>   12.4950    0.0000 </r>
       <r>   12.8304    0.0000 </r>
       <r>   13.0624    0.0000 </r>
       <r>   13.1730    0.0000 </r>
       <r>   13.5710    0.0000 </r>
       <r>   13.8718    0.0000 </r>
       <r>   14.2986    0.0000 </r>
      </set>
      <set comment="kpoint 10">
       <r>   -9.3132    1.0000 </r>
       <r>   -8.9464    1.0000 </r>
       <r>   -7.6542    1.0000 </r>
       <r>   -6.2798    1.0000 </r>
       <r>   -5.5271    1.0000 </r>
       <r>   -4.2007    1.0000 </r>
       <r>   -3.2633    1.0000 </r>
       <r>   -2.1249    1.0000 </r>
       <r>   -1.2697    1.0000 </r>
       <r>   -0.9113    1.0000 </r>
       <r>   -0.2278    1.0000 </r>
       <r>   -0.0460    1.0000 </r>
       <r>    0.3297    1.0000 </r>
       <r>    1.2640    1.0000 </r>
       <r>    1.8825    1.0000 </r>
       <r>    2.0714    1.0000 </r>
       <r>    2.5925    1.0000 </r>
       <r>    3.0237    1.0000 </r>
       <r>    3.0609    1.0000 </r>
       <r>    3.4737    1.0000 </r>
       <r>    3.6207    1.0000 </r>
       <r>    3.9123    1.0000 </r>
       <r>    4.0026    1.0000 </r>
       <r>    4.1006    1.0000 </r>
       <r>    4.1519    1.0000 </r>
       <r>    4.8392    1.0000 </r>
       <r>    4.9143    1.0000 </r>
       <r>    5.4022    1.0000 </r>
       <r>    5.5106    1.0000 </r>
       <r>    6.4014    1.0000 </r>
       <r>    6.6206    1.0000 </r>
       <r>    7.1938    1.0000 </r>
       <r>   10.2895    0.0000 </r>
       <r>   10.5445    0.0000 </r>
       <r>   10.6099    0.0000 </r>
       <r>   11.2127    0.0000 </r>
       <r>   11.7650    0.0000 </r>
       <r>   12.3223    0.0000 </r>
       <r>   12.8467    0.0000 </r>
       <r>   12.9289    0.0000 </r>
       <r>   13.5837    0.0000 </r>
       <r>   14.1398    0.0000 </r>
       <r>   14.2111    0.0000 </r>
       <r>   15.0712    0.0000 </r>
      </set>
      <set comment="kpoint 11">
       <r>   -9.2621    1.0000 </r>
       <r>   -8.9023    1.0000 </r>
       <r>   -7.6385    1.0000 </r>
       <r>   -6.1821    1.0000 </r>
       <r>   -5.6117    1.0000 </r>
       <r>   -4.3514    1.0000 </r>
       <r>   -3.4833    1.0000 </r>
       <r>   -2.3074    1.0000 </r>
       <r>   -1.3513    1.0000 </r>
       <r>   -0.9463    1.0000 </r>
       <r>   -0.7563    1.0000 </r>
       <r>    0.7640    1.0000 </r>
       <r>    0.7947    1.0000 </r>
       <r>    1.4010    1.0000 </r>
       <r>    1.5489    1.0000 </r>
       <r>    2.0286    1.0000 </r>
       <r>    2.3074    1.0000 </r>
       <r>    2.4815    1.0000 </r>
       <r>    2.9691    1.0000 </r>
       <r>    3.3583    1.0000 </r>
       <r>    3.5509    1.0000 </r>
       <r>    3.6718    1.0000 </r>
       <r>    4.3456    1.0000 </r>
       <r>    4.5887    1.0000 </r>
       <r>    4.7086    1.0000 </r>
       <r>    4.8758    1.0000 </r>
       <r>    4.9010    1.0000 </r>
       <r>    5.8977    1.0000 </r>
       <r>    6.0276    1.0000 </r>
       <r>    6.4648    1.0000 </r>
       <r>    6.8785    1.0000 </r>
       <r>    7.2919    1.0000 </r>
       <r>    9.6940    0.0000 </r>
       <r>   10.1162    0.0000 </r>
       <r>   10.9427    0.0000 </r>
       <r>   11.3815    0.0000 </r>
       <r>   11.7873    0.0000 </r>
       <r>   12.2906    0.0000 </r>
       <r>   12.4882    0.0000 </r>
       <r>   12.7877    0.0000 </r>
       <r>   13.7785    0.0000 </r>
       <r>   13.8450    0.0000 </r>
       <r>   14.3136    0.0000 </r>
       <r>   14.5029    0.0000 </r>
      </set>
      <set comment="kpoint 12">
       <r>   -9.2084    1.0000 </r>
       <r>   -8.8563    1.0000 </r>
       <r>   -7.6231    1.0000 </r>
       <r>   -6.0295    1.0000 </r>
       <r>   -5.7525    1.0000 </r>
       <r>   -4.5370    1.0000 </r>
       <r>   -3.7059    1.0000 </r>
       <r>   -2.1536    1.0000 </r>
       <r>   -1.3964    1.0000 </r>
       <r>   -1.2910    1.0000 </r>
       <r>   -0.9372    1.0000 </r>
       <r>    0.5787    1.0000 </r>
       <r>    1.1746    1.0000 </r>
       <r>    1.7248    1.0000 </r>
       <r>    1.9457    1.0000 </r>
       <r>    2.0311    1.0000 </r>
       <r>    2.1612    1.0000 </r>
       <r>    2.3916    1.0000 </r>
       <r>    2.7366    1.0000 </r>
       <r>    2.8939    1.0000 </r>
       <r>    3.4948    1.0000 </r>
       <r>    3.5374    1.0000 </r>
       <r>    4.5575    1.0000 </r>
       <r>    4.7873    1.0000 </r>
       <r>    4.9618    1.0000 </r>
       <r>    5.3849    1.0000 </r>
       <r>    5.4085    1.0000 </r>
       <r>    5.8865    1.0000 </r>
       <r>    6.2680    1.0000 </r>
       <r>    6.6232    1.0000 </r>
       <r>    6.7936    1.0000 </r>
       <r>    7.5449    1.0000 </r>
       <r>    9.5144    0.0000 </r>
       <r>   10.0626    0.0000 </r>
       <r>   10.9758    0.0000 </r>
       <r>   11.0723    0.0000 </r>
       <r>   11.5299    0.0000 </r>
       <r>   12.5188    0.0000 </r>
       <r>   12.6170    0.0000 </r>
       <r>   13.0560    0.0000 </r>
       <r>   13.2111    0.0000 </r>
       <r>   13.4395    0.0000 </r>
       <r>   14.1091    0.0000 </r>
       <r>   14.6402    0.0000 </r>
      </set>
      <set comment="kpoint 13">
       <r>  -10.9765    1.0000 </r>
       <r>   -9.1909    1.0000 </r>
       <r>   -8.4685    1.0000 </r>
       <r>   -7.2315    1.0000 </r>
       <r>   -6.2680    1.0000 </r>
       <r>   -4.6373    1.0000 </r>
       <r>   -3.7656    1.0000 </r>
       <r>   -2.3414    1.0000 </r>
       <r>   -1.9107    1.0000 </r>
       <r>    0.0014    1.0000 </r>
       <r>    0.4482    1.0000 </r>
       <r>    1.1473    1.0000 </r>
       <r>    1.7382    1.0000 </r>
       <r>    1.9083    1.0000 </r>
       <r>    2.0555    1.0000 </r>
       <r>    2.5548    1.0000 </r>
       <r>    2.7951    1.0000 </r>
       <r>    3.2766    1.0000 </r>
       <r>    3.3997    1.0000 </r>
       <r>    3.7741    1.0000 </r>
       <r>    4.3117    1.0000 </r>
       <r>    4.5163    1.0000 </r>
       <r>    5.3444    1.0000 </r>
       <r>    5.4344    1.0000 </r>
       <r>    5.5309    1.0000 </r>
       <r>    6.0342    1.0000 </r>
       <r>    6.5013    1.0000 </r>
       <r>    6.7187    1.0000 </r>
       <r>    7.2877    1.0000 </r>
       <r>    7.6528    1.0000 </r>
       <r>    7.8037    1.0000 </r>
       <r>    9.1515    0.6253 </r>
       <r>    9.2161    0.2764 </r>
       <r>    9.5312    0.0000 </r>
       <r>   10.1374    0.0000 </r>
       <r>   11.7879    0.0000 </r>
       <r>   12.1498    0.0000 </r>
       <r>   12.8197    0.0000 </r>
       <r>   13.0700    0.0000 </r>
       <r>   13.5193    0.0000 </r>
       <r>   14.0585    0.0000 </r>
       <r>   14.4839    0.0000 </r>
       <r>   14.6656    0.0000 </r>
       <r>   15.3006    0.0000 </r>
      </set>
      <set comment="kpoint 14">
       <r>  -10.7592    1.0000 </r>
       <r>   -9.4245    1.0000 </r>
       <r>   -8.5541    1.0000 </r>
       <r>   -7.0827    1.0000 </r>
       <r>   -6.3470    1.0000 </r>
       <r>   -4.8756    1.0000 </r>
       <r>   -4.0486    1.0000 </r>
       <r>   -2.1312    1.0000 </r>
       <r>   -1.4792    1.0000 </r>
       <r>   -0.3697    1.0000 </r>
       <r>    0.5789    1.0000 </r>
       <r>    1.4621    1.0000 </r>
       <r>    1.5933    1.0000 </r>
       <r>    1.9080    1.0000 </r>
       <r>    2.5423    1.0000 </r>
       <r>    2.7211    1.0000 </r>
       <r>    2.7668    1.0000 </r>
       <r>    3.1218    1.0000 </r>
       <r>    3.2552    1.0000 </r>
       <r>    4.2195    1.0000 </r>
       <r>    4.3242    1.0000 </r>
       <r>    4.8191    1.0000 </r>
       <r>    5.0184    1.0000 </r>
       <r>    5.3953    1.0000 </r>
       <r>    5.4295    1.0000 </r>
       <r>    6.0125    1.0000 </r>
       <r>    6.1565    1.0000 </r>
       <r>    6.8454    1.0000 </r>
       <r>    7.1772    1.0000 </r>
       <r>    7.4613    1.0000 </r>
       <r>    7.7071    1.0000 </r>
       <r>    9.0676    0.9340 </r>
       <r>    9.3687    0.0030 </r>
       <r>    9.4608    0.0000 </r>
       <r>   10.2588    0.0000 </r>
       <r>   11.9403    0.0000 </r>
       <r>   12.1799    0.0000 </r>
       <r>   12.6721    0.0000 </r>
       <r>   12.9770    0.0000 </r>
       <r>   13.2275    0.0000 </r>
       <r>   13.6262    0.0000 </r>
       <r>   14.2558    0.0000 </r>
       <r>   14.6788    0.0000 </r>
       <r>   15.1976    0.0000 </r>
      </set>
      <set comment="kpoint 15">
       <r>  -10.3116    1.0000 </r>
       <r>   -9.9525    1.0000 </r>
       <r>   -8.5596    1.0000 </r>
       <r>   -6.8204    1.0000 </r>
       <r>   -6.5449    1.0000 </r>
       <r>   -5.0584    1.0000 </r>
       <r>   -4.2689    1.0000 </r>
       <r>   -2.3573    1.0000 </r>
       <r>   -0.6230    1.0000 </r>
       <r>   -0.3209    1.0000 </r>
       <r>    0.4668    1.0000 </r>
       <r>    1.3883    1.0000 </r>
       <r>    1.8467    1.0000 </r>
       <r>    1.9364    1.0000 </r>
       <r>    2.3152    1.0000 </r>
       <r>    2.3636    1.0000 </r>
       <r>    3.1602    1.0000 </r>
       <r>    3.2626    1.0000 </r>
       <r>    3.4914    1.0000 </r>
       <r>    4.0184    1.0000 </r>
       <r>    4.5543    1.0000 </r>
       <r>    4.9996    1.0000 </r>
       <r>    5.2549    1.0000 </r>
       <r>    5.3732    1.0000 </r>
       <r>    5.5397    1.0000 </r>
       <r>    5.9356    1.0000 </r>
       <r>    5.9656    1.0000 </r>
       <r>    6.7259    1.0000 </r>
       <r>    6.9740    1.0000 </r>
       <r>    7.0701    1.0000 </r>
       <r>    7.6171    1.0000 </r>
       <r>    8.9827    0.9966 </r>
       <r>    9.4066    0.0005 </r>
       <r>    9.4937    0.0000 </r>
       <r>   10.3380    0.0000 </r>
       <r>   11.6948    0.0000 </r>
       <r>   12.0192    0.0000 </r>
       <r>   12.8696    0.0000 </r>
       <r>   13.2195    0.0000 </r>
       <r>   13.4671    0.0000 </r>
       <r>   13.5822    0.0000 </r>
       <r>   13.8564    0.0000 </r>
       <r>   14.2572    0.0000 </r>
       <r>   14.4856    0.0000 </r>
      </set>
      <set comment="kpoint 16">
       <r>  -10.7123    1.0000 </r>
       <r>   -9.0149    1.0000 </r>
       <r>   -8.3145    1.0000 </r>
       <r>   -7.0287    1.0000 </r>
       <r>   -6.1008    1.0000 </r>
       <r>   -4.5014    1.0000 </r>
       <r>   -3.5966    1.0000 </r>
       <r>   -2.0774    1.0000 </r>
       <r>   -1.7230    1.0000 </r>
       <r>    0.0026    1.0000 </r>
       <r>    0.5005    1.0000 </r>
       <r>    0.7187    1.0000 </r>
       <r>    1.0493    1.0000 </r>
       <r>    1.6976    1.0000 </r>
       <r>    2.0388    1.0000 </r>
       <r>    2.1776    1.0000 </r>
       <r>    2.5582    1.0000 </r>
       <r>    2.8181    1.0000 </r>
       <r>    3.6231    1.0000 </r>
       <r>    3.8643    1.0000 </r>
       <r>    4.0579    1.0000 </r>
       <r>    4.3179    1.0000 </r>
       <r>    4.5194    1.0000 </r>
       <r>    5.2143    1.0000 </r>
       <r>    5.2945    1.0000 </r>
       <r>    5.5062    1.0000 </r>
       <r>    6.1565    1.0000 </r>
       <r>    6.4904    1.0000 </r>
       <r>    6.6521    1.0000 </r>
       <r>    7.1983    1.0000 </r>
       <r>    7.5581    1.0000 </r>
       <r>    8.0067    1.0000 </r>
       <r>   10.4098    0.0000 </r>
       <r>   10.7526    0.0000 </r>
       <r>   10.8564    0.0000 </r>
       <r>   11.5761    0.0000 </r>
       <r>   12.2392    0.0000 </r>
       <r>   12.5712    0.0000 </r>
       <r>   12.9045    0.0000 </r>
       <r>   13.3767    0.0000 </r>
       <r>   13.4877    0.0000 </r>
       <r>   13.9312    0.0000 </r>
       <r>   14.3918    0.0000 </r>
       <r>   15.2643    0.0000 </r>
      </set>
      <set comment="kpoint 17">
       <r>  -10.5054    1.0000 </r>
       <r>   -9.2460    1.0000 </r>
       <r>   -8.3599    1.0000 </r>
       <r>   -6.8879    1.0000 </r>
       <r>   -6.1818    1.0000 </r>
       <r>   -4.7234    1.0000 </r>
       <r>   -3.8562    1.0000 </r>
       <r>   -1.9044    1.0000 </r>
       <r>   -1.3498    1.0000 </r>
       <r>   -0.4051    1.0000 </r>
       <r>    0.5345    1.0000 </r>
       <r>    0.7875    1.0000 </r>
       <r>    1.3437    1.0000 </r>
       <r>    1.6997    1.0000 </r>
       <r>    1.8473    1.0000 </r>
       <r>    2.4898    1.0000 </r>
       <r>    2.7260    1.0000 </r>
       <r>    2.9346    1.0000 </r>
       <r>    3.4158    1.0000 </r>
       <r>    3.9022    1.0000 </r>
       <r>    4.3137    1.0000 </r>
       <r>    4.4022    1.0000 </r>
       <r>    4.8372    1.0000 </r>
       <r>    4.9628    1.0000 </r>
       <r>    5.2772    1.0000 </r>
       <r>    5.4845    1.0000 </r>
       <r>    6.1079    1.0000 </r>
       <r>    6.2700    1.0000 </r>
       <r>    6.7429    1.0000 </r>
       <r>    7.0371    1.0000 </r>
       <r>    7.4025    1.0000 </r>
       <r>    8.0300    1.0000 </r>
       <r>   10.3201    0.0000 </r>
       <r>   10.8547    0.0000 </r>
       <r>   11.0723    0.0000 </r>
       <r>   11.7329    0.0000 </r>
       <r>   12.0757    0.0000 </r>
       <r>   12.6982    0.0000 </r>
       <r>   12.9443    0.0000 </r>
       <r>   13.1036    0.0000 </r>
       <r>   13.4410    0.0000 </r>
       <r>   14.0227    0.0000 </r>
       <r>   14.4026    0.0000 </r>
       <r>   14.6874    0.0000 </r>
      </set>
      <set comment="kpoint 18">
       <r>  -10.0890    1.0000 </r>
       <r>   -9.7298    1.0000 </r>
       <r>   -8.3537    1.0000 </r>
       <r>   -6.6436    1.0000 </r>
       <r>   -6.3707    1.0000 </r>
       <r>   -4.8780    1.0000 </r>
       <r>   -4.0806    1.0000 </r>
       <r>   -2.0929    1.0000 </r>
       <r>   -0.6667    1.0000 </r>
       <r>   -0.4723    1.0000 </r>
       <r>    0.1854    1.0000 </r>
       <r>    1.0521    1.0000 </r>
       <r>    1.5247    1.0000 </r>
       <r>    1.7611    1.0000 </r>
       <r>    2.1358    1.0000 </r>
       <r>    2.2219    1.0000 </r>
       <r>    2.3532    1.0000 </r>
       <r>    3.3780    1.0000 </r>
       <r>    3.5510    1.0000 </r>
       <r>    3.9006    1.0000 </r>
       <r>    4.1848    1.0000 </r>
       <r>    4.6726    1.0000 </r>
       <r>    4.8812    1.0000 </r>
       <r>    5.0657    1.0000 </r>
       <r>    5.2512    1.0000 </r>
       <r>    5.4834    1.0000 </r>
       <r>    6.1732    1.0000 </r>
       <r>    6.2144    1.0000 </r>
       <r>    6.6272    1.0000 </r>
       <r>    6.9840    1.0000 </r>
       <r>    7.1418    1.0000 </r>
       <r>    7.9460    1.0000 </r>
       <r>   10.4621    0.0000 </r>
       <r>   10.5577    0.0000 </r>
       <r>   11.4375    0.0000 </r>
       <r>   11.7224    0.0000 </r>
       <r>   11.8725    0.0000 </r>
       <r>   12.6540    0.0000 </r>
       <r>   12.9557    0.0000 </r>
       <r>   13.3737    0.0000 </r>
       <r>   13.5881    0.0000 </r>
       <r>   13.7373    0.0000 </r>
       <r>   13.9114    0.0000 </r>
       <r>   14.5222    0.0000 </r>
      </set>
      <set comment="kpoint 19">
       <r>  -10.0038    1.0000 </r>
       <r>   -8.7539    1.0000 </r>
       <r>   -7.9335    1.0000 </r>
       <r>   -6.5592    1.0000 </r>
       <r>   -5.7311    1.0000 </r>
       <r>   -4.2768    1.0000 </r>
       <r>   -3.3018    1.0000 </r>
       <r>   -1.6880    1.0000 </r>
       <r>   -1.3083    1.0000 </r>
       <r>   -0.8285    1.0000 </r>
       <r>   -0.6894    1.0000 </r>
       <r>    0.3703    1.0000 </r>
       <r>    1.0741    1.0000 </r>
       <r>    1.1152    1.0000 </r>
       <r>    1.8767    1.0000 </r>
       <r>    2.3219    1.0000 </r>
       <r>    2.4744    1.0000 </r>
       <r>    2.9679    1.0000 </r>
       <r>    3.1552    1.0000 </r>
       <r>    3.5561    1.0000 </r>
       <r>    3.7777    1.0000 </r>
       <r>    3.8706    1.0000 </r>
       <r>    4.2672    1.0000 </r>
       <r>    4.4112    1.0000 </r>
       <r>    4.7046    1.0000 </r>
       <r>    4.9222    1.0000 </r>
       <r>    5.1267    1.0000 </r>
       <r>    5.3848    1.0000 </r>
       <r>    6.1101    1.0000 </r>
       <r>    6.6628    1.0000 </r>
       <r>    7.1202    1.0000 </r>
       <r>    7.2446    1.0000 </r>
       <r>   10.1086    0.0000 </r>
       <r>   11.1930    0.0000 </r>
       <r>   11.4280    0.0000 </r>
       <r>   11.6014    0.0000 </r>
       <r>   12.1138    0.0000 </r>
       <r>   12.3534    0.0000 </r>
       <r>   12.8254    0.0000 </r>
       <r>   13.1109    0.0000 </r>
       <r>   13.3218    0.0000 </r>
       <r>   13.6348    0.0000 </r>
       <r>   14.2279    0.0000 </r>
       <r>   14.6572    0.0000 </r>
      </set>
      <set comment="kpoint 20">
       <r>   -9.8407    1.0000 </r>
       <r>   -8.9075    1.0000 </r>
       <r>   -7.9116    1.0000 </r>
       <r>   -6.4417    1.0000 </r>
       <r>   -5.8158    1.0000 </r>
       <r>   -4.4584    1.0000 </r>
       <r>   -3.5107    1.0000 </r>
       <r>   -1.7059    1.0000 </r>
       <r>   -1.3618    1.0000 </r>
       <r>   -1.1027    1.0000 </r>
       <r>   -0.2512    1.0000 </r>
       <r>    0.2021    1.0000 </r>
       <r>    1.1877    1.0000 </r>
       <r>    1.3769    1.0000 </r>
       <r>    1.9058    1.0000 </r>
       <r>    2.2415    1.0000 </r>
       <r>    2.5694    1.0000 </r>
       <r>    2.7478    1.0000 </r>
       <r>    3.0108    1.0000 </r>
       <r>    3.5002    1.0000 </r>
       <r>    3.7559    1.0000 </r>
       <r>    3.9524    1.0000 </r>
       <r>    4.3587    1.0000 </r>
       <r>    4.4928    1.0000 </r>
       <r>    4.8994    1.0000 </r>
       <r>    5.0421    1.0000 </r>
       <r>    5.3276    1.0000 </r>
       <r>    5.7774    1.0000 </r>
       <r>    6.2447    1.0000 </r>
       <r>    6.6128    1.0000 </r>
       <r>    7.0658    1.0000 </r>
       <r>    7.4160    1.0000 </r>
       <r>   10.0717    0.0000 </r>
       <r>   10.8224    0.0000 </r>
       <r>   11.1962    0.0000 </r>
       <r>   11.5968    0.0000 </r>
       <r>   12.2070    0.0000 </r>
       <r>   12.4977    0.0000 </r>
       <r>   12.8424    0.0000 </r>
       <r>   13.2929    0.0000 </r>
       <r>   13.5098    0.0000 </r>
       <r>   13.7824    0.0000 </r>
       <r>   13.9661    0.0000 </r>
       <r>   14.3638    0.0000 </r>
      </set>
      <set comment="kpoint 21">
       <r>   -9.5522    1.0000 </r>
       <r>   -9.1951    1.0000 </r>
       <r>   -7.8853    1.0000 </r>
       <r>   -6.2485    1.0000 </r>
       <r>   -5.9783    1.0000 </r>
       <r>   -4.5708    1.0000 </r>
       <r>   -3.7531    1.0000 </r>
       <r>   -1.6423    1.0000 </r>
       <r>   -1.3446    1.0000 </r>
       <r>   -1.1108    1.0000 </r>
       <r>   -0.8646    1.0000 </r>
       <r>    0.7760    1.0000 </r>
       <r>    1.1731    1.0000 </r>
       <r>    1.7826    1.0000 </r>
       <r>    1.9913    1.0000 </r>
       <r>    2.3096    1.0000 </r>
       <r>    2.4470    1.0000 </r>
       <r>    2.5720    1.0000 </r>
       <r>    2.9888    1.0000 </r>
       <r>    3.3235    1.0000 </r>
       <r>    3.5620    1.0000 </r>
       <r>    3.8883    1.0000 </r>
       <r>    4.5136    1.0000 </r>
       <r>    4.7224    1.0000 </r>
       <r>    5.1308    1.0000 </r>
       <r>    5.1870    1.0000 </r>
       <r>    5.6786    1.0000 </r>
       <r>    5.8807    1.0000 </r>
       <r>    6.2758    1.0000 </r>
       <r>    6.6434    1.0000 </r>
       <r>    7.1147    1.0000 </r>
       <r>    7.4675    1.0000 </r>
       <r>   10.1383    0.0000 </r>
       <r>   10.5293    0.0000 </r>
       <r>   11.3549    0.0000 </r>
       <r>   11.7918    0.0000 </r>
       <r>   11.9416    0.0000 </r>
       <r>   12.3811    0.0000 </r>
       <r>   12.5615    0.0000 </r>
       <r>   12.8966    0.0000 </r>
       <r>   13.1385    0.0000 </r>
       <r>   14.0463    0.0000 </r>
       <r>   14.1446    0.0000 </r>
       <r>   14.6334    0.0000 </r>
      </set>
      <set comment="kpoint 22">
       <r>   -9.3132    1.0000 </r>
       <r>   -8.9464    1.0000 </r>
       <r>   -7.6543    1.0000 </r>
       <r>   -6.2806    1.0000 </r>
       <r>   -5.5264    1.0000 </r>
       <r>   -4.1995    1.0000 </r>
       <r>   -3.2661    1.0000 </r>
       <r>   -2.1261    1.0000 </r>
       <r>   -1.1405    1.0000 </r>
       <r>   -1.0479    1.0000 </r>
       <r>   -0.2243    1.0000 </r>
       <r>   -0.0452    1.0000 </r>
       <r>    0.3216    1.0000 </r>
       <r>    1.2182    1.0000 </r>
       <r>    1.8443    1.0000 </r>
       <r>    2.0525    1.0000 </r>
       <r>    2.6990    1.0000 </r>
       <r>    3.1669    1.0000 </r>
       <r>    3.2602    1.0000 </r>
       <r>    3.4263    1.0000 </r>
       <r>    3.6632    1.0000 </r>
       <r>    3.6739    1.0000 </r>
       <r>    3.9442    1.0000 </r>
       <r>    4.0240    1.0000 </r>
       <r>    4.1423    1.0000 </r>
       <r>    4.9190    1.0000 </r>
       <r>    4.9832    1.0000 </r>
       <r>    5.3886    1.0000 </r>
       <r>    5.5264    1.0000 </r>
       <r>    6.2659    1.0000 </r>
       <r>    6.5923    1.0000 </r>
       <r>    7.0576    1.0000 </r>
       <r>   10.3276    0.0000 </r>
       <r>   10.5847    0.0000 </r>
       <r>   11.0541    0.0000 </r>
       <r>   11.8428    0.0000 </r>
       <r>   11.9862    0.0000 </r>
       <r>   12.3711    0.0000 </r>
       <r>   12.4148    0.0000 </r>
       <r>   12.5755    0.0000 </r>
       <r>   13.0918    0.0000 </r>
       <r>   13.2975    0.0000 </r>
       <r>   14.7234    0.0000 </r>
       <r>   14.8030    0.0000 </r>
      </set>
      <set comment="kpoint 23">
       <r>   -9.2621    1.0000 </r>
       <r>   -8.9023    1.0000 </r>
       <r>   -7.6386    1.0000 </r>
       <r>   -6.1824    1.0000 </r>
       <r>   -5.6118    1.0000 </r>
       <r>   -4.3506    1.0000 </r>
       <r>   -3.4854    1.0000 </r>
       <r>   -2.3063    1.0000 </r>
       <r>   -1.3068    1.0000 </r>
       <r>   -0.9889    1.0000 </r>
       <r>   -0.7504    1.0000 </r>
       <r>    0.7419    1.0000 </r>
       <r>    0.7848    1.0000 </r>
       <r>    1.3490    1.0000 </r>
       <r>    1.5823    1.0000 </r>
       <r>    1.8601    1.0000 </r>
       <r>    2.4447    1.0000 </r>
       <r>    2.6981    1.0000 </r>
       <r>    2.9584    1.0000 </r>
       <r>    3.0483    1.0000 </r>
       <r>    3.8016    1.0000 </r>
       <r>    3.8294    1.0000 </r>
       <r>    4.3310    1.0000 </r>
       <r>    4.5814    1.0000 </r>
       <r>    4.6168    1.0000 </r>
       <r>    4.8274    1.0000 </r>
       <r>    4.9778    1.0000 </r>
       <r>    5.7780    1.0000 </r>
       <r>    5.9705    1.0000 </r>
       <r>    6.3943    1.0000 </r>
       <r>    6.7747    1.0000 </r>
       <r>    7.2960    1.0000 </r>
       <r>    9.8367    0.0000 </r>
       <r>   10.2031    0.0000 </r>
       <r>   11.1025    0.0000 </r>
       <r>   11.7213    0.0000 </r>
       <r>   11.8386    0.0000 </r>
       <r>   12.3234    0.0000 </r>
       <r>   12.4712    0.0000 </r>
       <r>   13.0221    0.0000 </r>
       <r>   13.2467    0.0000 </r>
       <r>   13.4616    0.0000 </r>
       <r>   14.2462    0.0000 </r>
       <r>   14.4596    0.0000 </r>
      </set>
      <set comment="kpoint 24">
       <r>   -9.2084    1.0000 </r>
       <r>   -8.8563    1.0000 </r>
       <r>   -7.6230    1.0000 </r>
       <r>   -6.0293    1.0000 </r>
       <r>   -5.7527    1.0000 </r>
       <r>   -4.5378    1.0000 </r>
       <r>   -3.7072    1.0000 </r>
       <r>   -2.1485    1.0000 </r>
       <r>   -1.3910    1.0000 </r>
       <r>   -1.2792    1.0000 </r>
       <r>   -0.9490    1.0000 </r>
       <r>    0.7164    1.0000 </r>
       <r>    1.0906    1.0000 </r>
       <r>    1.4292    1.0000 </r>
       <r>    1.8109    1.0000 </r>
       <r>    1.9140    1.0000 </r>
       <r>    2.3258    1.0000 </r>
       <r>    2.5698    1.0000 </r>
       <r>    2.6578    1.0000 </r>
       <r>    3.1542    1.0000 </r>
       <r>    3.6886    1.0000 </r>
       <r>    3.9373    1.0000 </r>
       <r>    4.3482    1.0000 </r>
       <r>    4.5112    1.0000 </r>
       <r>    4.9331    1.0000 </r>
       <r>    5.1480    1.0000 </r>
       <r>    5.3625    1.0000 </r>
       <r>    5.9131    1.0000 </r>
       <r>    6.1171    1.0000 </r>
       <r>    6.6480    1.0000 </r>
       <r>    6.8649    1.0000 </r>
       <r>    7.6183    1.0000 </r>
       <r>    9.6269    0.0000 </r>
       <r>   10.0959    0.0000 </r>
       <r>   11.2169    0.0000 </r>
       <r>   11.3639    0.0000 </r>
       <r>   11.4343    0.0000 </r>
       <r>   12.3076    0.0000 </r>
       <r>   12.5400    0.0000 </r>
       <r>   13.0430    0.0000 </r>
       <r>   13.1010    0.0000 </r>
       <r>   13.4682    0.0000 </r>
       <r>   13.5012    0.0000 </r>
       <r>   14.5928    0.0000 </r>
      </set>
     </set>
    </set>
   </array>
  </eigenvalues>
  <separator name="orbital magnetization" >
   <v name="MAGDIPOLOUT">      0.00000000      0.00000000      0.00000000</v>
  </separator>
  <dos>
   <i name="efermi">      9.17410464 </i>
   <total>
    <array>
     <dimension dim="1">gridpoints</dimension>
     <dimension dim="2">spin</dimension>
     <field>energy</field>
     <field>total</field>
     <field>integrated</field>
     <set>
      <set comment="spin 1">
       <r>   -12.2981     0.0000     0.0000 </r>
       <r>   -12.2012     0.0000     0.0000 </r>
       <r>   -12.1043     0.0000     0.0000 </r>
       <r>   -12.0074     0.0000     0.0000 </r>
       <r>   -11.9105     0.0000     0.0000 </r>
       <r>   -11.8136     0.0000     0.0000 </r>
       <r>   -11.7167     0.0000     0.0000 </r>
       <r>   -11.6198     0.0000     0.0000 </r>
       <r>   -11.5230     0.0000     0.0000 </r>
       <r>   -11.4261     0.0000     0.0000 </r>
       <r>   -11.3292     0.0000     0.0000 </r>
       <r>   -11.2323     0.0001     0.0000 </r>
       <r>   -11.1354     0.0105     0.0010 </r>
       <r>   -11.0385     0.1537     0.0159 </r>
       <r>   -10.9416     0.4388     0.0584 </r>
       <r>   -10.8447     0.4787     0.1048 </r>
       <r>   -10.7479     1.2808     0.2289 </r>
       <r>   -10.6510     1.5677     0.3808 </r>
       <r>   -10.5541     1.1922     0.4963 </r>
       <r>   -10.4572     1.7846     0.6692 </r>
       <r>   -10.3603     0.9765     0.7638 </r>
       <r>   -10.2634     0.5155     0.8138 </r>
       <r>   -10.1665     0.4394     0.8563 </r>
       <r>   -10.0696     1.1560     0.9683 </r>
       <r>    -9.9728     1.8337     1.1460 </r>
       <r>    -9.8759     1.9902     1.3388 </r>
       <r>    -9.7790     2.2787     1.5596 </r>
       <r>    -9.6821     1.5498     1.7098 </r>
       <r>    -9.5852     0.9502     1.8018 </r>
       <r>    -9.4883     1.1894     1.9171 </r>
       <r>    -9.3914     1.3920     2.0519 </r>
       <r>    -9.2945     2.4727     2.2915 </r>
       <r>    -9.1977     4.3707     2.7150 </r>
       <r>    -9.1008     2.7618     2.9826 </r>
       <r>    -9.0039     1.7407     3.1512 </r>
       <r>    -8.9070     3.4292     3.4835 </r>
       <r>    -8.8101     3.2730     3.8006 </r>
       <r>    -8.7132     1.5673     3.9524 </r>
       <r>    -8.6163     0.9629     4.0457 </r>
       <r>    -8.5194     1.5850     4.1993 </r>
       <r>    -8.4226     2.1196     4.4047 </r>
       <r>    -8.3257     3.4744     4.7413 </r>
       <r>    -8.2288     2.3010     4.9642 </r>
       <r>    -8.1319     0.3652     4.9996 </r>
       <r>    -8.0350     0.3003     5.0287 </r>
       <r>    -7.9381     2.1180     5.2339 </r>
       <r>    -7.8412     3.2942     5.5531 </r>
       <r>    -7.7443     1.3344     5.6824 </r>
       <r>    -7.6475     1.3877     5.8168 </r>
       <r>    -7.5506     1.5145     5.9636 </r>
       <r>    -7.4537     0.3603     5.9985 </r>
       <r>    -7.3568     0.0550     6.0038 </r>
       <r>    -7.2599     0.2961     6.0325 </r>
       <r>    -7.1630     0.7028     6.1006 </r>
       <r>    -7.0661     1.4565     6.2417 </r>
       <r>    -6.9692     1.8928     6.4251 </r>
       <r>    -6.8724     2.1763     6.6359 </r>
       <r>    -6.7755     1.6877     6.7995 </r>
       <r>    -6.6786     0.9653     6.8930 </r>
       <r>    -6.5817     1.8005     7.0674 </r>
       <r>    -6.4848     2.5592     7.3154 </r>
       <r>    -6.3879     3.3131     7.6364 </r>
       <r>    -6.2910     3.6875     7.9937 </r>
       <r>    -6.1941     4.3205     8.4123 </r>
       <r>    -6.0972     3.9018     8.7903 </r>
       <r>    -6.0004     2.3597     9.0189 </r>
       <r>    -5.9035     1.6306     9.1769 </r>
       <r>    -5.8066     2.2041     9.3905 </r>
       <r>    -5.7097     2.7245     9.6544 </r>
       <r>    -5.6128     1.8207     9.8308 </r>
       <r>    -5.5159     1.2149     9.9486 </r>
       <r>    -5.4190     0.4706     9.9941 </r>
       <r>    -5.3221     0.0589     9.9998 </r>
       <r>    -5.2253     0.0113    10.0009 </r>
       <r>    -5.1284     0.1465    10.0151 </r>
       <r>    -5.0315     0.4837    10.0620 </r>
       <r>    -4.9346     0.9792    10.1569 </r>
       <r>    -4.8377     1.9700    10.3477 </r>
       <r>    -4.7408     2.1871    10.5596 </r>
       <r>    -4.6439     2.3530    10.7876 </r>
       <r>    -4.5470     2.7014    11.0494 </r>
       <r>    -4.4502     3.5840    11.3966 </r>
       <r>    -4.3533     2.8443    11.6722 </r>
       <r>    -4.2564     2.3372    11.8986 </r>
       <r>    -4.1595     1.7606    12.0692 </r>
       <r>    -4.0626     1.6292    12.2270 </r>
       <r>    -3.9657     1.6430    12.3862 </r>
       <r>    -3.8688     1.6281    12.5440 </r>
       <r>    -3.7719     2.7057    12.8061 </r>
       <r>    -3.6751     2.3854    13.0372 </r>
       <r>    -3.5782     2.0475    13.2356 </r>
       <r>    -3.4813     3.1443    13.5403 </r>
       <r>    -3.3844     2.1203    13.7457 </r>
       <r>    -3.2875     1.3259    13.8742 </r>
       <r>    -3.1906     1.0629    13.9771 </r>
       <r>    -3.0937     0.2260    13.9990 </r>
       <r>    -2.9968     0.0099    14.0000 </r>
       <r>    -2.9000     0.0001    14.0000 </r>
       <r>    -2.8031     0.0000    14.0000 </r>
       <r>    -2.7062     0.0000    14.0000 </r>
       <r>    -2.6093     0.0001    14.0000 </r>
       <r>    -2.5124     0.0151    14.0015 </r>
       <r>    -2.4155     0.3130    14.0318 </r>
       <r>    -2.3186     1.4420    14.1715 </r>
       <r>    -2.2217     2.0003    14.3653 </r>
       <r>    -2.1249     2.6621    14.6232 </r>
       <r>    -2.0280     3.2869    14.9417 </r>
       <r>    -1.9311     2.7343    15.2066 </r>
       <r>    -1.8342     2.1992    15.4197 </r>
       <r>    -1.7373     2.9264    15.7032 </r>
       <r>    -1.6404     3.9484    16.0858 </r>
       <r>    -1.5435     1.8071    16.2609 </r>
       <r>    -1.4466     1.8833    16.4433 </r>
       <r>    -1.3498     5.5491    16.9810 </r>
       <r>    -1.2529     6.3894    17.6000 </r>
       <r>    -1.1560     3.0148    17.8921 </r>
       <r>    -1.0591     3.2523    18.2072 </r>
       <r>    -0.9622     3.0069    18.4986 </r>
       <r>    -0.8653     2.7295    18.7630 </r>
       <r>    -0.7684     3.2238    19.0754 </r>
       <r>    -0.6715     3.2688    19.3921 </r>
       <r>    -0.5747     1.9255    19.5786 </r>
       <r>    -0.4778     1.7920    19.7523 </r>
       <r>    -0.3809     3.3789    20.0796 </r>
       <r>    -0.2840     3.3043    20.3998 </r>
       <r>    -0.1871     2.6149    20.6531 </r>
       <r>    -0.0902     1.3439    20.7833 </r>
       <r>     0.0067     1.5503    20.9335 </r>
       <r>     0.1036     1.7409    21.1022 </r>
       <r>     0.2004     2.4373    21.3383 </r>
       <r>     0.2973     2.7032    21.6003 </r>
       <r>     0.3942     2.7545    21.8671 </r>
       <r>     0.4911     4.0079    22.2555 </r>
       <r>     0.5880     3.4538    22.5901 </r>
       <r>     0.6849     2.6531    22.8471 </r>
       <r>     0.7818     4.9255    23.3244 </r>
       <r>     0.8787     3.9815    23.7101 </r>
       <r>     0.9755     2.2083    23.9241 </r>
       <r>     1.0724     3.8584    24.2979 </r>
       <r>     1.1693     5.1675    24.7986 </r>
       <r>     1.2662     3.9178    25.1782 </r>
       <r>     1.3631     4.3289    25.5976 </r>
       <r>     1.4600     5.7763    26.1572 </r>
       <r>     1.5569     3.7657    26.5221 </r>
       <r>     1.6538     3.2907    26.8409 </r>
       <r>     1.7506     4.9891    27.3243 </r>
       <r>     1.8475     7.3093    28.0325 </r>
       <r>     1.9444     8.8832    28.8931 </r>
       <r>     2.0413     6.8329    29.5552 </r>
       <r>     2.1382     4.8893    30.0289 </r>
       <r>     2.2351     4.9217    30.5057 </r>
       <r>     2.3320     5.8631    31.0738 </r>
       <r>     2.4289     5.9835    31.6535 </r>
       <r>     2.5258     6.5242    32.2856 </r>
       <r>     2.6226     7.0524    32.9689 </r>
       <r>     2.7195     7.3541    33.6815 </r>
       <r>     2.8164     8.3378    34.4893 </r>
       <r>     2.9133     7.2036    35.1872 </r>
       <r>     3.0102     7.5194    35.9158 </r>
       <r>     3.1071     5.9808    36.4952 </r>
       <r>     3.2040     3.8397    36.8673 </r>
       <r>     3.3009     3.9933    37.2542 </r>
       <r>     3.3977     5.9787    37.8334 </r>
       <r>     3.4946     7.2935    38.5401 </r>
       <r>     3.5915     6.4387    39.1639 </r>
       <r>     3.6884     4.9712    39.6455 </r>
       <r>     3.7853     5.0786    40.1376 </r>
       <r>     3.8822     6.7164    40.7883 </r>
       <r>     3.9791     8.3251    41.5949 </r>
       <r>     4.0760     6.8763    42.2612 </r>
       <r>     4.1728     4.5694    42.7039 </r>
       <r>     4.2697     4.6141    43.1509 </r>
       <r>     4.3666     6.9057    43.8200 </r>
       <r>     4.4635     7.5962    44.5560 </r>
       <r>     4.5604     6.8866    45.2232 </r>
       <r>     4.6573     5.4211    45.7485 </r>
       <r>     4.7542     5.4253    46.2741 </r>
       <r>     4.8511     7.6842    47.0186 </r>
       <r>     4.9479     9.6385    47.9525 </r>
       <r>     5.0448     8.7576    48.8010 </r>
       <r>     5.1417     6.8632    49.4659 </r>
       <r>     5.2386     6.3127    50.0775 </r>
       <r>     5.3355     6.9328    50.7493 </r>
       <r>     5.4324     8.1165    51.5356 </r>
       <r>     5.5293     7.6828    52.2800 </r>
       <r>     5.6262     5.3766    52.8009 </r>
       <r>     5.7230     3.2221    53.1131 </r>
       <r>     5.8199     2.8691    53.3911 </r>
       <r>     5.9168     3.2574    53.7067 </r>
       <r>     6.0137     4.6525    54.1575 </r>
       <r>     6.1106     6.2544    54.7634 </r>
       <r>     6.2075     7.0174    55.4433 </r>
       <r>     6.3044     6.8477    56.1068 </r>
       <r>     6.4013     4.3856    56.5317 </r>
       <r>     6.4981     3.1405    56.8360 </r>
       <r>     6.5950     4.9687    57.3174 </r>
       <r>     6.6919     7.1620    58.0113 </r>
       <r>     6.7888     5.3778    58.5323 </r>
       <r>     6.8857     3.0065    58.8236 </r>
       <r>     6.9826     3.8320    59.1949 </r>
       <r>     7.0795     7.0321    59.8762 </r>
       <r>     7.1764     7.5011    60.6030 </r>
       <r>     7.2732     5.2652    61.1131 </r>
       <r>     7.3701     4.2833    61.5281 </r>
       <r>     7.4670     5.4262    62.0538 </r>
       <r>     7.5639     4.1095    62.4520 </r>
       <r>     7.6608     2.5997    62.7039 </r>
       <r>     7.7577     1.8744    62.8855 </r>
       <r>     7.8546     1.3196    63.0133 </r>
       <r>     7.9515     2.1663    63.2232 </r>
       <r>     8.0483     3.0423    63.5180 </r>
       <r>     8.1452     1.3805    63.6517 </r>
       <r>     8.2421     0.1507    63.6663 </r>
       <r>     8.3390     0.0033    63.6667 </r>
       <r>     8.4359     0.0000    63.6667 </r>
       <r>     8.5328     0.0000    63.6667 </r>
       <r>     8.6297     0.0000    63.6667 </r>
       <r>     8.7266     0.0001    63.6667 </r>
       <r>     8.8234     0.0100    63.6677 </r>
       <r>     8.9203     0.1788    63.6850 </r>
       <r>     9.0172     0.8444    63.7668 </r>
       <r>     9.1141     1.5002    63.9121 </r>
       <r>     9.2110     1.4035    64.0481 </r>
       <r>     9.3079     1.3604    64.1799 </r>
       <r>     9.4048     1.8815    64.3622 </r>
       <r>     9.5017     2.1917    64.5746 </r>
       <r>     9.5985     1.3962    64.7098 </r>
       <r>     9.6954     0.7913    64.7865 </r>
       <r>     9.7923     0.6373    64.8483 </r>
       <r>     9.8892     0.5767    64.9041 </r>
       <r>     9.9861     1.2095    65.0213 </r>
       <r>    10.0830     3.9235    65.4015 </r>
       <r>    10.1799     4.6456    65.8516 </r>
       <r>    10.2768     3.6309    66.2033 </r>
       <r>    10.3736     3.9689    66.5879 </r>
       <r>    10.4705     3.0709    66.8854 </r>
       <r>    10.5674     2.9937    67.1755 </r>
       <r>    10.6643     2.0612    67.3752 </r>
       <r>    10.7612     2.5698    67.6242 </r>
       <r>    10.8581     4.8516    68.0942 </r>
       <r>    10.9550     3.3912    68.4228 </r>
       <r>    11.0519     2.5450    68.6694 </r>
       <r>    11.1488     3.9860    69.0555 </r>
       <r>    11.2456     4.0144    69.4445 </r>
       <r>    11.3425     2.7476    69.7107 </r>
       <r>    11.4394     3.2318    70.0238 </r>
       <r>    11.5363     3.1778    70.3317 </r>
       <r>    11.6332     4.1951    70.7382 </r>
       <r>    11.7301     6.2232    71.3411 </r>
       <r>    11.8270     6.5702    71.9777 </r>
       <r>    11.9239     4.1946    72.3841 </r>
       <r>    12.0207     3.0446    72.6791 </r>
       <r>    12.1176     3.2954    72.9984 </r>
       <r>    12.2145     4.8853    73.4717 </r>
       <r>    12.3114     5.2743    73.9827 </r>
       <r>    12.4083     4.4696    74.4158 </r>
       <r>    12.5052     4.8359    74.8843 </r>
       <r>    12.6021     5.7920    75.4455 </r>
       <r>    12.6990     4.9014    75.9204 </r>
       <r>    12.7958     4.4674    76.3532 </r>
       <r>    12.8927     6.2198    76.9558 </r>
       <r>    12.9896     7.7685    77.7085 </r>
       <r>    13.0865     6.8597    78.3731 </r>
       <r>    13.1834     6.6271    79.0152 </r>
       <r>    13.2803     5.8799    79.5849 </r>
       <r>    13.3772     5.8893    80.1555 </r>
       <r>    13.4741     6.9788    80.8316 </r>
       <r>    13.5709     6.6888    81.4797 </r>
       <r>    13.6678     5.6810    82.0301 </r>
       <r>    13.7647     6.0842    82.6196 </r>
       <r>    13.8616     5.8290    83.1843 </r>
       <r>    13.9585     5.0806    83.6766 </r>
       <r>    14.0554     4.2874    84.0920 </r>
       <r>    14.1523     4.0741    84.4867 </r>
       <r>    14.2492     5.1633    84.9870 </r>
       <r>    14.3460     6.3272    85.6000 </r>
       <r>    14.4429     5.2321    86.1069 </r>
       <r>    14.5398     4.2187    86.5157 </r>
       <r>    14.6367     4.8373    86.9844 </r>
       <r>    14.7336     4.1518    87.3866 </r>
       <r>    14.8305     1.7049    87.5518 </r>
       <r>    14.9274     0.3242    87.5832 </r>
       <r>    15.0243     0.2395    87.6064 </r>
       <r>    15.1211     0.5697    87.6616 </r>
       <r>    15.2180     0.8488    87.7438 </r>
       <r>    15.3149     1.0981    87.8502 </r>
       <r>    15.4118     0.9309    87.9404 </r>
       <r>    15.5087     0.5029    87.9892 </r>
       <r>    15.6056     0.1059    87.9994 </r>
       <r>    15.7025     0.0059    88.0000 </r>
       <r>    15.7994     0.0001    88.0000 </r>
       <r>    15.8962     0.0000    88.0000 </r>
       <r>    15.9931     0.0000    88.0000 </r>
       <r>    16.0900     0.0000    88.0000 </r>
       <r>    16.1869     0.0000    88.0000 </r>
       <r>    16.2838     0.0000    88.0000 </r>
       <r>    16.3807     0.0000    88.0000 </r>
       <r>    16.4776     0.0000    88.0000 </r>
       <r>    16.5745     0.0000    88.0000 </r>
       <r>    16.6713     0.0000    88.0000 </r>
       <r>    16.7682     0.0000    88.0000 </r>
      </set>
     </set>
    </array>
   </total>
  </dos>
 </calculation>
 <structure name="finalpos" >
  <crystal>
   <varray name="basis" >
    <v>       5.03342324       0.00000000       0.01201129 </v>
    <v>       0.00000000       3.12292040       0.00000000 </v>
    <v>       0.02584686       0.00000000      11.02190670 </v>
   </varray>
   <i name="volume">    173.25216251 </i>
   <varray name="rec_basis" >
    <v>       0.19867306       0.00000000      -0.00046590 </v>
    <v>       0.00000000       0.32021309       0.00000000 </v>
    <v>      -0.00021651       0.00000000       0.09072891 </v>
   </varray>
  </crystal>
  <varray name="positions" >
   <v>       0.01434408       0.50000000       0.07961388 </v>
   <v>       0.49586859       0.50000000       0.91786869 </v>
   <v>       0.50562854       0.00000000       0.17244586 </v>
   <v>       0.01206696       0.00000000       0.83167311 </v>
   <v>       0.99821074       0.50000000       0.58350487 </v>
   <v>       0.00021476       0.00000000       0.34072222 </v>
   <v>       0.49314364       0.00000000       0.65489794 </v>
   <v>       0.49347085       0.50000000       0.41513384 </v>
   <v>       0.61478609       0.00000000       0.32063330 </v>
   <v>       0.13647732       0.50000000       0.93002127 </v>
   <v>       0.11412305       0.00000000       0.66773629 </v>
   <v>       0.62003163       0.00000000       0.85450129 </v>
   <v>       0.61818977       0.50000000       0.57733665 </v>
   <v>       0.63358641       0.50000000       0.08219655 </v>
   <v>       0.11685773       0.50000000       0.41248507 </v>
   <v>       0.13299984       0.00000000       0.15922916 </v>
  </varray>
 </structure>
</modeling>
