<?xml version="1.0" encoding="ISO-8859-1"?>
<modeling>
 <generator>
  <i name="program" type="string">vasp </i>
  <i name="version" type="string">5.3.5  </i>
  <i name="subversion" type="string">31Mar14 (build Jun 20 2014 13:15:13) complex                          parallel </i>
  <i name="platform" type="string">LinuxIFC </i>
  <i name="date" type="string">2025 11 21 </i>
  <i name="time" type="string">14:11:59 </i>
 </generator>
 <incar>
  <i type="string" name="PREC">accurate</i>
  <i type="int" name="IALGO">    68</i>
  <i type="logical" name="ADDGRID"> T  </i>
  <i type="int" name="NELM">   100</i>
  <i type="int" name="NELMIN">     4</i>
  <i type="int" name="IBRION">     2</i>
  <i name="EDIFF">      0.00000100</i>
  <i name="EDIFFG">     -0.02000000</i>
  <i type="int" name="NSW">    30</i>
  <i type="int" name="ISIF">     3</i>
  <i name="ENCUT">    500.00000000</i>
  <i type="logical" name="LREAL"> F  </i>
  <i type="int" name="ISMEAR">     1</i>
  <i name="SIGMA">      0.30000000</i>
  <i type="logical" name="LWAVE"> F  </i>
  <i type="logical" name="LCHARG"> F  </i>
  <i type="int" name="NELM">   100</i>
 </incar>
 <kpoints>
  <generation param="Auto">
   <i name="subdivisionlength">     70.00000000 </i>
   <v type="int" name="divisions">      19       16       13 </v>
   <v name="usershift">      0.00000000       0.00000000       0.00000000 </v>
   <v name="genvec1">      0.05263158       0.00000000       0.00000000 </v>
   <v name="genvec2">      0.00000000       0.06250000       0.00000000 </v>
   <v name="genvec3">      0.00000000       0.00000000       0.07692308 </v>
   <v name="shift">      0.00000000       0.00000000       0.00000000 </v>
  </generation>
  <varray name="kpointlist" >
   <v>       0.00000000       0.00000000       0.00000000 </v>
   <v>       0.05263158       0.00000000       0.00000000 </v>
   <v>       0.10526316       0.00000000       0.00000000 </v>
   <v>       0.15789474       0.00000000       0.00000000 </v>
   <v>       0.21052632       0.00000000       0.00000000 </v>
   <v>       0.26315789       0.00000000       0.00000000 </v>
   <v>       0.31578947       0.00000000       0.00000000 </v>
   <v>       0.36842105       0.00000000       0.00000000 </v>
   <v>       0.42105263       0.00000000       0.00000000 </v>
   <v>       0.47368421       0.00000000       0.00000000 </v>
   <v>       0.00000000       0.06250000       0.00000000 </v>
   <v>       0.05263158       0.06250000       0.00000000 </v>
   <v>       0.10526316       0.06250000       0.00000000 </v>
   <v>       0.15789474       0.06250000       0.00000000 </v>
   <v>       0.21052632       0.06250000       0.00000000 </v>
   <v>       0.26315789       0.06250000       0.00000000 </v>
   <v>       0.31578947       0.06250000       0.00000000 </v>
   <v>       0.36842105       0.06250000       0.00000000 </v>
   <v>       0.42105263       0.06250000       0.00000000 </v>
   <v>       0.47368421       0.06250000       0.00000000 </v>
   <v>      -0.47368421       0.06250000       0.00000000 </v>
   <v>      -0.42105263       0.06250000       0.00000000 </v>
   <v>      -0.36842105       0.06250000       0.00000000 </v>
   <v>      -0.31578947       0.06250000       0.00000000 </v>
   <v>      -0.26315789       0.06250000       0.00000000 </v>
   <v>      -0.21052632       0.06250000       0.00000000 </v>
   <v>      -0.15789474       0.06250000       0.00000000 </v>
   <v>      -0.10526316       0.06250000       0.00000000 </v>
   <v>      -0.05263158       0.06250000       0.00000000 </v>
   <v>       0.00000000       0.12500000       0.00000000 </v>
   <v>       0.05263158       0.12500000       0.00000000 </v>
   <v>       0.10526316       0.12500000       0.00000000 </v>
   <v>       0.15789474       0.12500000       0.00000000 </v>
   <v>       0.21052632       0.12500000       0.00000000 </v>
   <v>       0.26315789       0.12500000       0.00000000 </v>
   <v>       0.31578947       0.12500000       0.00000000 </v>
   <v>       0.36842105       0.12500000       0.00000000 </v>
   <v>       0.42105263       0.12500000       0.00000000 </v>
   <v>       0.47368421       0.12500000       0.00000000 </v>
   <v>      -0.47368421       0.12500000       0.00000000 </v>
   <v>      -0.42105263       0.12500000       0.00000000 </v>
   <v>      -0.36842105       0.12500000       0.00000000 </v>
   <v>      -0.31578947       0.12500000       0.00000000 </v>
   <v>      -0.26315789       0.12500000       0.00000000 </v>
   <v>      -0.21052632       0.12500000       0.00000000 </v>
   <v>      -0.15789474       0.12500000       0.00000000 </v>
   <v>      -0.10526316       0.12500000       0.00000000 </v>
   <v>      -0.05263158       0.12500000       0.00000000 </v>
   <v>       0.00000000       0.18750000       0.00000000 </v>
   <v>       0.05263158       0.18750000       0.00000000 </v>
   <v>       0.10526316       0.18750000       0.00000000 </v>
   <v>       0.15789474       0.18750000       0.00000000 </v>
   <v>       0.21052632       0.18750000       0.00000000 </v>
   <v>       0.26315789       0.18750000       0.00000000 </v>
   <v>       0.31578947       0.18750000       0.00000000 </v>
   <v>       0.36842105       0.18750000       0.00000000 </v>
   <v>       0.42105263       0.18750000       0.00000000 </v>
   <v>       0.47368421       0.18750000       0.00000000 </v>
   <v>      -0.47368421       0.18750000       0.00000000 </v>
   <v>      -0.42105263       0.18750000       0.00000000 </v>
   <v>      -0.36842105       0.18750000       0.00000000 </v>
   <v>      -0.31578947       0.18750000       0.00000000 </v>
   <v>      -0.26315789       0.18750000       0.00000000 </v>
   <v>      -0.21052632       0.18750000       0.00000000 </v>
   <v>      -0.15789474       0.18750000       0.00000000 </v>
   <v>      -0.10526316       0.18750000       0.00000000 </v>
   <v>      -0.05263158       0.18750000       0.00000000 </v>
   <v>       0.00000000       0.25000000       0.00000000 </v>
   <v>       0.05263158       0.25000000       0.00000000 </v>
   <v>       0.10526316       0.25000000       0.00000000 </v>
   <v>       0.15789474       0.25000000       0.00000000 </v>
   <v>       0.21052632       0.25000000       0.00000000 </v>
   <v>       0.26315789       0.25000000       0.00000000 </v>
   <v>       0.31578947       0.25000000       0.00000000 </v>
   <v>       0.36842105       0.25000000       0.00000000 </v>
   <v>       0.42105263       0.25000000       0.00000000 </v>
   <v>       0.47368421       0.25000000       0.00000000 </v>
   <v>      -0.47368421       0.25000000       0.00000000 </v>
   <v>      -0.42105263       0.25000000       0.00000000 </v>
   <v>      -0.36842105       0.25000000       0.00000000 </v>
   <v>      -0.31578947       0.25000000       0.00000000 </v>
   <v>      -0.26315789       0.25000000       0.00000000 </v>
   <v>      -0.21052632       0.25000000       0.00000000 </v>
   <v>      -0.15789474       0.25000000       0.00000000 </v>
   <v>      -0.10526316       0.25000000       0.00000000 </v>
   <v>      -0.05263158       0.25000000       0.00000000 </v>
   <v>       0.00000000       0.31250000       0.00000000 </v>
   <v>       0.05263158       0.31250000       0.00000000 </v>
   <v>       0.10526316       0.31250000       0.00000000 </v>
   <v>       0.15789474       0.31250000       0.00000000 </v>
   <v>       0.21052632       0.31250000       0.00000000 </v>
   <v>       0.26315789       0.31250000       0.00000000 </v>
   <v>       0.31578947       0.31250000       0.00000000 </v>
   <v>       0.36842105       0.31250000       0.00000000 </v>
   <v>       0.42105263       0.31250000       0.00000000 </v>
   <v>       0.47368421       0.31250000       0.00000000 </v>
   <v>      -0.47368421       0.31250000       0.00000000 </v>
   <v>      -0.42105263       0.31250000       0.00000000 </v>
   <v>      -0.36842105       0.31250000       0.00000000 </v>
   <v>      -0.31578947       0.31250000       0.00000000 </v>
   <v>      -0.26315789       0.31250000       0.00000000 </v>
   <v>      -0.21052632       0.31250000       0.00000000 </v>
   <v>      -0.15789474       0.31250000       0.00000000 </v>
   <v>      -0.10526316       0.31250000       0.00000000 </v>
   <v>      -0.05263158       0.31250000       0.00000000 </v>
   <v>       0.00000000       0.37500000       0.00000000 </v>
   <v>       0.05263158       0.37500000       0.00000000 </v>
   <v>       0.10526316       0.37500000       0.00000000 </v>
   <v>       0.15789474       0.37500000       0.00000000 </v>
   <v>       0.21052632       0.37500000       0.00000000 </v>
   <v>       0.26315789       0.37500000       0.00000000 </v>
   <v>       0.31578947       0.37500000       0.00000000 </v>
   <v>       0.36842105       0.37500000       0.00000000 </v>
   <v>       0.42105263       0.37500000       0.00000000 </v>
   <v>       0.47368421       0.37500000       0.00000000 </v>
   <v>      -0.47368421       0.37500000       0.00000000 </v>
   <v>      -0.42105263       0.37500000       0.00000000 </v>
   <v>      -0.36842105       0.37500000       0.00000000 </v>
   <v>      -0.31578947       0.37500000       0.00000000 </v>
   <v>      -0.26315789       0.37500000       0.00000000 </v>
   <v>      -0.21052632       0.37500000       0.00000000 </v>
   <v>      -0.15789474       0.37500000       0.00000000 </v>
   <v>      -0.10526316       0.37500000       0.00000000 </v>
   <v>      -0.05263158       0.37500000       0.00000000 </v>
   <v>       0.00000000       0.43750000       0.00000000 </v>
   <v>       0.05263158       0.43750000       0.00000000 </v>
   <v>       0.10526316       0.43750000       0.00000000 </v>
   <v>       0.15789474       0.43750000       0.00000000 </v>
   <v>       0.21052632       0.43750000       0.00000000 </v>
   <v>       0.26315789       0.43750000       0.00000000 </v>
   <v>       0.31578947       0.43750000       0.00000000 </v>
   <v>       0.36842105       0.43750000       0.00000000 </v>
   <v>       0.42105263       0.43750000       0.00000000 </v>
   <v>       0.47368421       0.43750000       0.00000000 </v>
   <v>      -0.47368421       0.43750000       0.00000000 </v>
   <v>      -0.42105263       0.43750000       0.00000000 </v>
   <v>      -0.36842105       0.43750000       0.00000000 </v>
   <v>      -0.31578947       0.43750000       0.00000000 </v>
   <v>      -0.26315789       0.43750000       0.00000000 </v>
   <v>      -0.21052632       0.43750000       0.00000000 </v>
   <v>      -0.15789474       0.43750000       0.00000000 </v>
   <v>      -0.10526316       0.43750000       0.00000000 </v>
   <v>      -0.05263158       0.43750000       0.00000000 </v>
   <v>       0.00000000       0.50000000       0.00000000 </v>
   <v>       0.05263158       0.50000000       0.00000000 </v>
   <v>       0.10526316       0.50000000       0.00000000 </v>
   <v>       0.15789474       0.50000000       0.00000000 </v>
   <v>       0.21052632       0.50000000       0.00000000 </v>
   <v>       0.26315789       0.50000000       0.00000000 </v>
   <v>       0.31578947       0.50000000       0.00000000 </v>
   <v>       0.36842105       0.50000000       0.00000000 </v>
   <v>       0.42105263       0.50000000       0.00000000 </v>
   <v>       0.47368421       0.50000000       0.00000000 </v>
   <v>       0.00000000       0.00000000       0.07692308 </v>
   <v>       0.05263158       0.00000000       0.07692308 </v>
   <v>       0.10526316       0.00000000       0.07692308 </v>
   <v>       0.15789474       0.00000000       0.07692308 </v>
   <v>       0.21052632       0.00000000       0.07692308 </v>
   <v>       0.26315789       0.00000000       0.07692308 </v>
   <v>       0.31578947       0.00000000       0.07692308 </v>
   <v>       0.36842105       0.00000000       0.07692308 </v>
   <v>       0.42105263       0.00000000       0.07692308 </v>
   <v>       0.47368421       0.00000000       0.07692308 </v>
   <v>      -0.47368421       0.00000000       0.07692308 </v>
   <v>      -0.42105263       0.00000000       0.07692308 </v>
   <v>      -0.36842105       0.00000000       0.07692308 </v>
   <v>      -0.31578947       0.00000000       0.07692308 </v>
   <v>      -0.26315789       0.00000000       0.07692308 </v>
   <v>      -0.21052632       0.00000000       0.07692308 </v>
   <v>      -0.15789474       0.00000000       0.07692308 </v>
   <v>      -0.10526316       0.00000000       0.07692308 </v>
   <v>      -0.05263158       0.00000000       0.07692308 </v>
   <v>       0.00000000       0.06250000       0.07692308 </v>
   <v>       0.05263158       0.06250000       0.07692308 </v>
   <v>       0.10526316       0.06250000       0.07692308 </v>
   <v>       0.15789474       0.06250000       0.07692308 </v>
   <v>       0.21052632       0.06250000       0.07692308 </v>
   <v>       0.26315789       0.06250000       0.07692308 </v>
   <v>       0.31578947       0.06250000       0.07692308 </v>
   <v>       0.36842105       0.06250000       0.07692308 </v>
   <v>       0.42105263       0.06250000       0.07692308 </v>
   <v>       0.47368421       0.06250000       0.07692308 </v>
   <v>      -0.47368421       0.06250000       0.07692308 </v>
   <v>      -0.42105263       0.06250000       0.07692308 </v>
   <v>      -0.36842105       0.06250000       0.07692308 </v>
   <v>      -0.31578947       0.06250000       0.07692308 </v>
   <v>      -0.26315789       0.06250000       0.07692308 </v>
   <v>      -0.21052632       0.06250000       0.07692308 </v>
   <v>      -0.15789474       0.06250000       0.07692308 </v>
   <v>      -0.10526316       0.06250000       0.07692308 </v>
   <v>      -0.05263158       0.06250000       0.07692308 </v>
   <v>       0.00000000       0.12500000       0.07692308 </v>
   <v>       0.05263158       0.12500000       0.07692308 </v>
   <v>       0.10526316       0.12500000       0.07692308 </v>
   <v>       0.15789474       0.12500000       0.07692308 </v>
   <v>       0.21052632       0.12500000       0.07692308 </v>
   <v>       0.26315789       0.12500000       0.07692308 </v>
   <v>       0.31578947       0.12500000       0.07692308 </v>
   <v>       0.36842105       0.12500000       0.07692308 </v>
   <v>       0.42105263       0.12500000       0.07692308 </v>
   <v>       0.47368421       0.12500000       0.07692308 </v>
   <v>      -0.47368421       0.12500000       0.07692308 </v>
   <v>      -0.42105263       0.12500000       0.07692308 </v>
   <v>      -0.36842105       0.12500000       0.07692308 </v>
   <v>      -0.31578947       0.12500000       0.07692308 </v>
   <v>      -0.26315789       0.12500000       0.07692308 </v>
   <v>      -0.21052632       0.12500000       0.07692308 </v>
   <v>      -0.15789474       0.12500000       0.07692308 </v>
   <v>      -0.10526316       0.12500000       0.07692308 </v>
   <v>      -0.05263158       0.12500000       0.07692308 </v>
   <v>       0.00000000       0.18750000       0.07692308 </v>
   <v>       0.05263158       0.18750000       0.07692308 </v>
   <v>       0.10526316       0.18750000       0.07692308 </v>
   <v>       0.15789474       0.18750000       0.07692308 </v>
   <v>       0.21052632       0.18750000       0.07692308 </v>
   <v>       0.26315789       0.18750000       0.07692308 </v>
   <v>       0.31578947       0.18750000       0.07692308 </v>
   <v>       0.36842105       0.18750000       0.07692308 </v>
   <v>       0.42105263       0.18750000       0.07692308 </v>
   <v>       0.47368421       0.18750000       0.07692308 </v>
   <v>      -0.47368421       0.18750000       0.07692308 </v>
   <v>      -0.42105263       0.18750000       0.07692308 </v>
   <v>      -0.36842105       0.18750000       0.07692308 </v>
   <v>      -0.31578947       0.18750000       0.07692308 </v>
   <v>      -0.26315789       0.18750000       0.07692308 </v>
   <v>      -0.21052632       0.18750000       0.07692308 </v>
   <v>      -0.15789474       0.18750000       0.07692308 </v>
   <v>      -0.10526316       0.18750000       0.07692308 </v>
   <v>      -0.05263158       0.18750000       0.07692308 </v>
   <v>       0.00000000       0.25000000       0.07692308 </v>
   <v>       0.05263158       0.25000000       0.07692308 </v>
   <v>       0.10526316       0.25000000       0.07692308 </v>
   <v>       0.15789474       0.25000000       0.07692308 </v>
   <v>       0.21052632       0.25000000       0.07692308 </v>
   <v>       0.26315789       0.25000000       0.07692308 </v>
   <v>       0.31578947       0.25000000       0.07692308 </v>
   <v>       0.36842105       0.25000000       0.07692308 </v>
   <v>       0.42105263       0.25000000       0.07692308 </v>
   <v>       0.47368421       0.25000000       0.07692308 </v>
   <v>      -0.47368421       0.25000000       0.07692308 </v>
   <v>      -0.42105263       0.25000000       0.07692308 </v>
   <v>      -0.36842105       0.25000000       0.07692308 </v>
   <v>      -0.31578947       0.25000000       0.07692308 </v>
   <v>      -0.26315789       0.25000000       0.07692308 </v>
   <v>      -0.21052632       0.25000000       0.07692308 </v>
   <v>      -0.15789474       0.25000000       0.07692308 </v>
   <v>      -0.10526316       0.25000000       0.07692308 </v>
   <v>      -0.05263158       0.25000000       0.07692308 </v>
   <v>       0.00000000       0.31250000       0.07692308 </v>
   <v>       0.05263158       0.31250000       0.07692308 </v>
   <v>       0.10526316       0.31250000       0.07692308 </v>
   <v>       0.15789474       0.31250000       0.07692308 </v>
   <v>       0.21052632       0.31250000       0.07692308 </v>
   <v>       0.26315789       0.31250000       0.07692308 </v>
   <v>       0.31578947       0.31250000       0.07692308 </v>
   <v>       0.36842105       0.31250000       0.07692308 </v>
   <v>       0.42105263       0.31250000       0.07692308 </v>
   <v>       0.47368421       0.31250000       0.07692308 </v>
   <v>      -0.47368421       0.31250000       0.07692308 </v>
   <v>      -0.42105263       0.31250000       0.07692308 </v>
   <v>      -0.36842105       0.31250000       0.07692308 </v>
   <v>      -0.31578947       0.31250000       0.07692308 </v>
   <v>      -0.26315789       0.31250000       0.07692308 </v>
   <v>      -0.21052632       0.31250000       0.07692308 </v>
   <v>      -0.15789474       0.31250000       0.07692308 </v>
   <v>      -0.10526316       0.31250000       0.07692308 </v>
   <v>      -0.05263158       0.31250000       0.07692308 </v>
   <v>       0.00000000       0.37500000       0.07692308 </v>
   <v>       0.05263158       0.37500000       0.07692308 </v>
   <v>       0.10526316       0.37500000       0.07692308 </v>
   <v>       0.15789474       0.37500000       0.07692308 </v>
   <v>       0.21052632       0.37500000       0.07692308 </v>
   <v>       0.26315789       0.37500000       0.07692308 </v>
   <v>       0.31578947       0.37500000       0.07692308 </v>
   <v>       0.36842105       0.37500000       0.07692308 </v>
   <v>       0.42105263       0.37500000       0.07692308 </v>
   <v>       0.47368421       0.37500000       0.07692308 </v>
   <v>      -0.47368421       0.37500000       0.07692308 </v>
   <v>      -0.42105263       0.37500000       0.07692308 </v>
   <v>      -0.36842105       0.37500000       0.07692308 </v>
   <v>      -0.31578947       0.37500000       0.07692308 </v>
   <v>      -0.26315789       0.37500000       0.07692308 </v>
   <v>      -0.21052632       0.37500000       0.07692308 </v>
   <v>      -0.15789474       0.37500000       0.07692308 </v>
   <v>      -0.10526316       0.37500000       0.07692308 </v>
   <v>      -0.05263158       0.37500000       0.07692308 </v>
   <v>       0.00000000       0.43750000       0.07692308 </v>
   <v>       0.05263158       0.43750000       0.07692308 </v>
   <v>       0.10526316       0.43750000       0.07692308 </v>
   <v>       0.15789474       0.43750000       0.07692308 </v>
   <v>       0.21052632       0.43750000       0.07692308 </v>
   <v>       0.26315789       0.43750000       0.07692308 </v>
   <v>       0.31578947       0.43750000       0.07692308 </v>
   <v>       0.36842105       0.43750000       0.07692308 </v>
   <v>       0.42105263       0.43750000       0.07692308 </v>
   <v>       0.47368421       0.43750000       0.07692308 </v>
   <v>      -0.47368421       0.43750000       0.07692308 </v>
   <v>      -0.42105263       0.43750000       0.07692308 </v>
   <v>      -0.36842105       0.43750000       0.07692308 </v>
   <v>      -0.31578947       0.43750000       0.07692308 </v>
   <v>      -0.26315789       0.43750000       0.07692308 </v>
   <v>      -0.21052632       0.43750000       0.07692308 </v>
   <v>      -0.15789474       0.43750000       0.07692308 </v>
   <v>      -0.10526316       0.43750000       0.07692308 </v>
   <v>      -0.05263158       0.43750000       0.07692308 </v>
   <v>       0.00000000       0.50000000       0.07692308 </v>
   <v>       0.05263158       0.50000000       0.07692308 </v>
   <v>       0.10526316       0.50000000       0.07692308 </v>
   <v>       0.15789474       0.50000000       0.07692308 </v>
   <v>       0.21052632       0.50000000       0.07692308 </v>
   <v>       0.26315789       0.50000000       0.07692308 </v>
   <v>       0.31578947       0.50000000       0.07692308 </v>
   <v>       0.36842105       0.50000000       0.07692308 </v>
   <v>       0.42105263       0.50000000       0.07692308 </v>
   <v>       0.47368421       0.50000000       0.07692308 </v>
   <v>      -0.47368421       0.50000000       0.07692308 </v>
   <v>      -0.42105263       0.50000000       0.07692308 </v>
   <v>      -0.36842105       0.50000000       0.07692308 </v>
   <v>      -0.31578947       0.50000000       0.07692308 </v>
   <v>      -0.26315789       0.50000000       0.07692308 </v>
   <v>      -0.21052632       0.50000000       0.07692308 </v>
   <v>      -0.15789474       0.50000000       0.07692308 </v>
   <v>      -0.10526316       0.50000000       0.07692308 </v>
   <v>      -0.05263158       0.50000000       0.07692308 </v>
   <v>       0.00000000      -0.43750000       0.07692308 </v>
   <v>       0.05263158      -0.43750000       0.07692308 </v>
   <v>       0.10526316      -0.43750000       0.07692308 </v>
   <v>       0.15789474      -0.43750000       0.07692308 </v>
   <v>       0.21052632      -0.43750000       0.07692308 </v>
   <v>       0.26315789      -0.43750000       0.07692308 </v>
   <v>       0.31578947      -0.43750000       0.07692308 </v>
   <v>       0.36842105      -0.43750000       0.07692308 </v>
   <v>       0.42105263      -0.43750000       0.07692308 </v>
   <v>       0.47368421      -0.43750000       0.07692308 </v>
   <v>      -0.47368421      -0.43750000       0.07692308 </v>
   <v>      -0.42105263      -0.43750000       0.07692308 </v>
   <v>      -0.36842105      -0.43750000       0.07692308 </v>
   <v>      -0.31578947      -0.43750000       0.07692308 </v>
   <v>      -0.26315789      -0.43750000       0.07692308 </v>
   <v>      -0.21052632      -0.43750000       0.07692308 </v>
   <v>      -0.15789474      -0.43750000       0.07692308 </v>
   <v>      -0.10526316      -0.43750000       0.07692308 </v>
   <v>      -0.05263158      -0.43750000       0.07692308 </v>
   <v>       0.00000000      -0.37500000       0.07692308 </v>
   <v>       0.05263158      -0.37500000       0.07692308 </v>
   <v>       0.10526316      -0.37500000       0.07692308 </v>
   <v>       0.15789474      -0.37500000       0.07692308 </v>
   <v>       0.21052632      -0.37500000       0.07692308 </v>
   <v>       0.26315789      -0.37500000       0.07692308 </v>
   <v>       0.31578947      -0.37500000       0.07692308 </v>
   <v>       0.36842105      -0.37500000       0.07692308 </v>
   <v>       0.42105263      -0.37500000       0.07692308 </v>
   <v>       0.47368421      -0.37500000       0.07692308 </v>
   <v>      -0.47368421      -0.37500000       0.07692308 </v>
   <v>      -0.42105263      -0.37500000       0.07692308 </v>
   <v>      -0.36842105      -0.37500000       0.07692308 </v>
   <v>      -0.31578947      -0.37500000       0.07692308 </v>
   <v>      -0.26315789      -0.37500000       0.07692308 </v>
   <v>      -0.21052632      -0.37500000       0.07692308 </v>
   <v>      -0.15789474      -0.37500000       0.07692308 </v>
   <v>      -0.10526316      -0.37500000       0.07692308 </v>
   <v>      -0.05263158      -0.37500000       0.07692308 </v>
   <v>       0.00000000      -0.31250000       0.07692308 </v>
   <v>       0.05263158      -0.31250000       0.07692308 </v>
   <v>       0.10526316      -0.31250000       0.07692308 </v>
   <v>       0.15789474      -0.31250000       0.07692308 </v>
   <v>       0.21052632      -0.31250000       0.07692308 </v>
   <v>       0.26315789      -0.31250000       0.07692308 </v>
   <v>       0.31578947      -0.31250000       0.07692308 </v>
   <v>       0.36842105      -0.31250000       0.07692308 </v>
   <v>       0.42105263      -0.31250000       0.07692308 </v>
   <v>       0.47368421      -0.31250000       0.07692308 </v>
   <v>      -0.47368421      -0.31250000       0.07692308 </v>
   <v>      -0.42105263      -0.31250000       0.07692308 </v>
   <v>      -0.36842105      -0.31250000       0.07692308 </v>
   <v>      -0.31578947      -0.31250000       0.07692308 </v>
   <v>      -0.26315789      -0.31250000       0.07692308 </v>
   <v>      -0.21052632      -0.31250000       0.07692308 </v>
   <v>      -0.15789474      -0.31250000       0.07692308 </v>
   <v>      -0.10526316      -0.31250000       0.07692308 </v>
   <v>      -0.05263158      -0.31250000       0.07692308 </v>
   <v>       0.00000000      -0.25000000       0.07692308 </v>
   <v>       0.05263158      -0.25000000       0.07692308 </v>
   <v>       0.10526316      -0.25000000       0.07692308 </v>
   <v>       0.15789474      -0.25000000       0.07692308 </v>
   <v>       0.21052632      -0.25000000       0.07692308 </v>
   <v>       0.26315789      -0.25000000       0.07692308 </v>
   <v>       0.31578947      -0.25000000       0.07692308 </v>
   <v>       0.36842105      -0.25000000       0.07692308 </v>
   <v>       0.42105263      -0.25000000       0.07692308 </v>
   <v>       0.47368421      -0.25000000       0.07692308 </v>
   <v>      -0.47368421      -0.25000000       0.07692308 </v>
   <v>      -0.42105263      -0.25000000       0.07692308 </v>
   <v>      -0.36842105      -0.25000000       0.07692308 </v>
   <v>      -0.31578947      -0.25000000       0.07692308 </v>
   <v>      -0.26315789      -0.25000000       0.07692308 </v>
   <v>      -0.21052632      -0.25000000       0.07692308 </v>
   <v>      -0.15789474      -0.25000000       0.07692308 </v>
   <v>      -0.10526316      -0.25000000       0.07692308 </v>
   <v>      -0.05263158      -0.25000000       0.07692308 </v>
   <v>       0.00000000      -0.18750000       0.07692308 </v>
   <v>       0.05263158      -0.18750000       0.07692308 </v>
   <v>       0.10526316      -0.18750000       0.07692308 </v>
   <v>       0.15789474      -0.18750000       0.07692308 </v>
   <v>       0.21052632      -0.18750000       0.07692308 </v>
   <v>       0.26315789      -0.18750000       0.07692308 </v>
   <v>       0.31578947      -0.18750000       0.07692308 </v>
   <v>       0.36842105      -0.18750000       0.07692308 </v>
   <v>       0.42105263      -0.18750000       0.07692308 </v>
   <v>       0.47368421      -0.18750000       0.07692308 </v>
   <v>      -0.47368421      -0.18750000       0.07692308 </v>
   <v>      -0.42105263      -0.18750000       0.07692308 </v>
   <v>      -0.36842105      -0.18750000       0.07692308 </v>
   <v>      -0.31578947      -0.18750000       0.07692308 </v>
   <v>      -0.26315789      -0.18750000       0.07692308 </v>
   <v>      -0.21052632      -0.18750000       0.07692308 </v>
   <v>      -0.15789474      -0.18750000       0.07692308 </v>
   <v>      -0.10526316      -0.18750000       0.07692308 </v>
   <v>      -0.05263158      -0.18750000       0.07692308 </v>
   <v>       0.00000000      -0.12500000       0.07692308 </v>
   <v>       0.05263158      -0.12500000       0.07692308 </v>
   <v>       0.10526316      -0.12500000       0.07692308 </v>
   <v>       0.15789474      -0.12500000       0.07692308 </v>
   <v>       0.21052632      -0.12500000       0.07692308 </v>
   <v>       0.26315789      -0.12500000       0.07692308 </v>
   <v>       0.31578947      -0.12500000       0.07692308 </v>
   <v>       0.36842105      -0.12500000       0.07692308 </v>
   <v>       0.42105263      -0.12500000       0.07692308 </v>
   <v>       0.47368421      -0.12500000       0.07692308 </v>
   <v>      -0.47368421      -0.12500000       0.07692308 </v>
   <v>      -0.42105263      -0.12500000       0.07692308 </v>
   <v>      -0.36842105      -0.12500000       0.07692308 </v>
   <v>      -0.31578947      -0.12500000       0.07692308 </v>
   <v>      -0.26315789      -0.12500000       0.07692308 </v>
   <v>      -0.21052632      -0.12500000       0.07692308 </v>
   <v>      -0.15789474      -0.12500000       0.07692308 </v>
   <v>      -0.10526316      -0.12500000       0.07692308 </v>
   <v>      -0.05263158      -0.12500000       0.07692308 </v>
   <v>       0.00000000      -0.06250000       0.07692308 </v>
   <v>       0.05263158      -0.06250000       0.07692308 </v>
   <v>       0.10526316      -0.06250000       0.07692308 </v>
   <v>       0.15789474      -0.06250000       0.07692308 </v>
   <v>       0.21052632      -0.06250000       0.07692308 </v>
   <v>       0.26315789      -0.06250000       0.07692308 </v>
   <v>       0.31578947      -0.06250000       0.07692308 </v>
   <v>       0.36842105      -0.06250000       0.07692308 </v>
   <v>       0.42105263      -0.06250000       0.07692308 </v>
   <v>       0.47368421      -0.06250000       0.07692308 </v>
   <v>      -0.47368421      -0.06250000       0.07692308 </v>
   <v>      -0.42105263      -0.06250000       0.07692308 </v>
   <v>      -0.36842105      -0.06250000       0.07692308 </v>
   <v>      -0.31578947      -0.06250000       0.07692308 </v>
   <v>      -0.26315789      -0.06250000       0.07692308 </v>
   <v>      -0.21052632      -0.06250000       0.07692308 </v>
   <v>      -0.15789474      -0.06250000       0.07692308 </v>
   <v>      -0.10526316      -0.06250000       0.07692308 </v>
   <v>      -0.05263158      -0.06250000       0.07692308 </v>
   <v>       0.00000000       0.00000000       0.15384615 </v>
   <v>       0.05263158       0.00000000       0.15384615 </v>
   <v>       0.10526316       0.00000000       0.15384615 </v>
   <v>       0.15789474       0.00000000       0.15384615 </v>
   <v>       0.21052632       0.00000000       0.15384615 </v>
   <v>       0.26315789       0.00000000       0.15384615 </v>
   <v>       0.31578947       0.00000000       0.15384615 </v>
   <v>       0.36842105       0.00000000       0.15384615 </v>
   <v>       0.42105263       0.00000000       0.15384615 </v>
   <v>       0.47368421       0.00000000       0.15384615 </v>
   <v>      -0.47368421       0.00000000       0.15384615 </v>
   <v>      -0.42105263       0.00000000       0.15384615 </v>
   <v>      -0.36842105       0.00000000       0.15384615 </v>
   <v>      -0.31578947       0.00000000       0.15384615 </v>
   <v>      -0.26315789       0.00000000       0.15384615 </v>
   <v>      -0.21052632       0.00000000       0.15384615 </v>
   <v>      -0.15789474       0.00000000       0.15384615 </v>
   <v>      -0.10526316       0.00000000       0.15384615 </v>
   <v>      -0.05263158       0.00000000       0.15384615 </v>
   <v>       0.00000000       0.06250000       0.15384615 </v>
   <v>       0.05263158       0.06250000       0.15384615 </v>
   <v>       0.10526316       0.06250000       0.15384615 </v>
   <v>       0.15789474       0.06250000       0.15384615 </v>
   <v>       0.21052632       0.06250000       0.15384615 </v>
   <v>       0.26315789       0.06250000       0.15384615 </v>
   <v>       0.31578947       0.06250000       0.15384615 </v>
   <v>       0.36842105       0.06250000       0.15384615 </v>
   <v>       0.42105263       0.06250000       0.15384615 </v>
   <v>       0.47368421       0.06250000       0.15384615 </v>
   <v>      -0.47368421       0.06250000       0.15384615 </v>
   <v>      -0.42105263       0.06250000       0.15384615 </v>
   <v>      -0.36842105       0.06250000       0.15384615 </v>
   <v>      -0.31578947       0.06250000       0.15384615 </v>
   <v>      -0.26315789       0.06250000       0.15384615 </v>
   <v>      -0.21052632       0.06250000       0.15384615 </v>
   <v>      -0.15789474       0.06250000       0.15384615 </v>
   <v>      -0.10526316       0.06250000       0.15384615 </v>
   <v>      -0.05263158       0.06250000       0.15384615 </v>
   <v>       0.00000000       0.12500000       0.15384615 </v>
   <v>       0.05263158       0.12500000       0.15384615 </v>
   <v>       0.10526316       0.12500000       0.15384615 </v>
   <v>       0.15789474       0.12500000       0.15384615 </v>
   <v>       0.21052632       0.12500000       0.15384615 </v>
   <v>       0.26315789       0.12500000       0.15384615 </v>
   <v>       0.31578947       0.12500000       0.15384615 </v>
   <v>       0.36842105       0.12500000       0.15384615 </v>
   <v>       0.42105263       0.12500000       0.15384615 </v>
   <v>       0.47368421       0.12500000       0.15384615 </v>
   <v>      -0.47368421       0.12500000       0.15384615 </v>
   <v>      -0.42105263       0.12500000       0.15384615 </v>
   <v>      -0.36842105       0.12500000       0.15384615 </v>
   <v>      -0.31578947       0.12500000       0.15384615 </v>
   <v>      -0.26315789       0.12500000       0.15384615 </v>
   <v>      -0.21052632       0.12500000       0.15384615 </v>
   <v>      -0.15789474       0.12500000       0.15384615 </v>
   <v>      -0.10526316       0.12500000       0.15384615 </v>
   <v>      -0.05263158       0.12500000       0.15384615 </v>
   <v>       0.00000000       0.18750000       0.15384615 </v>
   <v>       0.05263158       0.18750000       0.15384615 </v>
   <v>       0.10526316       0.18750000       0.15384615 </v>
   <v>       0.15789474       0.18750000       0.15384615 </v>
   <v>       0.21052632       0.18750000       0.15384615 </v>
   <v>       0.26315789       0.18750000       0.15384615 </v>
   <v>       0.31578947       0.18750000       0.15384615 </v>
   <v>       0.36842105       0.18750000       0.15384615 </v>
   <v>       0.42105263       0.18750000       0.15384615 </v>
   <v>       0.47368421       0.18750000       0.15384615 </v>
   <v>      -0.47368421       0.18750000       0.15384615 </v>
   <v>      -0.42105263       0.18750000       0.15384615 </v>
   <v>      -0.36842105       0.18750000       0.15384615 </v>
   <v>      -0.31578947       0.18750000       0.15384615 </v>
   <v>      -0.26315789       0.18750000       0.15384615 </v>
   <v>      -0.21052632       0.18750000       0.15384615 </v>
   <v>      -0.15789474       0.18750000       0.15384615 </v>
   <v>      -0.10526316       0.18750000       0.15384615 </v>
   <v>      -0.05263158       0.18750000       0.15384615 </v>
   <v>       0.00000000       0.25000000       0.15384615 </v>
   <v>       0.05263158       0.25000000       0.15384615 </v>
   <v>       0.10526316       0.25000000       0.15384615 </v>
   <v>       0.15789474       0.25000000       0.15384615 </v>
   <v>       0.21052632       0.25000000       0.15384615 </v>
   <v>       0.26315789       0.25000000       0.15384615 </v>
   <v>       0.31578947       0.25000000       0.15384615 </v>
   <v>       0.36842105       0.25000000       0.15384615 </v>
   <v>       0.42105263       0.25000000       0.15384615 </v>
   <v>       0.47368421       0.25000000       0.15384615 </v>
   <v>      -0.47368421       0.25000000       0.15384615 </v>
   <v>      -0.42105263       0.25000000       0.15384615 </v>
   <v>      -0.36842105       0.25000000       0.15384615 </v>
   <v>      -0.31578947       0.25000000       0.15384615 </v>
   <v>      -0.26315789       0.25000000       0.15384615 </v>
   <v>      -0.21052632       0.25000000       0.15384615 </v>
   <v>      -0.15789474       0.25000000       0.15384615 </v>
   <v>      -0.10526316       0.25000000       0.15384615 </v>
   <v>      -0.05263158       0.25000000       0.15384615 </v>
   <v>       0.00000000       0.31250000       0.15384615 </v>
   <v>       0.05263158       0.31250000       0.15384615 </v>
   <v>       0.10526316       0.31250000       0.15384615 </v>
   <v>       0.15789474       0.31250000       0.15384615 </v>
   <v>       0.21052632       0.31250000       0.15384615 </v>
   <v>       0.26315789       0.31250000       0.15384615 </v>
   <v>       0.31578947       0.31250000       0.15384615 </v>
   <v>       0.36842105       0.31250000       0.15384615 </v>
   <v>       0.42105263       0.31250000       0.15384615 </v>
   <v>       0.47368421       0.31250000       0.15384615 </v>
   <v>      -0.47368421       0.31250000       0.15384615 </v>
   <v>      -0.42105263       0.31250000       0.15384615 </v>
   <v>      -0.36842105       0.31250000       0.15384615 </v>
   <v>      -0.31578947       0.31250000       0.15384615 </v>
   <v>      -0.26315789       0.31250000       0.15384615 </v>
   <v>      -0.21052632       0.31250000       0.15384615 </v>
   <v>      -0.15789474       0.31250000       0.15384615 </v>
   <v>      -0.10526316       0.31250000       0.15384615 </v>
   <v>      -0.05263158       0.31250000       0.15384615 </v>
   <v>       0.00000000       0.37500000       0.15384615 </v>
   <v>       0.05263158       0.37500000       0.15384615 </v>
   <v>       0.10526316       0.37500000       0.15384615 </v>
   <v>       0.15789474       0.37500000       0.15384615 </v>
   <v>       0.21052632       0.37500000       0.15384615 </v>
   <v>       0.26315789       0.37500000       0.15384615 </v>
   <v>       0.31578947       0.37500000       0.15384615 </v>
   <v>       0.36842105       0.37500000       0.15384615 </v>
   <v>       0.42105263       0.37500000       0.15384615 </v>
   <v>       0.47368421       0.37500000       0.15384615 </v>
   <v>      -0.47368421       0.37500000       0.15384615 </v>
   <v>      -0.42105263       0.37500000       0.15384615 </v>
   <v>      -0.36842105       0.37500000       0.15384615 </v>
   <v>      -0.31578947       0.37500000       0.15384615 </v>
   <v>      -0.26315789       0.37500000       0.15384615 </v>
   <v>      -0.21052632       0.37500000       0.15384615 </v>
   <v>      -0.15789474       0.37500000       0.15384615 </v>
   <v>      -0.10526316       0.37500000       0.15384615 </v>
   <v>      -0.05263158       0.37500000       0.15384615 </v>
   <v>       0.00000000       0.43750000       0.15384615 </v>
   <v>       0.05263158       0.43750000       0.15384615 </v>
   <v>       0.10526316       0.43750000       0.15384615 </v>
   <v>       0.15789474       0.43750000       0.15384615 </v>
   <v>       0.21052632       0.43750000       0.15384615 </v>
   <v>       0.26315789       0.43750000       0.15384615 </v>
   <v>       0.31578947       0.43750000       0.15384615 </v>
   <v>       0.36842105       0.43750000       0.15384615 </v>
   <v>       0.42105263       0.43750000       0.15384615 </v>
   <v>       0.47368421       0.43750000       0.15384615 </v>
   <v>      -0.47368421       0.43750000       0.15384615 </v>
   <v>      -0.42105263       0.43750000       0.15384615 </v>
   <v>      -0.36842105       0.43750000       0.15384615 </v>
   <v>      -0.31578947       0.43750000       0.15384615 </v>
   <v>      -0.26315789       0.43750000       0.15384615 </v>
   <v>      -0.21052632       0.43750000       0.15384615 </v>
   <v>      -0.15789474       0.43750000       0.15384615 </v>
   <v>      -0.10526316       0.43750000       0.15384615 </v>
   <v>      -0.05263158       0.43750000       0.15384615 </v>
   <v>       0.00000000       0.50000000       0.15384615 </v>
   <v>       0.05263158       0.50000000       0.15384615 </v>
   <v>       0.10526316       0.50000000       0.15384615 </v>
   <v>       0.15789474       0.50000000       0.15384615 </v>
   <v>       0.21052632       0.50000000       0.15384615 </v>
   <v>       0.26315789       0.50000000       0.15384615 </v>
   <v>       0.31578947       0.50000000       0.15384615 </v>
   <v>       0.36842105       0.50000000       0.15384615 </v>
   <v>       0.42105263       0.50000000       0.15384615 </v>
   <v>       0.47368421       0.50000000       0.15384615 </v>
   <v>      -0.47368421       0.50000000       0.15384615 </v>
   <v>      -0.42105263       0.50000000       0.15384615 </v>
   <v>      -0.36842105       0.50000000       0.15384615 </v>
   <v>      -0.31578947       0.50000000       0.15384615 </v>
   <v>      -0.26315789       0.50000000       0.15384615 </v>
   <v>      -0.21052632       0.50000000       0.15384615 </v>
   <v>      -0.15789474       0.50000000       0.15384615 </v>
   <v>      -0.10526316       0.50000000       0.15384615 </v>
   <v>      -0.05263158       0.50000000       0.15384615 </v>
   <v>       0.00000000      -0.43750000       0.15384615 </v>
   <v>       0.05263158      -0.43750000       0.15384615 </v>
   <v>       0.10526316      -0.43750000       0.15384615 </v>
   <v>       0.15789474      -0.43750000       0.15384615 </v>
   <v>       0.21052632      -0.43750000       0.15384615 </v>
   <v>       0.26315789      -0.43750000       0.15384615 </v>
   <v>       0.31578947      -0.43750000       0.15384615 </v>
   <v>       0.36842105      -0.43750000       0.15384615 </v>
   <v>       0.42105263      -0.43750000       0.15384615 </v>
   <v>       0.47368421      -0.43750000       0.15384615 </v>
   <v>      -0.47368421      -0.43750000       0.15384615 </v>
   <v>      -0.42105263      -0.43750000       0.15384615 </v>
   <v>      -0.36842105      -0.43750000       0.15384615 </v>
   <v>      -0.31578947      -0.43750000       0.15384615 </v>
   <v>      -0.26315789      -0.43750000       0.15384615 </v>
   <v>      -0.21052632      -0.43750000       0.15384615 </v>
   <v>      -0.15789474      -0.43750000       0.15384615 </v>
   <v>      -0.10526316      -0.43750000       0.15384615 </v>
   <v>      -0.05263158      -0.43750000       0.15384615 </v>
   <v>       0.00000000      -0.37500000       0.15384615 </v>
   <v>       0.05263158      -0.37500000       0.15384615 </v>
   <v>       0.10526316      -0.37500000       0.15384615 </v>
   <v>       0.15789474      -0.37500000       0.15384615 </v>
   <v>       0.21052632      -0.37500000       0.15384615 </v>
   <v>       0.26315789      -0.37500000       0.15384615 </v>
   <v>       0.31578947      -0.37500000       0.15384615 </v>
   <v>       0.36842105      -0.37500000       0.15384615 </v>
   <v>       0.42105263      -0.37500000       0.15384615 </v>
   <v>       0.47368421      -0.37500000       0.15384615 </v>
   <v>      -0.47368421      -0.37500000       0.15384615 </v>
   <v>      -0.42105263      -0.37500000       0.15384615 </v>
   <v>      -0.36842105      -0.37500000       0.15384615 </v>
   <v>      -0.31578947      -0.37500000       0.15384615 </v>
   <v>      -0.26315789      -0.37500000       0.15384615 </v>
   <v>      -0.21052632      -0.37500000       0.15384615 </v>
   <v>      -0.15789474      -0.37500000       0.15384615 </v>
   <v>      -0.10526316      -0.37500000       0.15384615 </v>
   <v>      -0.05263158      -0.37500000       0.15384615 </v>
   <v>       0.00000000      -0.31250000       0.15384615 </v>
   <v>       0.05263158      -0.31250000       0.15384615 </v>
   <v>       0.10526316      -0.31250000       0.15384615 </v>
   <v>       0.15789474      -0.31250000       0.15384615 </v>
   <v>       0.21052632      -0.31250000       0.15384615 </v>
   <v>       0.26315789      -0.31250000       0.15384615 </v>
   <v>       0.31578947      -0.31250000       0.15384615 </v>
   <v>       0.36842105      -0.31250000       0.15384615 </v>
   <v>       0.42105263      -0.31250000       0.15384615 </v>
   <v>       0.47368421      -0.31250000       0.15384615 </v>
   <v>      -0.47368421      -0.31250000       0.15384615 </v>
   <v>      -0.42105263      -0.31250000       0.15384615 </v>
   <v>      -0.36842105      -0.31250000       0.15384615 </v>
   <v>      -0.31578947      -0.31250000       0.15384615 </v>
   <v>      -0.26315789      -0.31250000       0.15384615 </v>
   <v>      -0.21052632      -0.31250000       0.15384615 </v>
   <v>      -0.15789474      -0.31250000       0.15384615 </v>
   <v>      -0.10526316      -0.31250000       0.15384615 </v>
   <v>      -0.05263158      -0.31250000       0.15384615 </v>
   <v>       0.00000000      -0.25000000       0.15384615 </v>
   <v>       0.05263158      -0.25000000       0.15384615 </v>
   <v>       0.10526316      -0.25000000       0.15384615 </v>
   <v>       0.15789474      -0.25000000       0.15384615 </v>
   <v>       0.21052632      -0.25000000       0.15384615 </v>
   <v>       0.26315789      -0.25000000       0.15384615 </v>
   <v>       0.31578947      -0.25000000       0.15384615 </v>
   <v>       0.36842105      -0.25000000       0.15384615 </v>
   <v>       0.42105263      -0.25000000       0.15384615 </v>
   <v>       0.47368421      -0.25000000       0.15384615 </v>
   <v>      -0.47368421      -0.25000000       0.15384615 </v>
   <v>      -0.42105263      -0.25000000       0.15384615 </v>
   <v>      -0.36842105      -0.25000000       0.15384615 </v>
   <v>      -0.31578947      -0.25000000       0.15384615 </v>
   <v>      -0.26315789      -0.25000000       0.15384615 </v>
   <v>      -0.21052632      -0.25000000       0.15384615 </v>
   <v>      -0.15789474      -0.25000000       0.15384615 </v>
   <v>      -0.10526316      -0.25000000       0.15384615 </v>
   <v>      -0.05263158      -0.25000000       0.15384615 </v>
   <v>       0.00000000      -0.18750000       0.15384615 </v>
   <v>       0.05263158      -0.18750000       0.15384615 </v>
   <v>       0.10526316      -0.18750000       0.15384615 </v>
   <v>       0.15789474      -0.18750000       0.15384615 </v>
   <v>       0.21052632      -0.18750000       0.15384615 </v>
   <v>       0.26315789      -0.18750000       0.15384615 </v>
   <v>       0.31578947      -0.18750000       0.15384615 </v>
   <v>       0.36842105      -0.18750000       0.15384615 </v>
   <v>       0.42105263      -0.18750000       0.15384615 </v>
   <v>       0.47368421      -0.18750000       0.15384615 </v>
   <v>      -0.47368421      -0.18750000       0.15384615 </v>
   <v>      -0.42105263      -0.18750000       0.15384615 </v>
   <v>      -0.36842105      -0.18750000       0.15384615 </v>
   <v>      -0.31578947      -0.18750000       0.15384615 </v>
   <v>      -0.26315789      -0.18750000       0.15384615 </v>
   <v>      -0.21052632      -0.18750000       0.15384615 </v>
   <v>      -0.15789474      -0.18750000       0.15384615 </v>
   <v>      -0.10526316      -0.18750000       0.15384615 </v>
   <v>      -0.05263158      -0.18750000       0.15384615 </v>
   <v>       0.00000000      -0.12500000       0.15384615 </v>
   <v>       0.05263158      -0.12500000       0.15384615 </v>
   <v>       0.10526316      -0.12500000       0.15384615 </v>
   <v>       0.15789474      -0.12500000       0.15384615 </v>
   <v>       0.21052632      -0.12500000       0.15384615 </v>
   <v>       0.26315789      -0.12500000       0.15384615 </v>
   <v>       0.31578947      -0.12500000       0.15384615 </v>
   <v>       0.36842105      -0.12500000       0.15384615 </v>
   <v>       0.42105263      -0.12500000       0.15384615 </v>
   <v>       0.47368421      -0.12500000       0.15384615 </v>
   <v>      -0.47368421      -0.12500000       0.15384615 </v>
   <v>      -0.42105263      -0.12500000       0.15384615 </v>
   <v>      -0.36842105      -0.12500000       0.15384615 </v>
   <v>      -0.31578947      -0.12500000       0.15384615 </v>
   <v>      -0.26315789      -0.12500000       0.15384615 </v>
   <v>      -0.21052632      -0.12500000       0.15384615 </v>
   <v>      -0.15789474      -0.12500000       0.15384615 </v>
   <v>      -0.10526316      -0.12500000       0.15384615 </v>
   <v>      -0.05263158      -0.12500000       0.15384615 </v>
   <v>       0.00000000      -0.06250000       0.15384615 </v>
   <v>       0.05263158      -0.06250000       0.15384615 </v>
   <v>       0.10526316      -0.06250000       0.15384615 </v>
   <v>       0.15789474      -0.06250000       0.15384615 </v>
   <v>       0.21052632      -0.06250000       0.15384615 </v>
   <v>       0.26315789      -0.06250000       0.15384615 </v>
   <v>       0.31578947      -0.06250000       0.15384615 </v>
   <v>       0.36842105      -0.06250000       0.15384615 </v>
   <v>       0.42105263      -0.06250000       0.15384615 </v>
   <v>       0.47368421      -0.06250000       0.15384615 </v>
   <v>      -0.47368421      -0.06250000       0.15384615 </v>
   <v>      -0.42105263      -0.06250000       0.15384615 </v>
   <v>      -0.36842105      -0.06250000       0.15384615 </v>
   <v>      -0.31578947      -0.06250000       0.15384615 </v>
   <v>      -0.26315789      -0.06250000       0.15384615 </v>
   <v>      -0.21052632      -0.06250000       0.15384615 </v>
   <v>      -0.15789474      -0.06250000       0.15384615 </v>
   <v>      -0.10526316      -0.06250000       0.15384615 </v>
   <v>      -0.05263158      -0.06250000       0.15384615 </v>
   <v>       0.00000000       0.00000000       0.23076923 </v>
   <v>       0.05263158       0.00000000       0.23076923 </v>
   <v>       0.10526316       0.00000000       0.23076923 </v>
   <v>       0.15789474       0.00000000       0.23076923 </v>
   <v>       0.21052632       0.00000000       0.23076923 </v>
   <v>       0.26315789       0.00000000       0.23076923 </v>
   <v>       0.31578947       0.00000000       0.23076923 </v>
   <v>       0.36842105       0.00000000       0.23076923 </v>
   <v>       0.42105263       0.00000000       0.23076923 </v>
   <v>       0.47368421       0.00000000       0.23076923 </v>
   <v>      -0.47368421       0.00000000       0.23076923 </v>
   <v>      -0.42105263       0.00000000       0.23076923 </v>
   <v>      -0.36842105       0.00000000       0.23076923 </v>
   <v>      -0.31578947       0.00000000       0.23076923 </v>
   <v>      -0.26315789       0.00000000       0.23076923 </v>
   <v>      -0.21052632       0.00000000       0.23076923 </v>
   <v>      -0.15789474       0.00000000       0.23076923 </v>
   <v>      -0.10526316       0.00000000       0.23076923 </v>
   <v>      -0.05263158       0.00000000       0.23076923 </v>
   <v>       0.00000000       0.06250000       0.23076923 </v>
   <v>       0.05263158       0.06250000       0.23076923 </v>
   <v>       0.10526316       0.06250000       0.23076923 </v>
   <v>       0.15789474       0.06250000       0.23076923 </v>
   <v>       0.21052632       0.06250000       0.23076923 </v>
   <v>       0.26315789       0.06250000       0.23076923 </v>
   <v>       0.31578947       0.06250000       0.23076923 </v>
   <v>       0.36842105       0.06250000       0.23076923 </v>
   <v>       0.42105263       0.06250000       0.23076923 </v>
   <v>       0.47368421       0.06250000       0.23076923 </v>
   <v>      -0.47368421       0.06250000       0.23076923 </v>
   <v>      -0.42105263       0.06250000       0.23076923 </v>
   <v>      -0.36842105       0.06250000       0.23076923 </v>
   <v>      -0.31578947       0.06250000       0.23076923 </v>
   <v>      -0.26315789       0.06250000       0.23076923 </v>
   <v>      -0.21052632       0.06250000       0.23076923 </v>
   <v>      -0.15789474       0.06250000       0.23076923 </v>
   <v>      -0.10526316       0.06250000       0.23076923 </v>
   <v>      -0.05263158       0.06250000       0.23076923 </v>
   <v>       0.00000000       0.12500000       0.23076923 </v>
   <v>       0.05263158       0.12500000       0.23076923 </v>
   <v>       0.10526316       0.12500000       0.23076923 </v>
   <v>       0.15789474       0.12500000       0.23076923 </v>
   <v>       0.21052632       0.12500000       0.23076923 </v>
   <v>       0.26315789       0.12500000       0.23076923 </v>
   <v>       0.31578947       0.12500000       0.23076923 </v>
   <v>       0.36842105       0.12500000       0.23076923 </v>
   <v>       0.42105263       0.12500000       0.23076923 </v>
   <v>       0.47368421       0.12500000       0.23076923 </v>
   <v>      -0.47368421       0.12500000       0.23076923 </v>
   <v>      -0.42105263       0.12500000       0.23076923 </v>
   <v>      -0.36842105       0.12500000       0.23076923 </v>
   <v>      -0.31578947       0.12500000       0.23076923 </v>
   <v>      -0.26315789       0.12500000       0.23076923 </v>
   <v>      -0.21052632       0.12500000       0.23076923 </v>
   <v>      -0.15789474       0.12500000       0.23076923 </v>
   <v>      -0.10526316       0.12500000       0.23076923 </v>
   <v>      -0.05263158       0.12500000       0.23076923 </v>
   <v>       0.00000000       0.18750000       0.23076923 </v>
   <v>       0.05263158       0.18750000       0.23076923 </v>
   <v>       0.10526316       0.18750000       0.23076923 </v>
   <v>       0.15789474       0.18750000       0.23076923 </v>
   <v>       0.21052632       0.18750000       0.23076923 </v>
   <v>       0.26315789       0.18750000       0.23076923 </v>
   <v>       0.31578947       0.18750000       0.23076923 </v>
   <v>       0.36842105       0.18750000       0.23076923 </v>
   <v>       0.42105263       0.18750000       0.23076923 </v>
   <v>       0.47368421       0.18750000       0.23076923 </v>
   <v>      -0.47368421       0.18750000       0.23076923 </v>
   <v>      -0.42105263       0.18750000       0.23076923 </v>
   <v>      -0.36842105       0.18750000       0.23076923 </v>
   <v>      -0.31578947       0.18750000       0.23076923 </v>
   <v>      -0.26315789       0.18750000       0.23076923 </v>
   <v>      -0.21052632       0.18750000       0.23076923 </v>
   <v>      -0.15789474       0.18750000       0.23076923 </v>
   <v>      -0.10526316       0.18750000       0.23076923 </v>
   <v>      -0.05263158       0.18750000       0.23076923 </v>
   <v>       0.00000000       0.25000000       0.23076923 </v>
   <v>       0.05263158       0.25000000       0.23076923 </v>
   <v>       0.10526316       0.25000000       0.23076923 </v>
   <v>       0.15789474       0.25000000       0.23076923 </v>
   <v>       0.21052632       0.25000000       0.23076923 </v>
   <v>       0.26315789       0.25000000       0.23076923 </v>
   <v>       0.31578947       0.25000000       0.23076923 </v>
   <v>       0.36842105       0.25000000       0.23076923 </v>
   <v>       0.42105263       0.25000000       0.23076923 </v>
   <v>       0.47368421       0.25000000       0.23076923 </v>
   <v>      -0.47368421       0.25000000       0.23076923 </v>
   <v>      -0.42105263       0.25000000       0.23076923 </v>
   <v>      -0.36842105       0.25000000       0.23076923 </v>
   <v>      -0.31578947       0.25000000       0.23076923 </v>
   <v>      -0.26315789       0.25000000       0.23076923 </v>
   <v>      -0.21052632       0.25000000       0.23076923 </v>
   <v>      -0.15789474       0.25000000       0.23076923 </v>
   <v>      -0.10526316       0.25000000       0.23076923 </v>
   <v>      -0.05263158       0.25000000       0.23076923 </v>
   <v>       0.00000000       0.31250000       0.23076923 </v>
   <v>       0.05263158       0.31250000       0.23076923 </v>
   <v>       0.10526316       0.31250000       0.23076923 </v>
   <v>       0.15789474       0.31250000       0.23076923 </v>
   <v>       0.21052632       0.31250000       0.23076923 </v>
   <v>       0.26315789       0.31250000       0.23076923 </v>
   <v>       0.31578947       0.31250000       0.23076923 </v>
   <v>       0.36842105       0.31250000       0.23076923 </v>
   <v>       0.42105263       0.31250000       0.23076923 </v>
   <v>       0.47368421       0.31250000       0.23076923 </v>
   <v>      -0.47368421       0.31250000       0.23076923 </v>
   <v>      -0.42105263       0.31250000       0.23076923 </v>
   <v>      -0.36842105       0.31250000       0.23076923 </v>
   <v>      -0.31578947       0.31250000       0.23076923 </v>
   <v>      -0.26315789       0.31250000       0.23076923 </v>
   <v>      -0.21052632       0.31250000       0.23076923 </v>
   <v>      -0.15789474       0.31250000       0.23076923 </v>
   <v>      -0.10526316       0.31250000       0.23076923 </v>
   <v>      -0.05263158       0.31250000       0.23076923 </v>
   <v>       0.00000000       0.37500000       0.23076923 </v>
   <v>       0.05263158       0.37500000       0.23076923 </v>
   <v>       0.10526316       0.37500000       0.23076923 </v>
   <v>       0.15789474       0.37500000       0.23076923 </v>
   <v>       0.21052632       0.37500000       0.23076923 </v>
   <v>       0.26315789       0.37500000       0.23076923 </v>
   <v>       0.31578947       0.37500000       0.23076923 </v>
   <v>       0.36842105       0.37500000       0.23076923 </v>
   <v>       0.42105263       0.37500000       0.23076923 </v>
   <v>       0.47368421       0.37500000       0.23076923 </v>
   <v>      -0.47368421       0.37500000       0.23076923 </v>
   <v>      -0.42105263       0.37500000       0.23076923 </v>
   <v>      -0.36842105       0.37500000       0.23076923 </v>
   <v>      -0.31578947       0.37500000       0.23076923 </v>
   <v>      -0.26315789       0.37500000       0.23076923 </v>
   <v>      -0.21052632       0.37500000       0.23076923 </v>
   <v>      -0.15789474       0.37500000       0.23076923 </v>
   <v>      -0.10526316       0.37500000       0.23076923 </v>
   <v>      -0.05263158       0.37500000       0.23076923 </v>
   <v>       0.00000000       0.43750000       0.23076923 </v>
   <v>       0.05263158       0.43750000       0.23076923 </v>
   <v>       0.10526316       0.43750000       0.23076923 </v>
   <v>       0.15789474       0.43750000       0.23076923 </v>
   <v>       0.21052632       0.43750000       0.23076923 </v>
   <v>       0.26315789       0.43750000       0.23076923 </v>
   <v>       0.31578947       0.43750000       0.23076923 </v>
   <v>       0.36842105       0.43750000       0.23076923 </v>
   <v>       0.42105263       0.43750000       0.23076923 </v>
   <v>       0.47368421       0.43750000       0.23076923 </v>
   <v>      -0.47368421       0.43750000       0.23076923 </v>
   <v>      -0.42105263       0.43750000       0.23076923 </v>
   <v>      -0.36842105       0.43750000       0.23076923 </v>
   <v>      -0.31578947       0.43750000       0.23076923 </v>
   <v>      -0.26315789       0.43750000       0.23076923 </v>
   <v>      -0.21052632       0.43750000       0.23076923 </v>
   <v>      -0.15789474       0.43750000       0.23076923 </v>
   <v>      -0.10526316       0.43750000       0.23076923 </v>
   <v>      -0.05263158       0.43750000       0.23076923 </v>
   <v>       0.00000000       0.50000000       0.23076923 </v>
   <v>       0.05263158       0.50000000       0.23076923 </v>
   <v>       0.10526316       0.50000000       0.23076923 </v>
   <v>       0.15789474       0.50000000       0.23076923 </v>
   <v>       0.21052632       0.50000000       0.23076923 </v>
   <v>       0.26315789       0.50000000       0.23076923 </v>
   <v>       0.31578947       0.50000000       0.23076923 </v>
   <v>       0.36842105       0.50000000       0.23076923 </v>
   <v>       0.42105263       0.50000000       0.23076923 </v>
   <v>       0.47368421       0.50000000       0.23076923 </v>
   <v>      -0.47368421       0.50000000       0.23076923 </v>
   <v>      -0.42105263       0.50000000       0.23076923 </v>
   <v>      -0.36842105       0.50000000       0.23076923 </v>
   <v>      -0.31578947       0.50000000       0.23076923 </v>
   <v>      -0.26315789       0.50000000       0.23076923 </v>
   <v>      -0.21052632       0.50000000       0.23076923 </v>
   <v>      -0.15789474       0.50000000       0.23076923 </v>
   <v>      -0.10526316       0.50000000       0.23076923 </v>
   <v>      -0.05263158       0.50000000       0.23076923 </v>
   <v>       0.00000000      -0.43750000       0.23076923 </v>
   <v>       0.05263158      -0.43750000       0.23076923 </v>
   <v>       0.10526316      -0.43750000       0.23076923 </v>
   <v>       0.15789474      -0.43750000       0.23076923 </v>
   <v>       0.21052632      -0.43750000       0.23076923 </v>
   <v>       0.26315789      -0.43750000       0.23076923 </v>
   <v>       0.31578947      -0.43750000       0.23076923 </v>
   <v>       0.36842105      -0.43750000       0.23076923 </v>
   <v>       0.42105263      -0.43750000       0.23076923 </v>
   <v>       0.47368421      -0.43750000       0.23076923 </v>
   <v>      -0.47368421      -0.43750000       0.23076923 </v>
   <v>      -0.42105263      -0.43750000       0.23076923 </v>
   <v>      -0.36842105      -0.43750000       0.23076923 </v>
   <v>      -0.31578947      -0.43750000       0.23076923 </v>
   <v>      -0.26315789      -0.43750000       0.23076923 </v>
   <v>      -0.21052632      -0.43750000       0.23076923 </v>
   <v>      -0.15789474      -0.43750000       0.23076923 </v>
   <v>      -0.10526316      -0.43750000       0.23076923 </v>
   <v>      -0.05263158      -0.43750000       0.23076923 </v>
   <v>       0.00000000      -0.37500000       0.23076923 </v>
   <v>       0.05263158      -0.37500000       0.23076923 </v>
   <v>       0.10526316      -0.37500000       0.23076923 </v>
   <v>       0.15789474      -0.37500000       0.23076923 </v>
   <v>       0.21052632      -0.37500000       0.23076923 </v>
   <v>       0.26315789      -0.37500000       0.23076923 </v>
   <v>       0.31578947      -0.37500000       0.23076923 </v>
   <v>       0.36842105      -0.37500000       0.23076923 </v>
   <v>       0.42105263      -0.37500000       0.23076923 </v>
   <v>       0.47368421      -0.37500000       0.23076923 </v>
   <v>      -0.47368421      -0.37500000       0.23076923 </v>
   <v>      -0.42105263      -0.37500000       0.23076923 </v>
   <v>      -0.36842105      -0.37500000       0.23076923 </v>
   <v>      -0.31578947      -0.37500000       0.23076923 </v>
   <v>      -0.26315789      -0.37500000       0.23076923 </v>
   <v>      -0.21052632      -0.37500000       0.23076923 </v>
   <v>      -0.15789474      -0.37500000       0.23076923 </v>
   <v>      -0.10526316      -0.37500000       0.23076923 </v>
   <v>      -0.05263158      -0.37500000       0.23076923 </v>
   <v>       0.00000000      -0.31250000       0.23076923 </v>
   <v>       0.05263158      -0.31250000       0.23076923 </v>
   <v>       0.10526316      -0.31250000       0.23076923 </v>
   <v>       0.15789474      -0.31250000       0.23076923 </v>
   <v>       0.21052632      -0.31250000       0.23076923 </v>
   <v>       0.26315789      -0.31250000       0.23076923 </v>
   <v>       0.31578947      -0.31250000       0.23076923 </v>
   <v>       0.36842105      -0.31250000       0.23076923 </v>
   <v>       0.42105263      -0.31250000       0.23076923 </v>
   <v>       0.47368421      -0.31250000       0.23076923 </v>
   <v>      -0.47368421      -0.31250000       0.23076923 </v>
   <v>      -0.42105263      -0.31250000       0.23076923 </v>
   <v>      -0.36842105      -0.31250000       0.23076923 </v>
   <v>      -0.31578947      -0.31250000       0.23076923 </v>
   <v>      -0.26315789      -0.31250000       0.23076923 </v>
   <v>      -0.21052632      -0.31250000       0.23076923 </v>
   <v>      -0.15789474      -0.31250000       0.23076923 </v>
   <v>      -0.10526316      -0.31250000       0.23076923 </v>
   <v>      -0.05263158      -0.31250000       0.23076923 </v>
   <v>       0.00000000      -0.25000000       0.23076923 </v>
   <v>       0.05263158      -0.25000000       0.23076923 </v>
   <v>       0.10526316      -0.25000000       0.23076923 </v>
   <v>       0.15789474      -0.25000000       0.23076923 </v>
   <v>       0.21052632      -0.25000000       0.23076923 </v>
   <v>       0.26315789      -0.25000000       0.23076923 </v>
   <v>       0.31578947      -0.25000000       0.23076923 </v>
   <v>       0.36842105      -0.25000000       0.23076923 </v>
   <v>       0.42105263      -0.25000000       0.23076923 </v>
   <v>       0.47368421      -0.25000000       0.23076923 </v>
   <v>      -0.47368421      -0.25000000       0.23076923 </v>
   <v>      -0.42105263      -0.25000000       0.23076923 </v>
   <v>      -0.36842105      -0.25000000       0.23076923 </v>
   <v>      -0.31578947      -0.25000000       0.23076923 </v>
   <v>      -0.26315789      -0.25000000       0.23076923 </v>
   <v>      -0.21052632      -0.25000000       0.23076923 </v>
   <v>      -0.15789474      -0.25000000       0.23076923 </v>
   <v>      -0.10526316      -0.25000000       0.23076923 </v>
   <v>      -0.05263158      -0.25000000       0.23076923 </v>
   <v>       0.00000000      -0.18750000       0.23076923 </v>
   <v>       0.05263158      -0.18750000       0.23076923 </v>
   <v>       0.10526316      -0.18750000       0.23076923 </v>
   <v>       0.15789474      -0.18750000       0.23076923 </v>
   <v>       0.21052632      -0.18750000       0.23076923 </v>
   <v>       0.26315789      -0.18750000       0.23076923 </v>
   <v>       0.31578947      -0.18750000       0.23076923 </v>
   <v>       0.36842105      -0.18750000       0.23076923 </v>
   <v>       0.42105263      -0.18750000       0.23076923 </v>
   <v>       0.47368421      -0.18750000       0.23076923 </v>
   <v>      -0.47368421      -0.18750000       0.23076923 </v>
   <v>      -0.42105263      -0.18750000       0.23076923 </v>
   <v>      -0.36842105      -0.18750000       0.23076923 </v>
   <v>      -0.31578947      -0.18750000       0.23076923 </v>
   <v>      -0.26315789      -0.18750000       0.23076923 </v>
   <v>      -0.21052632      -0.18750000       0.23076923 </v>
   <v>      -0.15789474      -0.18750000       0.23076923 </v>
   <v>      -0.10526316      -0.18750000       0.23076923 </v>
   <v>      -0.05263158      -0.18750000       0.23076923 </v>
   <v>       0.00000000      -0.12500000       0.23076923 </v>
   <v>       0.05263158      -0.12500000       0.23076923 </v>
   <v>       0.10526316      -0.12500000       0.23076923 </v>
   <v>       0.15789474      -0.12500000       0.23076923 </v>
   <v>       0.21052632      -0.12500000       0.23076923 </v>
   <v>       0.26315789      -0.12500000       0.23076923 </v>
   <v>       0.31578947      -0.12500000       0.23076923 </v>
   <v>       0.36842105      -0.12500000       0.23076923 </v>
   <v>       0.42105263      -0.12500000       0.23076923 </v>
   <v>       0.47368421      -0.12500000       0.23076923 </v>
   <v>      -0.47368421      -0.12500000       0.23076923 </v>
   <v>      -0.42105263      -0.12500000       0.23076923 </v>
   <v>      -0.36842105      -0.12500000       0.23076923 </v>
   <v>      -0.31578947      -0.12500000       0.23076923 </v>
   <v>      -0.26315789      -0.12500000       0.23076923 </v>
   <v>      -0.21052632      -0.12500000       0.23076923 </v>
   <v>      -0.15789474      -0.12500000       0.23076923 </v>
   <v>      -0.10526316      -0.12500000       0.23076923 </v>
   <v>      -0.05263158      -0.12500000       0.23076923 </v>
   <v>       0.00000000      -0.06250000       0.23076923 </v>
   <v>       0.05263158      -0.06250000       0.23076923 </v>
   <v>       0.10526316      -0.06250000       0.23076923 </v>
   <v>       0.15789474      -0.06250000       0.23076923 </v>
   <v>       0.21052632      -0.06250000       0.23076923 </v>
   <v>       0.26315789      -0.06250000       0.23076923 </v>
   <v>       0.31578947      -0.06250000       0.23076923 </v>
   <v>       0.36842105      -0.06250000       0.23076923 </v>
   <v>       0.42105263      -0.06250000       0.23076923 </v>
   <v>       0.47368421      -0.06250000       0.23076923 </v>
   <v>      -0.47368421      -0.06250000       0.23076923 </v>
   <v>      -0.42105263      -0.06250000       0.23076923 </v>
   <v>      -0.36842105      -0.06250000       0.23076923 </v>
   <v>      -0.31578947      -0.06250000       0.23076923 </v>
   <v>      -0.26315789      -0.06250000       0.23076923 </v>
   <v>      -0.21052632      -0.06250000       0.23076923 </v>
   <v>      -0.15789474      -0.06250000       0.23076923 </v>
   <v>      -0.10526316      -0.06250000       0.23076923 </v>
   <v>      -0.05263158      -0.06250000       0.23076923 </v>
   <v>       0.00000000       0.00000000       0.30769231 </v>
   <v>       0.05263158       0.00000000       0.30769231 </v>
   <v>       0.10526316       0.00000000       0.30769231 </v>
   <v>       0.15789474       0.00000000       0.30769231 </v>
   <v>       0.21052632       0.00000000       0.30769231 </v>
   <v>       0.26315789       0.00000000       0.30769231 </v>
   <v>       0.31578947       0.00000000       0.30769231 </v>
   <v>       0.36842105       0.00000000       0.30769231 </v>
   <v>       0.42105263       0.00000000       0.30769231 </v>
   <v>       0.47368421       0.00000000       0.30769231 </v>
   <v>      -0.47368421       0.00000000       0.30769231 </v>
   <v>      -0.42105263       0.00000000       0.30769231 </v>
   <v>      -0.36842105       0.00000000       0.30769231 </v>
   <v>      -0.31578947       0.00000000       0.30769231 </v>
   <v>      -0.26315789       0.00000000       0.30769231 </v>
   <v>      -0.21052632       0.00000000       0.30769231 </v>
   <v>      -0.15789474       0.00000000       0.30769231 </v>
   <v>      -0.10526316       0.00000000       0.30769231 </v>
   <v>      -0.05263158       0.00000000       0.30769231 </v>
   <v>       0.00000000       0.06250000       0.30769231 </v>
   <v>       0.05263158       0.06250000       0.30769231 </v>
   <v>       0.10526316       0.06250000       0.30769231 </v>
   <v>       0.15789474       0.06250000       0.30769231 </v>
   <v>       0.21052632       0.06250000       0.30769231 </v>
   <v>       0.26315789       0.06250000       0.30769231 </v>
   <v>       0.31578947       0.06250000       0.30769231 </v>
   <v>       0.36842105       0.06250000       0.30769231 </v>
   <v>       0.42105263       0.06250000       0.30769231 </v>
   <v>       0.47368421       0.06250000       0.30769231 </v>
   <v>      -0.47368421       0.06250000       0.30769231 </v>
   <v>      -0.42105263       0.06250000       0.30769231 </v>
   <v>      -0.36842105       0.06250000       0.30769231 </v>
   <v>      -0.31578947       0.06250000       0.30769231 </v>
   <v>      -0.26315789       0.06250000       0.30769231 </v>
   <v>      -0.21052632       0.06250000       0.30769231 </v>
   <v>      -0.15789474       0.06250000       0.30769231 </v>
   <v>      -0.10526316       0.06250000       0.30769231 </v>
   <v>      -0.05263158       0.06250000       0.30769231 </v>
   <v>       0.00000000       0.12500000       0.30769231 </v>
   <v>       0.05263158       0.12500000       0.30769231 </v>
   <v>       0.10526316       0.12500000       0.30769231 </v>
   <v>       0.15789474       0.12500000       0.30769231 </v>
   <v>       0.21052632       0.12500000       0.30769231 </v>
   <v>       0.26315789       0.12500000       0.30769231 </v>
   <v>       0.31578947       0.12500000       0.30769231 </v>
   <v>       0.36842105       0.12500000       0.30769231 </v>
   <v>       0.42105263       0.12500000       0.30769231 </v>
   <v>       0.47368421       0.12500000       0.30769231 </v>
   <v>      -0.47368421       0.12500000       0.30769231 </v>
   <v>      -0.42105263       0.12500000       0.30769231 </v>
   <v>      -0.36842105       0.12500000       0.30769231 </v>
   <v>      -0.31578947       0.12500000       0.30769231 </v>
   <v>      -0.26315789       0.12500000       0.30769231 </v>
   <v>      -0.21052632       0.12500000       0.30769231 </v>
   <v>      -0.15789474       0.12500000       0.30769231 </v>
   <v>      -0.10526316       0.12500000       0.30769231 </v>
   <v>      -0.05263158       0.12500000       0.30769231 </v>
   <v>       0.00000000       0.18750000       0.30769231 </v>
   <v>       0.05263158       0.18750000       0.30769231 </v>
   <v>       0.10526316       0.18750000       0.30769231 </v>
   <v>       0.15789474       0.18750000       0.30769231 </v>
   <v>       0.21052632       0.18750000       0.30769231 </v>
   <v>       0.26315789       0.18750000       0.30769231 </v>
   <v>       0.31578947       0.18750000       0.30769231 </v>
   <v>       0.36842105       0.18750000       0.30769231 </v>
   <v>       0.42105263       0.18750000       0.30769231 </v>
   <v>       0.47368421       0.18750000       0.30769231 </v>
   <v>      -0.47368421       0.18750000       0.30769231 </v>
   <v>      -0.42105263       0.18750000       0.30769231 </v>
   <v>      -0.36842105       0.18750000       0.30769231 </v>
   <v>      -0.31578947       0.18750000       0.30769231 </v>
   <v>      -0.26315789       0.18750000       0.30769231 </v>
   <v>      -0.21052632       0.18750000       0.30769231 </v>
   <v>      -0.15789474       0.18750000       0.30769231 </v>
   <v>      -0.10526316       0.18750000       0.30769231 </v>
   <v>      -0.05263158       0.18750000       0.30769231 </v>
   <v>       0.00000000       0.25000000       0.30769231 </v>
   <v>       0.05263158       0.25000000       0.30769231 </v>
   <v>       0.10526316       0.25000000       0.30769231 </v>
   <v>       0.15789474       0.25000000       0.30769231 </v>
   <v>       0.21052632       0.25000000       0.30769231 </v>
   <v>       0.26315789       0.25000000       0.30769231 </v>
   <v>       0.31578947       0.25000000       0.30769231 </v>
   <v>       0.36842105       0.25000000       0.30769231 </v>
   <v>       0.42105263       0.25000000       0.30769231 </v>
   <v>       0.47368421       0.25000000       0.30769231 </v>
   <v>      -0.47368421       0.25000000       0.30769231 </v>
   <v>      -0.42105263       0.25000000       0.30769231 </v>
   <v>      -0.36842105       0.25000000       0.30769231 </v>
   <v>      -0.31578947       0.25000000       0.30769231 </v>
   <v>      -0.26315789       0.25000000       0.30769231 </v>
   <v>      -0.21052632       0.25000000       0.30769231 </v>
   <v>      -0.15789474       0.25000000       0.30769231 </v>
   <v>      -0.10526316       0.25000000       0.30769231 </v>
   <v>      -0.05263158       0.25000000       0.30769231 </v>
   <v>       0.00000000       0.31250000       0.30769231 </v>
   <v>       0.05263158       0.31250000       0.30769231 </v>
   <v>       0.10526316       0.31250000       0.30769231 </v>
   <v>       0.15789474       0.31250000       0.30769231 </v>
   <v>       0.21052632       0.31250000       0.30769231 </v>
   <v>       0.26315789       0.31250000       0.30769231 </v>
   <v>       0.31578947       0.31250000       0.30769231 </v>
   <v>       0.36842105       0.31250000       0.30769231 </v>
   <v>       0.42105263       0.31250000       0.30769231 </v>
   <v>       0.47368421       0.31250000       0.30769231 </v>
   <v>      -0.47368421       0.31250000       0.30769231 </v>
   <v>      -0.42105263       0.31250000       0.30769231 </v>
   <v>      -0.36842105       0.31250000       0.30769231 </v>
   <v>      -0.31578947       0.31250000       0.30769231 </v>
   <v>      -0.26315789       0.31250000       0.30769231 </v>
   <v>      -0.21052632       0.31250000       0.30769231 </v>
   <v>      -0.15789474       0.31250000       0.30769231 </v>
   <v>      -0.10526316       0.31250000       0.30769231 </v>
   <v>      -0.05263158       0.31250000       0.30769231 </v>
   <v>       0.00000000       0.37500000       0.30769231 </v>
   <v>       0.05263158       0.37500000       0.30769231 </v>
   <v>       0.10526316       0.37500000       0.30769231 </v>
   <v>       0.15789474       0.37500000       0.30769231 </v>
   <v>       0.21052632       0.37500000       0.30769231 </v>
   <v>       0.26315789       0.37500000       0.30769231 </v>
   <v>       0.31578947       0.37500000       0.30769231 </v>
   <v>       0.36842105       0.37500000       0.30769231 </v>
   <v>       0.42105263       0.37500000       0.30769231 </v>
   <v>       0.47368421       0.37500000       0.30769231 </v>
   <v>      -0.47368421       0.37500000       0.30769231 </v>
   <v>      -0.42105263       0.37500000       0.30769231 </v>
   <v>      -0.36842105       0.37500000       0.30769231 </v>
   <v>      -0.31578947       0.37500000       0.30769231 </v>
   <v>      -0.26315789       0.37500000       0.30769231 </v>
   <v>      -0.21052632       0.37500000       0.30769231 </v>
   <v>      -0.15789474       0.37500000       0.30769231 </v>
   <v>      -0.10526316       0.37500000       0.30769231 </v>
   <v>      -0.05263158       0.37500000       0.30769231 </v>
   <v>       0.00000000       0.43750000       0.30769231 </v>
   <v>       0.05263158       0.43750000       0.30769231 </v>
   <v>       0.10526316       0.43750000       0.30769231 </v>
   <v>       0.15789474       0.43750000       0.30769231 </v>
   <v>       0.21052632       0.43750000       0.30769231 </v>
   <v>       0.26315789       0.43750000       0.30769231 </v>
   <v>       0.31578947       0.43750000       0.30769231 </v>
   <v>       0.36842105       0.43750000       0.30769231 </v>
   <v>       0.42105263       0.43750000       0.30769231 </v>
   <v>       0.47368421       0.43750000       0.30769231 </v>
   <v>      -0.47368421       0.43750000       0.30769231 </v>
   <v>      -0.42105263       0.43750000       0.30769231 </v>
   <v>      -0.36842105       0.43750000       0.30769231 </v>
   <v>      -0.31578947       0.43750000       0.30769231 </v>
   <v>      -0.26315789       0.43750000       0.30769231 </v>
   <v>      -0.21052632       0.43750000       0.30769231 </v>
   <v>      -0.15789474       0.43750000       0.30769231 </v>
   <v>      -0.10526316       0.43750000       0.30769231 </v>
   <v>      -0.05263158       0.43750000       0.30769231 </v>
   <v>       0.00000000       0.50000000       0.30769231 </v>
   <v>       0.05263158       0.50000000       0.30769231 </v>
   <v>       0.10526316       0.50000000       0.30769231 </v>
   <v>       0.15789474       0.50000000       0.30769231 </v>
   <v>       0.21052632       0.50000000       0.30769231 </v>
   <v>       0.26315789       0.50000000       0.30769231 </v>
   <v>       0.31578947       0.50000000       0.30769231 </v>
   <v>       0.36842105       0.50000000       0.30769231 </v>
   <v>       0.42105263       0.50000000       0.30769231 </v>
   <v>       0.47368421       0.50000000       0.30769231 </v>
   <v>      -0.47368421       0.50000000       0.30769231 </v>
   <v>      -0.42105263       0.50000000       0.30769231 </v>
   <v>      -0.36842105       0.50000000       0.30769231 </v>
   <v>      -0.31578947       0.50000000       0.30769231 </v>
   <v>      -0.26315789       0.50000000       0.30769231 </v>
   <v>      -0.21052632       0.50000000       0.30769231 </v>
   <v>      -0.15789474       0.50000000       0.30769231 </v>
   <v>      -0.10526316       0.50000000       0.30769231 </v>
   <v>      -0.05263158       0.50000000       0.30769231 </v>
   <v>       0.00000000      -0.43750000       0.30769231 </v>
   <v>       0.05263158      -0.43750000       0.30769231 </v>
   <v>       0.10526316      -0.43750000       0.30769231 </v>
   <v>       0.15789474      -0.43750000       0.30769231 </v>
   <v>       0.21052632      -0.43750000       0.30769231 </v>
   <v>       0.26315789      -0.43750000       0.30769231 </v>
[...]
       <r>    4.7271    1.0000 </r>
       <r>    4.8314    1.0000 </r>
       <r>    4.9151    1.0000 </r>
       <r>    4.9738    1.0000 </r>
       <r>    5.0457    1.0000 </r>
       <r>    5.2005    1.0000 </r>
       <r>    5.5156    1.0000 </r>
       <r>    5.6941    1.0000 </r>
       <r>    5.8212    1.0000 </r>
       <r>    5.9327    1.0000 </r>
       <r>    6.0189    1.0000 </r>
       <r>    8.4885    0.0209 </r>
       <r>   11.1924    0.0000 </r>
       <r>   11.7401    0.0000 </r>
       <r>   12.3569    0.0000 </r>
       <r>   12.7781    0.0000 </r>
       <r>   13.1002    0.0000 </r>
       <r>   13.6631    0.0000 </r>
       <r>   15.5497    0.0000 </r>
      </set>
      <set comment="kpoint 1976">
       <r>    0.8718    1.0000 </r>
       <r>    1.7538    1.0000 </r>
       <r>    2.4065    1.0000 </r>
       <r>    2.6817    1.0000 </r>
       <r>    2.7842    1.0000 </r>
       <r>    2.7943    1.0000 </r>
       <r>    2.8057    1.0000 </r>
       <r>    3.0944    1.0000 </r>
       <r>    3.1062    1.0000 </r>
       <r>    3.1198    1.0000 </r>
       <r>    3.1322    1.0000 </r>
       <r>    3.5166    1.0000 </r>
       <r>    3.6618    1.0000 </r>
       <r>    3.7002    1.0000 </r>
       <r>    3.7434    1.0000 </r>
       <r>    3.9816    1.0000 </r>
       <r>    3.9937    1.0000 </r>
       <r>    4.0673    1.0000 </r>
       <r>    4.3353    1.0000 </r>
       <r>    4.4770    1.0000 </r>
       <r>    4.6065    1.0000 </r>
       <r>    4.7305    1.0000 </r>
       <r>    4.8488    1.0000 </r>
       <r>    4.9320    1.0000 </r>
       <r>    4.9957    1.0000 </r>
       <r>    5.1259    1.0000 </r>
       <r>    5.2468    1.0000 </r>
       <r>    5.4274    1.0000 </r>
       <r>    5.7499    1.0000 </r>
       <r>    5.8074    1.0000 </r>
       <r>    5.9755    1.0000 </r>
       <r>    6.1024    1.0000 </r>
       <r>    8.6410   -0.0352 </r>
       <r>   11.7682    0.0000 </r>
       <r>   12.2070    0.0000 </r>
       <r>   12.3885    0.0000 </r>
       <r>   13.3531    0.0000 </r>
       <r>   13.4724    0.0000 </r>
       <r>   13.6967    0.0000 </r>
       <r>   15.7681    0.0000 </r>
      </set>
      <set comment="kpoint 1977">
       <r>    0.8102    1.0000 </r>
       <r>    1.6467    1.0000 </r>
       <r>    2.4454    1.0000 </r>
       <r>    2.6081    1.0000 </r>
       <r>    2.7659    1.0000 </r>
       <r>    2.7766    1.0000 </r>
       <r>    2.7961    1.0000 </r>
       <r>    3.0493    1.0000 </r>
       <r>    3.1226    1.0000 </r>
       <r>    3.1814    1.0000 </r>
       <r>    3.1906    1.0000 </r>
       <r>    3.4753    1.0000 </r>
       <r>    3.6040    1.0000 </r>
       <r>    3.6388    1.0000 </r>
       <r>    3.7473    1.0000 </r>
       <r>    3.9930    1.0000 </r>
       <r>    4.0083    1.0000 </r>
       <r>    4.1015    1.0000 </r>
       <r>    4.3512    1.0000 </r>
       <r>    4.4436    1.0000 </r>
       <r>    4.5446    1.0000 </r>
       <r>    4.6647    1.0000 </r>
       <r>    4.8352    1.0000 </r>
       <r>    4.9395    1.0000 </r>
       <r>    5.0195    1.0000 </r>
       <r>    5.1458    1.0000 </r>
       <r>    5.3382    1.0000 </r>
       <r>    5.4632    1.0000 </r>
       <r>    5.7085    1.0000 </r>
       <r>    5.8237    1.0000 </r>
       <r>    6.0133    1.0000 </r>
       <r>    6.1801    1.0000 </r>
       <r>    8.8808   -0.0064 </r>
       <r>   11.5699    0.0000 </r>
       <r>   12.3868    0.0000 </r>
       <r>   13.0423    0.0000 </r>
       <r>   13.6579    0.0000 </r>
       <r>   14.0217    0.0000 </r>
       <r>   14.5025    0.0000 </r>
       <r>   15.2195    0.0000 </r>
      </set>
     </set>
    </set>
   </array>
  </eigenvalues>
  <separator name="orbital magnetization" >
   <v name="MAGDIPOLOUT">      0.00000000      0.00000000      0.00000000</v>
  </separator>
  <dos>
   <i name="efermi">      8.26056696 </i>
   <total>
    <array>
     <dimension dim="1">gridpoints</dimension>
     <dimension dim="2">spin</dimension>
     <field>energy</field>
     <field>total</field>
     <field>integrated</field>
     <set>
      <set comment="spin 1">
       <r>    -3.2324     0.0000     0.0000 </r>
       <r>    -3.1528     0.0000     0.0000 </r>
       <r>    -3.0733     0.0000     0.0000 </r>
       <r>    -2.9937     0.0000     0.0000 </r>
       <r>    -2.9141     0.0000     0.0000 </r>
       <r>    -2.8346     0.0000     0.0000 </r>
       <r>    -2.7550     0.0000     0.0000 </r>
       <r>    -2.6755     0.0000     0.0000 </r>
       <r>    -2.5959     0.0000     0.0000 </r>
       <r>    -2.5163     0.0000     0.0000 </r>
       <r>    -2.4368     0.0000     0.0000 </r>
       <r>    -2.3572     0.0000     0.0000 </r>
       <r>    -2.2776     0.0000     0.0000 </r>
       <r>    -2.1981     0.0000     0.0000 </r>
       <r>    -2.1185     0.0000     0.0000 </r>
       <r>    -2.0389     0.0000     0.0000 </r>
       <r>    -1.9594     0.0000     0.0000 </r>
       <r>    -1.8798     0.0000     0.0000 </r>
       <r>    -1.8002     0.0000     0.0000 </r>
       <r>    -1.7207     0.0000     0.0000 </r>
       <r>    -1.6411     0.0000     0.0000 </r>
       <r>    -1.5615     0.0000     0.0000 </r>
       <r>    -1.4820     0.0000     0.0000 </r>
       <r>    -1.4024     0.0000     0.0000 </r>
       <r>    -1.3229     0.0000     0.0000 </r>
       <r>    -1.2433     0.0000     0.0000 </r>
       <r>    -1.1637     0.0000     0.0000 </r>
       <r>    -1.0842     0.0000     0.0000 </r>
       <r>    -1.0046    -0.0001     0.0000 </r>
       <r>    -0.9250    -0.0002     0.0000 </r>
       <r>    -0.8455    -0.0006    -0.0001 </r>
       <r>    -0.7659    -0.0016    -0.0002 </r>
       <r>    -0.6863    -0.0035    -0.0005 </r>
       <r>    -0.6068    -0.0062    -0.0010 </r>
       <r>    -0.5272    -0.0086    -0.0016 </r>
       <r>    -0.4476    -0.0072    -0.0022 </r>
       <r>    -0.3681     0.0031    -0.0020 </r>
       <r>    -0.2885     0.0278     0.0002 </r>
       <r>    -0.2090     0.0694     0.0058 </r>
       <r>    -0.1294     0.1257     0.0158 </r>
       <r>    -0.0498     0.1899     0.0309 </r>
       <r>     0.0297     0.2542     0.0511 </r>
       <r>     0.1093     0.3132     0.0760 </r>
       <r>     0.1889     0.3653     0.1051 </r>
       <r>     0.2684     0.4118     0.1378 </r>
       <r>     0.3480     0.4551     0.1741 </r>
       <r>     0.4276     0.4975     0.2136 </r>
       <r>     0.5071     0.5409     0.2567 </r>
       <r>     0.5867     0.5869     0.3034 </r>
       <r>     0.6663     0.6368     0.3540 </r>
       <r>     0.7458     0.6910     0.4090 </r>
       <r>     0.8254     0.7481     0.4685 </r>
       <r>     0.9050     0.8059     0.5327 </r>
       <r>     0.9845     0.8626     0.6013 </r>
       <r>     1.0641     0.9202     0.6745 </r>
       <r>     1.1436     0.9847     0.7529 </r>
       <r>     1.2232     1.0643     0.8375 </r>
       <r>     1.3028     1.1645     0.9302 </r>
       <r>     1.3823     1.2845     1.0324 </r>
       <r>     1.4619     1.4216     1.1455 </r>
       <r>     1.5415     1.5831     1.2715 </r>
       <r>     1.6210     1.8014     1.4148 </r>
       <r>     1.7006     2.1354     1.5847 </r>
       <r>     1.7802     2.6528     1.7958 </r>
       <r>     1.8597     3.4018     2.0664 </r>
       <r>     1.9393     4.3967     2.4162 </r>
       <r>     2.0189     5.6302     2.8642 </r>
       <r>     2.0984     7.0918     3.4285 </r>
       <r>     2.1780     8.7605     4.1255 </r>
       <r>     2.2576    10.5603     4.9657 </r>
       <r>     2.3371    12.3219     5.9461 </r>
       <r>     2.4167    13.8056     7.0445 </r>
       <r>     2.4962    14.7905     8.2213 </r>
       <r>     2.5758    15.1686     9.4282 </r>
       <r>     2.6554    14.9708    10.6194 </r>
       <r>     2.7349    14.3291    11.7594 </r>
       <r>     2.8145    13.4352    12.8284 </r>
       <r>     2.8941    12.5294    13.8253 </r>
       <r>     2.9736    11.8798    14.7705 </r>
       <r>     3.0532    11.7036    15.7017 </r>
       <r>     3.1328    12.0563    16.6610 </r>
       <r>     3.2123    12.7825    17.6780 </r>
       <r>     3.2919    13.5953    18.7597 </r>
       <r>     3.3715    14.2430    19.8929 </r>
       <r>     3.4510    14.6584    21.0592 </r>
       <r>     3.5306    14.9988    22.2526 </r>
       <r>     3.6101    15.5583    23.4905 </r>
       <r>     3.6897    16.5883    24.8103 </r>
       <r>     3.7693    18.0989    26.2504 </r>
       <r>     3.8488    19.7487    27.8217 </r>
       <r>     3.9284    20.9365    29.4875 </r>
       <r>     4.0080    21.1084    31.1669 </r>
       <r>     4.0875    20.1087    32.7669 </r>
       <r>     4.1671    18.3074    34.2235 </r>
       <r>     4.2467    16.3888    35.5275 </r>
       <r>     4.3262    14.9614    36.7179 </r>
       <r>     4.4058    14.2794    37.8540 </r>
       <r>     4.4854    14.2357    38.9867 </r>
       <r>     4.5649    14.5471    40.1441 </r>
       <r>     4.6445    14.9510    41.3337 </r>
       <r>     4.7241    15.2893    42.5501 </r>
       <r>     4.8036    15.4837    43.7821 </r>
       <r>     4.8832    15.4778    45.0136 </r>
       <r>     4.9627    15.2132    46.2240 </r>
       <r>     5.0423    14.6572    47.3902 </r>
       <r>     5.1219    13.8558    48.4926 </r>
       <r>     5.2014    12.9706    49.5246 </r>
       <r>     5.2810    12.2680    50.5007 </r>
       <r>     5.3606    12.0394    51.4586 </r>
       <r>     5.4401    12.4703    52.4508 </r>
       <r>     5.5197    13.5194    53.5265 </r>
       <r>     5.5993    14.8843    54.7108 </r>
       <r>     5.6788    16.0880    55.9908 </r>
       <r>     5.7584    16.6489    57.3155 </r>
       <r>     5.8380    16.2559    58.6088 </r>
       <r>     5.9175    14.8708    59.7920 </r>
       <r>     5.9971    12.7155    60.8037 </r>
       <r>     6.0766    10.1638    61.6124 </r>
       <r>     6.1562     7.6024    62.2173 </r>
       <r>     6.2358     5.3358    62.6418 </r>
       <r>     6.3153     3.5530    62.9245 </r>
       <r>     6.3949     2.3293    63.1099 </r>
       <r>     6.4745     1.6343    63.2399 </r>
       <r>     6.5540     1.3527    63.3475 </r>
       <r>     6.6336     1.3259    63.4530 </r>
       <r>     6.7132     1.4039    63.5647 </r>
       <r>     6.7927     1.4846    63.6828 </r>
       <r>     6.8723     1.5248    63.8042 </r>
       <r>     6.9519     1.5274    63.9257 </r>
       <r>     7.0314     1.5164    64.0463 </r>
       <r>     7.1110     1.5141    64.1668 </r>
       <r>     7.1906     1.5295    64.2885 </r>
       <r>     7.2701     1.5564    64.4123 </r>
       <r>     7.3497     1.5805    64.5381 </r>
       <r>     7.4292     1.5877    64.6644 </r>
       <r>     7.5088     1.5741    64.7896 </r>
       <r>     7.5884     1.5496    64.9129 </r>
       <r>     7.6679     1.5343    65.0350 </r>
       <r>     7.7475     1.5457    65.1580 </r>
       <r>     7.8271     1.5854    65.2841 </r>
       <r>     7.9066     1.6362    65.4143 </r>
       <r>     7.9862     1.6738    65.5475 </r>
       <r>     8.0658     1.6823    65.6814 </r>
       <r>     8.1453     1.6618    65.8136 </r>
       <r>     8.2249     1.6257    65.9429 </r>
       <r>     8.3045     1.5924    66.0696 </r>
       <r>     8.3840     1.5789    66.1953 </r>
       <r>     8.4636     1.5935    66.3220 </r>
       <r>     8.5432     1.6296    66.4517 </r>
       <r>     8.6227     1.6670    66.5843 </r>
       <r>     8.7023     1.6842    66.7183 </r>
       <r>     8.7818     1.6739    66.8515 </r>
       <r>     8.8614     1.6449    66.9824 </r>
       <r>     8.9410     1.6129    67.1107 </r>
       <r>     9.0205     1.5885    67.2371 </r>
       <r>     9.1001     1.5763    67.3625 </r>
       <r>     9.1797     1.5783    67.4881 </r>
       <r>     9.2592     1.5952    67.6150 </r>
       <r>     9.3388     1.6220    67.7441 </r>
       <r>     9.4184     1.6479    67.8752 </r>
       <r>     9.4979     1.6617    68.0074 </r>
       <r>     9.5775     1.6590    68.1394 </r>
       <r>     9.6571     1.6428    68.2701 </r>
       <r>     9.7366     1.6199    68.3990 </r>
       <r>     9.8162     1.5967    68.5261 </r>
       <r>     9.8957     1.5785    68.6517 </r>
       <r>     9.9753     1.5689    68.7765 </r>
       <r>    10.0549     1.5679    68.9012 </r>
       <r>    10.1344     1.5708    69.0262 </r>
       <r>    10.2140     1.5692    69.1511 </r>
       <r>    10.2936     1.5557    69.2748 </r>
       <r>    10.3731     1.5296    69.3965 </r>
       <r>    10.4527     1.4990    69.5158 </r>
       <r>    10.5323     1.4746    69.6331 </r>
       <r>    10.6118     1.4601    69.7493 </r>
       <r>    10.6914     1.4493    69.8646 </r>
       <r>    10.7710     1.4343    69.9787 </r>
       <r>    10.8505     1.4179    70.0916 </r>
       <r>    10.9301     1.4155    70.2042 </r>
       <r>    11.0097     1.4417    70.3189 </r>
       <r>    11.0892     1.4943    70.4378 </r>
       <r>    11.1688     1.5548    70.5615 </r>
       <r>    11.2483     1.6047    70.6892 </r>
       <r>    11.3279     1.6418    70.8198 </r>
       <r>    11.4075     1.6789    70.9534 </r>
       <r>    11.4870     1.7279    71.0909 </r>
       <r>    11.5666     1.7880    71.2331 </r>
       <r>    11.6462     1.8487    71.3802 </r>
       <r>    11.7257     1.9007    71.5314 </r>
       <r>    11.8053     1.9407    71.6858 </r>
       <r>    11.8849     1.9665    71.8423 </r>
       <r>    11.9644     1.9737    71.9993 </r>
       <r>    12.0440     1.9602    72.1553 </r>
       <r>    12.1236     1.9324    72.3091 </r>
       <r>    12.2031     1.9018    72.4604 </r>
       <r>    12.2827     1.8760    72.6096 </r>
       <r>    12.3622     1.8530    72.7571 </r>
       <r>    12.4418     1.8273    72.9025 </r>
       <r>    12.5214     1.7987    73.0456 </r>
       <r>    12.6009     1.7742    73.1867 </r>
       <r>    12.6805     1.7626    73.3270 </r>
       <r>    12.7601     1.7679    73.4676 </r>
       <r>    12.8396     1.7891    73.6100 </r>
       <r>    12.9192     1.8227    73.7550 </r>
       <r>    12.9988     1.8641    73.9033 </r>
       <r>    13.0783     1.9055    74.0549 </r>
       <r>    13.1579     1.9355    74.2089 </r>
       <r>    13.2375     1.9434    74.3636 </r>
       <r>    13.3170     1.9259    74.5168 </r>
       <r>    13.3966     1.8911    74.6673 </r>
       <r>    13.4762     1.8560    74.8149 </r>
       <r>    13.5557     1.8375    74.9611 </r>
       <r>    13.6353     1.8458    75.1080 </r>
       <r>    13.7148     1.8819    75.2577 </r>
       <r>    13.7944     1.9406    75.4121 </r>
       <r>    13.8740     2.0115    75.5722 </r>
       <r>    13.9535     2.0783    75.7375 </r>
       <r>    14.0331     2.1217    75.9063 </r>
       <r>    14.1127     2.1262    76.0755 </r>
       <r>    14.1922     2.0884    76.2417 </r>
       <r>    14.2718     2.0174    76.4022 </r>
       <r>    14.3514     1.9289    76.5557 </r>
       <r>    14.4309     1.8398    76.7020 </r>
       <r>    14.5105     1.7650    76.8425 </r>
       <r>    14.5901     1.7157    76.9790 </r>
       <r>    14.6696     1.6960    77.1139 </r>
       <r>    14.7492     1.7009    77.2493 </r>
       <r>    14.8288     1.7196    77.3861 </r>
       <r>    14.9083     1.7411    77.5246 </r>
       <r>    14.9879     1.7565    77.6644 </r>
       <r>    15.0674     1.7592    77.8043 </r>
       <r>    15.1470     1.7466    77.9433 </r>
       <r>    15.2266     1.7220    78.0803 </r>
       <r>    15.3061     1.6920    78.2149 </r>
       <r>    15.3857     1.6585    78.3469 </r>
       <r>    15.4653     1.6133    78.4753 </r>
       <r>    15.5448     1.5450    78.5982 </r>
       <r>    15.6244     1.4505    78.7136 </r>
       <r>    15.7040     1.3426    78.8204 </r>
       <r>    15.7835     1.2420    78.9192 </r>
       <r>    15.8631     1.1637    79.0118 </r>
       <r>    15.9427     1.1091    79.1001 </r>
       <r>    16.0222     1.0704    79.1852 </r>
       <r>    16.1018     1.0377    79.2678 </r>
       <r>    16.1813     1.0034    79.3476 </r>
       <r>    16.2609     0.9611    79.4241 </r>
       <r>    16.3405     0.9056    79.4962 </r>
       <r>    16.4200     0.8361    79.5627 </r>
       <r>    16.4996     0.7576    79.6230 </r>
       <r>    16.5792     0.6788    79.6770 </r>
       <r>    16.6587     0.6065    79.7252 </r>
       <r>    16.7383     0.5423    79.7684 </r>
       <r>    16.8179     0.4833    79.8068 </r>
       <r>    16.8974     0.4266    79.8408 </r>
       <r>    16.9770     0.3736    79.8705 </r>
       <r>    17.0566     0.3282    79.8966 </r>
       <r>    17.1361     0.2922    79.9199 </r>
       <r>    17.2157     0.2620    79.9407 </r>
       <r>    17.2953     0.2304    79.9591 </r>
       <r>    17.3748     0.1918    79.9743 </r>
       <r>    17.4544     0.1466    79.9860 </r>
       <r>    17.5339     0.0999    79.9939 </r>
       <r>    17.6135     0.0586    79.9986 </r>
       <r>    17.6931     0.0273    80.0008 </r>
       <r>    17.7726     0.0076    80.0014 </r>
       <r>    17.8522    -0.0021    80.0012 </r>
       <r>    17.9318    -0.0050    80.0008 </r>
       <r>    18.0113    -0.0045    80.0004 </r>
       <r>    18.0909    -0.0029    80.0002 </r>
       <r>    18.1705    -0.0015    80.0001 </r>
       <r>    18.2500    -0.0007    80.0000 </r>
       <r>    18.3296    -0.0003    80.0000 </r>
       <r>    18.4092    -0.0001    80.0000 </r>
       <r>    18.4887     0.0000    80.0000 </r>
       <r>    18.5683     0.0000    80.0000 </r>
       <r>    18.6479     0.0000    80.0000 </r>
       <r>    18.7274     0.0000    80.0000 </r>
       <r>    18.8070     0.0000    80.0000 </r>
       <r>    18.8865     0.0000    80.0000 </r>
       <r>    18.9661     0.0000    80.0000 </r>
       <r>    19.0457     0.0000    80.0000 </r>
       <r>    19.1252     0.0000    80.0000 </r>
       <r>    19.2048     0.0000    80.0000 </r>
       <r>    19.2844     0.0000    80.0000 </r>
       <r>    19.3639     0.0000    80.0000 </r>
       <r>    19.4435     0.0000    80.0000 </r>
       <r>    19.5231     0.0000    80.0000 </r>
       <r>    19.6026     0.0000    80.0000 </r>
       <r>    19.6822     0.0000    80.0000 </r>
       <r>    19.7618     0.0000    80.0000 </r>
       <r>    19.8413     0.0000    80.0000 </r>
       <r>    19.9209     0.0000    80.0000 </r>
       <r>    20.0004     0.0000    80.0000 </r>
       <r>    20.0800     0.0000    80.0000 </r>
       <r>    20.1596     0.0000    80.0000 </r>
       <r>    20.2391     0.0000    80.0000 </r>
       <r>    20.3187     0.0000    80.0000 </r>
       <r>    20.3983     0.0000    80.0000 </r>
       <r>    20.4778     0.0000    80.0000 </r>
       <r>    20.5574     0.0000    80.0000 </r>
       <r>    20.6370     0.0000    80.0000 </r>
      </set>
     </set>
    </array>
   </total>
  </dos>
 </calculation>
 <structure name="finalpos" >
  <crystal>
   <varray name="basis" >
    <v>       4.16139316       0.00000000       0.00000000 </v>
    <v>      -2.08069658      -4.14537414      -2.08073172 </v>
    <v>       0.00000000       4.12791685      -4.12654930 </v>
   </varray>
   <i name="volume">    106.92773905 </i>
   <varray name="rec_basis" >
    <v>       0.24030414      -0.08029813      -0.08032474 </v>
    <v>       0.00000000      -0.16059625      -0.16064947 </v>
    <v>       0.00000000       0.08097752      -0.16132887 </v>
   </varray>
  </crystal>
  <varray name="positions" >
   <v>       0.66651998       0.33303996       0.33345895 </v>
   <v>       0.33326739       0.66653478       0.66663633 </v>
   <v>       0.66683398       0.33366796       0.83334853 </v>
   <v>       0.00030081       0.00060162       0.99921720 </v>
   <v>       0.33304333       0.66608665       0.16667977 </v>
   <v>       0.00003451       0.00006903       0.50065923 </v>
  </varray>
 </structure>
</modeling>
