<?xml version="1.0" encoding="ISO-8859-1"?>
<modeling>
 <generator>
  <i name="program" type="string">vasp </i>
  <i name="version" type="string">5.3.5  </i>
  <i name="subversion" type="string">31Mar14 (build Jun 20 2014 13:15:13) complex                          parallel </i>
  <i name="platform" type="string">LinuxIFC </i>
  <i name="date" type="string">2025 11 21 </i>
  <i name="time" type="string">12:07:15 </i>
 </generator>
 <incar>
  <i type="string" name="PREC">accurate</i>
  <i type="int" name="IALGO">    68</i>
  <i type="logical" name="ADDGRID"> T  </i>
  <i type="int" name="NELM">   100</i>
  <i type="int" name="NELMIN">     4</i>
  <i type="int" name="IBRION">     2</i>
  <i name="EDIFF">      0.00000100</i>
  <i name="EDIFFG">     -0.02000000</i>
  <i type="int" name="NSW">    30</i>
  <i type="int" name="ISIF">     3</i>
  <i name="ENCUT">    500.00000000</i>
  <i type="logical" name="LREAL"> F  </i>
  <i type="int" name="ISMEAR">     1</i>
  <i name="SIGMA">      0.30000000</i>
  <i type="logical" name="LWAVE"> F  </i>
  <i type="logical" name="LCHARG"> F  </i>
  <i type="int" name="NELM">   100</i>
 </incar>
 <kpoints>
  <generation param="Auto">
   <i name="subdivisionlength">     70.00000000 </i>
   <v type="int" name="divisions">      24       14       10 </v>
   <v name="usershift">      0.00000000       0.00000000       0.00000000 </v>
   <v name="genvec1">      0.04166667       0.00000000       0.00000000 </v>
   <v name="genvec2">      0.00000000       0.07142857       0.00000000 </v>
   <v name="genvec3">      0.00000000       0.00000000       0.10000000 </v>
   <v name="shift">      0.00000000       0.00000000       0.00000000 </v>
  </generation>
  <varray name="kpointlist" >
   <v>       0.00000000       0.00000000       0.00000000 </v>
   <v>       0.04166667       0.00000000       0.00000000 </v>
   <v>       0.08333333       0.00000000       0.00000000 </v>
   <v>       0.12500000       0.00000000       0.00000000 </v>
   <v>       0.16666667       0.00000000       0.00000000 </v>
   <v>       0.20833333       0.00000000       0.00000000 </v>
   <v>       0.25000000       0.00000000       0.00000000 </v>
   <v>       0.29166667       0.00000000       0.00000000 </v>
   <v>       0.33333333       0.00000000       0.00000000 </v>
   <v>       0.37500000       0.00000000       0.00000000 </v>
   <v>       0.41666667       0.00000000       0.00000000 </v>
   <v>       0.45833333       0.00000000       0.00000000 </v>
   <v>       0.50000000       0.00000000       0.00000000 </v>
   <v>       0.00000000       0.07142857       0.00000000 </v>
   <v>       0.04166667       0.07142857       0.00000000 </v>
   <v>       0.08333333       0.07142857       0.00000000 </v>
   <v>       0.12500000       0.07142857       0.00000000 </v>
   <v>       0.16666667       0.07142857       0.00000000 </v>
   <v>       0.20833333       0.07142857       0.00000000 </v>
   <v>       0.25000000       0.07142857       0.00000000 </v>
   <v>       0.29166667       0.07142857       0.00000000 </v>
   <v>       0.33333333       0.07142857       0.00000000 </v>
   <v>       0.37500000       0.07142857       0.00000000 </v>
   <v>       0.41666667       0.07142857       0.00000000 </v>
   <v>       0.45833333       0.07142857       0.00000000 </v>
   <v>       0.50000000       0.07142857       0.00000000 </v>
   <v>       0.00000000       0.14285714       0.00000000 </v>
   <v>       0.04166667       0.14285714       0.00000000 </v>
   <v>       0.08333333       0.14285714       0.00000000 </v>
   <v>       0.12500000       0.14285714       0.00000000 </v>
   <v>       0.16666667       0.14285714       0.00000000 </v>
   <v>       0.20833333       0.14285714       0.00000000 </v>
   <v>       0.25000000       0.14285714       0.00000000 </v>
   <v>       0.29166667       0.14285714       0.00000000 </v>
   <v>       0.33333333       0.14285714       0.00000000 </v>
   <v>       0.37500000       0.14285714       0.00000000 </v>
   <v>       0.41666667       0.14285714       0.00000000 </v>
   <v>       0.45833333       0.14285714       0.00000000 </v>
   <v>       0.50000000       0.14285714       0.00000000 </v>
   <v>       0.00000000       0.21428571       0.00000000 </v>
   <v>       0.04166667       0.21428571       0.00000000 </v>
   <v>       0.08333333       0.21428571       0.00000000 </v>
   <v>       0.12500000       0.21428571       0.00000000 </v>
   <v>       0.16666667       0.21428571       0.00000000 </v>
   <v>       0.20833333       0.21428571       0.00000000 </v>
   <v>       0.25000000       0.21428571       0.00000000 </v>
   <v>       0.29166667       0.21428571       0.00000000 </v>
   <v>       0.33333333       0.21428571       0.00000000 </v>
   <v>       0.37500000       0.21428571       0.00000000 </v>
   <v>       0.41666667       0.21428571       0.00000000 </v>
   <v>       0.45833333       0.21428571       0.00000000 </v>
   <v>       0.50000000       0.21428571       0.00000000 </v>
   <v>       0.00000000       0.28571429       0.00000000 </v>
   <v>       0.04166667       0.28571429       0.00000000 </v>
   <v>       0.08333333       0.28571429       0.00000000 </v>
   <v>       0.12500000       0.28571429       0.00000000 </v>
   <v>       0.16666667       0.28571429       0.00000000 </v>
   <v>       0.20833333       0.28571429       0.00000000 </v>
   <v>       0.25000000       0.28571429       0.00000000 </v>
   <v>       0.29166667       0.28571429       0.00000000 </v>
   <v>       0.33333333       0.28571429       0.00000000 </v>
   <v>       0.37500000       0.28571429       0.00000000 </v>
   <v>       0.41666667       0.28571429       0.00000000 </v>
   <v>       0.45833333       0.28571429       0.00000000 </v>
   <v>       0.50000000       0.28571429       0.00000000 </v>
   <v>       0.00000000       0.35714286       0.00000000 </v>
   <v>       0.04166667       0.35714286       0.00000000 </v>
   <v>       0.08333333       0.35714286       0.00000000 </v>
   <v>       0.12500000       0.35714286       0.00000000 </v>
   <v>       0.16666667       0.35714286       0.00000000 </v>
   <v>       0.20833333       0.35714286       0.00000000 </v>
   <v>       0.25000000       0.35714286       0.00000000 </v>
   <v>       0.29166667       0.35714286       0.00000000 </v>
   <v>       0.33333333       0.35714286       0.00000000 </v>
   <v>       0.37500000       0.35714286       0.00000000 </v>
   <v>       0.41666667       0.35714286       0.00000000 </v>
   <v>       0.45833333       0.35714286       0.00000000 </v>
   <v>       0.50000000       0.35714286       0.00000000 </v>
   <v>       0.00000000       0.42857143       0.00000000 </v>
   <v>       0.04166667       0.42857143       0.00000000 </v>
   <v>       0.08333333       0.42857143       0.00000000 </v>
   <v>       0.12500000       0.42857143       0.00000000 </v>
   <v>       0.16666667       0.42857143       0.00000000 </v>
   <v>       0.20833333       0.42857143       0.00000000 </v>
   <v>       0.25000000       0.42857143       0.00000000 </v>
   <v>       0.29166667       0.42857143       0.00000000 </v>
   <v>       0.33333333       0.42857143       0.00000000 </v>
   <v>       0.37500000       0.42857143       0.00000000 </v>
   <v>       0.41666667       0.42857143       0.00000000 </v>
   <v>       0.45833333       0.42857143       0.00000000 </v>
   <v>       0.50000000       0.42857143       0.00000000 </v>
   <v>       0.00000000       0.50000000       0.00000000 </v>
   <v>       0.04166667       0.50000000       0.00000000 </v>
   <v>       0.08333333       0.50000000       0.00000000 </v>
   <v>       0.12500000       0.50000000       0.00000000 </v>
   <v>       0.16666667       0.50000000       0.00000000 </v>
   <v>       0.20833333       0.50000000       0.00000000 </v>
   <v>       0.25000000       0.50000000       0.00000000 </v>
   <v>       0.29166667       0.50000000       0.00000000 </v>
   <v>       0.33333333       0.50000000       0.00000000 </v>
   <v>       0.37500000       0.50000000       0.00000000 </v>
   <v>       0.41666667       0.50000000       0.00000000 </v>
   <v>       0.45833333       0.50000000       0.00000000 </v>
   <v>       0.50000000       0.50000000       0.00000000 </v>
   <v>       0.00000000       0.00000000       0.10000000 </v>
   <v>       0.04166667       0.00000000       0.10000000 </v>
   <v>       0.08333333       0.00000000       0.10000000 </v>
   <v>       0.12500000       0.00000000       0.10000000 </v>
   <v>       0.16666667       0.00000000       0.10000000 </v>
   <v>       0.20833333       0.00000000       0.10000000 </v>
   <v>       0.25000000       0.00000000       0.10000000 </v>
   <v>       0.29166667       0.00000000       0.10000000 </v>
   <v>       0.33333333       0.00000000       0.10000000 </v>
   <v>       0.37500000       0.00000000       0.10000000 </v>
   <v>       0.41666667       0.00000000       0.10000000 </v>
   <v>       0.45833333       0.00000000       0.10000000 </v>
   <v>       0.50000000       0.00000000       0.10000000 </v>
   <v>       0.00000000       0.07142857       0.10000000 </v>
   <v>       0.04166667       0.07142857       0.10000000 </v>
   <v>       0.08333333       0.07142857       0.10000000 </v>
   <v>       0.12500000       0.07142857       0.10000000 </v>
   <v>       0.16666667       0.07142857       0.10000000 </v>
   <v>       0.20833333       0.07142857       0.10000000 </v>
   <v>       0.25000000       0.07142857       0.10000000 </v>
   <v>       0.29166667       0.07142857       0.10000000 </v>
   <v>       0.33333333       0.07142857       0.10000000 </v>
   <v>       0.37500000       0.07142857       0.10000000 </v>
   <v>       0.41666667       0.07142857       0.10000000 </v>
   <v>       0.45833333       0.07142857       0.10000000 </v>
   <v>       0.50000000       0.07142857       0.10000000 </v>
   <v>       0.00000000       0.14285714       0.10000000 </v>
   <v>       0.04166667       0.14285714       0.10000000 </v>
   <v>       0.08333333       0.14285714       0.10000000 </v>
   <v>       0.12500000       0.14285714       0.10000000 </v>
   <v>       0.16666667       0.14285714       0.10000000 </v>
   <v>       0.20833333       0.14285714       0.10000000 </v>
   <v>       0.25000000       0.14285714       0.10000000 </v>
   <v>       0.29166667       0.14285714       0.10000000 </v>
   <v>       0.33333333       0.14285714       0.10000000 </v>
   <v>       0.37500000       0.14285714       0.10000000 </v>
   <v>       0.41666667       0.14285714       0.10000000 </v>
   <v>       0.45833333       0.14285714       0.10000000 </v>
   <v>       0.50000000       0.14285714       0.10000000 </v>
   <v>       0.00000000       0.21428571       0.10000000 </v>
   <v>       0.04166667       0.21428571       0.10000000 </v>
   <v>       0.08333333       0.21428571       0.10000000 </v>
   <v>       0.12500000       0.21428571       0.10000000 </v>
   <v>       0.16666667       0.21428571       0.10000000 </v>
   <v>       0.20833333       0.21428571       0.10000000 </v>
   <v>       0.25000000       0.21428571       0.10000000 </v>
   <v>       0.29166667       0.21428571       0.10000000 </v>
   <v>       0.33333333       0.21428571       0.10000000 </v>
   <v>       0.37500000       0.21428571       0.10000000 </v>
   <v>       0.41666667       0.21428571       0.10000000 </v>
   <v>       0.45833333       0.21428571       0.10000000 </v>
   <v>       0.50000000       0.21428571       0.10000000 </v>
   <v>       0.00000000       0.28571429       0.10000000 </v>
   <v>       0.04166667       0.28571429       0.10000000 </v>
   <v>       0.08333333       0.28571429       0.10000000 </v>
   <v>       0.12500000       0.28571429       0.10000000 </v>
   <v>       0.16666667       0.28571429       0.10000000 </v>
   <v>       0.20833333       0.28571429       0.10000000 </v>
   <v>       0.25000000       0.28571429       0.10000000 </v>
   <v>       0.29166667       0.28571429       0.10000000 </v>
   <v>       0.33333333       0.28571429       0.10000000 </v>
   <v>       0.37500000       0.28571429       0.10000000 </v>
   <v>       0.41666667       0.28571429       0.10000000 </v>
   <v>       0.45833333       0.28571429       0.10000000 </v>
   <v>       0.50000000       0.28571429       0.10000000 </v>
   <v>       0.00000000       0.35714286       0.10000000 </v>
   <v>       0.04166667       0.35714286       0.10000000 </v>
   <v>       0.08333333       0.35714286       0.10000000 </v>
   <v>       0.12500000       0.35714286       0.10000000 </v>
   <v>       0.16666667       0.35714286       0.10000000 </v>
   <v>       0.20833333       0.35714286       0.10000000 </v>
   <v>       0.25000000       0.35714286       0.10000000 </v>
   <v>       0.29166667       0.35714286       0.10000000 </v>
   <v>       0.33333333       0.35714286       0.10000000 </v>
   <v>       0.37500000       0.35714286       0.10000000 </v>
   <v>       0.41666667       0.35714286       0.10000000 </v>
   <v>       0.45833333       0.35714286       0.10000000 </v>
   <v>       0.50000000       0.35714286       0.10000000 </v>
   <v>       0.00000000       0.42857143       0.10000000 </v>
   <v>       0.04166667       0.42857143       0.10000000 </v>
   <v>       0.08333333       0.42857143       0.10000000 </v>
   <v>       0.12500000       0.42857143       0.10000000 </v>
   <v>       0.16666667       0.42857143       0.10000000 </v>
   <v>       0.20833333       0.42857143       0.10000000 </v>
   <v>       0.25000000       0.42857143       0.10000000 </v>
   <v>       0.29166667       0.42857143       0.10000000 </v>
   <v>       0.33333333       0.42857143       0.10000000 </v>
   <v>       0.37500000       0.42857143       0.10000000 </v>
   <v>       0.41666667       0.42857143       0.10000000 </v>
   <v>       0.45833333       0.42857143       0.10000000 </v>
   <v>       0.50000000       0.42857143       0.10000000 </v>
   <v>       0.00000000       0.50000000       0.10000000 </v>
   <v>       0.04166667       0.50000000       0.10000000 </v>
   <v>       0.08333333       0.50000000       0.10000000 </v>
   <v>       0.12500000       0.50000000       0.10000000 </v>
   <v>       0.16666667       0.50000000       0.10000000 </v>
   <v>       0.20833333       0.50000000       0.10000000 </v>
   <v>       0.25000000       0.50000000       0.10000000 </v>
   <v>       0.29166667       0.50000000       0.10000000 </v>
   <v>       0.33333333       0.50000000       0.10000000 </v>
   <v>       0.37500000       0.50000000       0.10000000 </v>
   <v>       0.41666667       0.50000000       0.10000000 </v>
   <v>       0.45833333       0.50000000       0.10000000 </v>
   <v>       0.50000000       0.50000000       0.10000000 </v>
   <v>       0.00000000      -0.42857143       0.10000000 </v>
   <v>       0.04166667      -0.42857143       0.10000000 </v>
   <v>       0.08333333      -0.42857143       0.10000000 </v>
   <v>       0.12500000      -0.42857143       0.10000000 </v>
   <v>       0.16666667      -0.42857143       0.10000000 </v>
   <v>       0.20833333      -0.42857143       0.10000000 </v>
   <v>       0.25000000      -0.42857143       0.10000000 </v>
   <v>       0.29166667      -0.42857143       0.10000000 </v>
   <v>       0.33333333      -0.42857143       0.10000000 </v>
   <v>       0.37500000      -0.42857143       0.10000000 </v>
   <v>       0.41666667      -0.42857143       0.10000000 </v>
   <v>       0.45833333      -0.42857143       0.10000000 </v>
   <v>       0.50000000      -0.42857143       0.10000000 </v>
   <v>       0.00000000      -0.35714286       0.10000000 </v>
   <v>       0.04166667      -0.35714286       0.10000000 </v>
   <v>       0.08333333      -0.35714286       0.10000000 </v>
   <v>       0.12500000      -0.35714286       0.10000000 </v>
   <v>       0.16666667      -0.35714286       0.10000000 </v>
   <v>       0.20833333      -0.35714286       0.10000000 </v>
   <v>       0.25000000      -0.35714286       0.10000000 </v>
   <v>       0.29166667      -0.35714286       0.10000000 </v>
   <v>       0.33333333      -0.35714286       0.10000000 </v>
   <v>       0.37500000      -0.35714286       0.10000000 </v>
   <v>       0.41666667      -0.35714286       0.10000000 </v>
   <v>       0.45833333      -0.35714286       0.10000000 </v>
   <v>       0.50000000      -0.35714286       0.10000000 </v>
   <v>       0.00000000      -0.28571429       0.10000000 </v>
   <v>       0.04166667      -0.28571429       0.10000000 </v>
   <v>       0.08333333      -0.28571429       0.10000000 </v>
   <v>       0.12500000      -0.28571429       0.10000000 </v>
   <v>       0.16666667      -0.28571429       0.10000000 </v>
   <v>       0.20833333      -0.28571429       0.10000000 </v>
   <v>       0.25000000      -0.28571429       0.10000000 </v>
   <v>       0.29166667      -0.28571429       0.10000000 </v>
   <v>       0.33333333      -0.28571429       0.10000000 </v>
   <v>       0.37500000      -0.28571429       0.10000000 </v>
   <v>       0.41666667      -0.28571429       0.10000000 </v>
   <v>       0.45833333      -0.28571429       0.10000000 </v>
   <v>       0.50000000      -0.28571429       0.10000000 </v>
   <v>       0.00000000      -0.21428571       0.10000000 </v>
   <v>       0.04166667      -0.21428571       0.10000000 </v>
   <v>       0.08333333      -0.21428571       0.10000000 </v>
   <v>       0.12500000      -0.21428571       0.10000000 </v>
   <v>       0.16666667      -0.21428571       0.10000000 </v>
   <v>       0.20833333      -0.21428571       0.10000000 </v>
   <v>       0.25000000      -0.21428571       0.10000000 </v>
   <v>       0.29166667      -0.21428571       0.10000000 </v>
   <v>       0.33333333      -0.21428571       0.10000000 </v>
   <v>       0.37500000      -0.21428571       0.10000000 </v>
   <v>       0.41666667      -0.21428571       0.10000000 </v>
   <v>       0.45833333      -0.21428571       0.10000000 </v>
   <v>       0.50000000      -0.21428571       0.10000000 </v>
   <v>       0.00000000      -0.14285714       0.10000000 </v>
   <v>       0.04166667      -0.14285714       0.10000000 </v>
   <v>       0.08333333      -0.14285714       0.10000000 </v>
   <v>       0.12500000      -0.14285714       0.10000000 </v>
   <v>       0.16666667      -0.14285714       0.10000000 </v>
   <v>       0.20833333      -0.14285714       0.10000000 </v>
   <v>       0.25000000      -0.14285714       0.10000000 </v>
   <v>       0.29166667      -0.14285714       0.10000000 </v>
   <v>       0.33333333      -0.14285714       0.10000000 </v>
   <v>       0.37500000      -0.14285714       0.10000000 </v>
   <v>       0.41666667      -0.14285714       0.10000000 </v>
   <v>       0.45833333      -0.14285714       0.10000000 </v>
   <v>       0.50000000      -0.14285714       0.10000000 </v>
   <v>       0.00000000      -0.07142857       0.10000000 </v>
   <v>       0.04166667      -0.07142857       0.10000000 </v>
   <v>       0.08333333      -0.07142857       0.10000000 </v>
   <v>       0.12500000      -0.07142857       0.10000000 </v>
   <v>       0.16666667      -0.07142857       0.10000000 </v>
   <v>       0.20833333      -0.07142857       0.10000000 </v>
   <v>       0.25000000      -0.07142857       0.10000000 </v>
   <v>       0.29166667      -0.07142857       0.10000000 </v>
   <v>       0.33333333      -0.07142857       0.10000000 </v>
   <v>       0.37500000      -0.07142857       0.10000000 </v>
   <v>       0.41666667      -0.07142857       0.10000000 </v>
   <v>       0.45833333      -0.07142857       0.10000000 </v>
   <v>       0.50000000      -0.07142857       0.10000000 </v>
   <v>       0.00000000       0.00000000       0.20000000 </v>
   <v>       0.04166667       0.00000000       0.20000000 </v>
   <v>       0.08333333       0.00000000       0.20000000 </v>
   <v>       0.12500000       0.00000000       0.20000000 </v>
   <v>       0.16666667       0.00000000       0.20000000 </v>
   <v>       0.20833333       0.00000000       0.20000000 </v>
   <v>       0.25000000       0.00000000       0.20000000 </v>
   <v>       0.29166667       0.00000000       0.20000000 </v>
   <v>       0.33333333       0.00000000       0.20000000 </v>
   <v>       0.37500000       0.00000000       0.20000000 </v>
   <v>       0.41666667       0.00000000       0.20000000 </v>
   <v>       0.45833333       0.00000000       0.20000000 </v>
   <v>       0.50000000       0.00000000       0.20000000 </v>
   <v>       0.00000000       0.07142857       0.20000000 </v>
   <v>       0.04166667       0.07142857       0.20000000 </v>
   <v>       0.08333333       0.07142857       0.20000000 </v>
   <v>       0.12500000       0.07142857       0.20000000 </v>
   <v>       0.16666667       0.07142857       0.20000000 </v>
   <v>       0.20833333       0.07142857       0.20000000 </v>
   <v>       0.25000000       0.07142857       0.20000000 </v>
   <v>       0.29166667       0.07142857       0.20000000 </v>
   <v>       0.33333333       0.07142857       0.20000000 </v>
   <v>       0.37500000       0.07142857       0.20000000 </v>
   <v>       0.41666667       0.07142857       0.20000000 </v>
   <v>       0.45833333       0.07142857       0.20000000 </v>
   <v>       0.50000000       0.07142857       0.20000000 </v>
   <v>       0.00000000       0.14285714       0.20000000 </v>
   <v>       0.04166667       0.14285714       0.20000000 </v>
   <v>       0.08333333       0.14285714       0.20000000 </v>
   <v>       0.12500000       0.14285714       0.20000000 </v>
   <v>       0.16666667       0.14285714       0.20000000 </v>
   <v>       0.20833333       0.14285714       0.20000000 </v>
   <v>       0.25000000       0.14285714       0.20000000 </v>
   <v>       0.29166667       0.14285714       0.20000000 </v>
   <v>       0.33333333       0.14285714       0.20000000 </v>
   <v>       0.37500000       0.14285714       0.20000000 </v>
   <v>       0.41666667       0.14285714       0.20000000 </v>
   <v>       0.45833333       0.14285714       0.20000000 </v>
   <v>       0.50000000       0.14285714       0.20000000 </v>
   <v>       0.00000000       0.21428571       0.20000000 </v>
   <v>       0.04166667       0.21428571       0.20000000 </v>
   <v>       0.08333333       0.21428571       0.20000000 </v>
   <v>       0.12500000       0.21428571       0.20000000 </v>
   <v>       0.16666667       0.21428571       0.20000000 </v>
   <v>       0.20833333       0.21428571       0.20000000 </v>
   <v>       0.25000000       0.21428571       0.20000000 </v>
   <v>       0.29166667       0.21428571       0.20000000 </v>
   <v>       0.33333333       0.21428571       0.20000000 </v>
   <v>       0.37500000       0.21428571       0.20000000 </v>
   <v>       0.41666667       0.21428571       0.20000000 </v>
   <v>       0.45833333       0.21428571       0.20000000 </v>
   <v>       0.50000000       0.21428571       0.20000000 </v>
   <v>       0.00000000       0.28571429       0.20000000 </v>
   <v>       0.04166667       0.28571429       0.20000000 </v>
   <v>       0.08333333       0.28571429       0.20000000 </v>
   <v>       0.12500000       0.28571429       0.20000000 </v>
   <v>       0.16666667       0.28571429       0.20000000 </v>
   <v>       0.20833333       0.28571429       0.20000000 </v>
   <v>       0.25000000       0.28571429       0.20000000 </v>
   <v>       0.29166667       0.28571429       0.20000000 </v>
   <v>       0.33333333       0.28571429       0.20000000 </v>
   <v>       0.37500000       0.28571429       0.20000000 </v>
   <v>       0.41666667       0.28571429       0.20000000 </v>
   <v>       0.45833333       0.28571429       0.20000000 </v>
   <v>       0.50000000       0.28571429       0.20000000 </v>
   <v>       0.00000000       0.35714286       0.20000000 </v>
   <v>       0.04166667       0.35714286       0.20000000 </v>
   <v>       0.08333333       0.35714286       0.20000000 </v>
   <v>       0.12500000       0.35714286       0.20000000 </v>
   <v>       0.16666667       0.35714286       0.20000000 </v>
   <v>       0.20833333       0.35714286       0.20000000 </v>
   <v>       0.25000000       0.35714286       0.20000000 </v>
   <v>       0.29166667       0.35714286       0.20000000 </v>
   <v>       0.33333333       0.35714286       0.20000000 </v>
   <v>       0.37500000       0.35714286       0.20000000 </v>
   <v>       0.41666667       0.35714286       0.20000000 </v>
   <v>       0.45833333       0.35714286       0.20000000 </v>
   <v>       0.50000000       0.35714286       0.20000000 </v>
   <v>       0.00000000       0.42857143       0.20000000 </v>
   <v>       0.04166667       0.42857143       0.20000000 </v>
   <v>       0.08333333       0.42857143       0.20000000 </v>
   <v>       0.12500000       0.42857143       0.20000000 </v>
   <v>       0.16666667       0.42857143       0.20000000 </v>
   <v>       0.20833333       0.42857143       0.20000000 </v>
   <v>       0.25000000       0.42857143       0.20000000 </v>
   <v>       0.29166667       0.42857143       0.20000000 </v>
   <v>       0.33333333       0.42857143       0.20000000 </v>
   <v>       0.37500000       0.42857143       0.20000000 </v>
   <v>       0.41666667       0.42857143       0.20000000 </v>
   <v>       0.45833333       0.42857143       0.20000000 </v>
   <v>       0.50000000       0.42857143       0.20000000 </v>
   <v>       0.00000000       0.50000000       0.20000000 </v>
   <v>       0.04166667       0.50000000       0.20000000 </v>
   <v>       0.08333333       0.50000000       0.20000000 </v>
   <v>       0.12500000       0.50000000       0.20000000 </v>
   <v>       0.16666667       0.50000000       0.20000000 </v>
   <v>       0.20833333       0.50000000       0.20000000 </v>
   <v>       0.25000000       0.50000000       0.20000000 </v>
   <v>       0.29166667       0.50000000       0.20000000 </v>
   <v>       0.33333333       0.50000000       0.20000000 </v>
   <v>       0.37500000       0.50000000       0.20000000 </v>
   <v>       0.41666667       0.50000000       0.20000000 </v>
   <v>       0.45833333       0.50000000       0.20000000 </v>
   <v>       0.50000000       0.50000000       0.20000000 </v>
   <v>       0.00000000      -0.42857143       0.20000000 </v>
   <v>       0.04166667      -0.42857143       0.20000000 </v>
   <v>       0.08333333      -0.42857143       0.20000000 </v>
   <v>       0.12500000      -0.42857143       0.20000000 </v>
   <v>       0.16666667      -0.42857143       0.20000000 </v>
   <v>       0.20833333      -0.42857143       0.20000000 </v>
   <v>       0.25000000      -0.42857143       0.20000000 </v>
   <v>       0.29166667      -0.42857143       0.20000000 </v>
   <v>       0.33333333      -0.42857143       0.20000000 </v>
   <v>       0.37500000      -0.42857143       0.20000000 </v>
   <v>       0.41666667      -0.42857143       0.20000000 </v>
   <v>       0.45833333      -0.42857143       0.20000000 </v>
   <v>       0.50000000      -0.42857143       0.20000000 </v>
   <v>       0.00000000      -0.35714286       0.20000000 </v>
   <v>       0.04166667      -0.35714286       0.20000000 </v>
   <v>       0.08333333      -0.35714286       0.20000000 </v>
   <v>       0.12500000      -0.35714286       0.20000000 </v>
   <v>       0.16666667      -0.35714286       0.20000000 </v>
   <v>       0.20833333      -0.35714286       0.20000000 </v>
   <v>       0.25000000      -0.35714286       0.20000000 </v>
   <v>       0.29166667      -0.35714286       0.20000000 </v>
   <v>       0.33333333      -0.35714286       0.20000000 </v>
   <v>       0.37500000      -0.35714286       0.20000000 </v>
   <v>       0.41666667      -0.35714286       0.20000000 </v>
   <v>       0.45833333      -0.35714286       0.20000000 </v>
   <v>       0.50000000      -0.35714286       0.20000000 </v>
   <v>       0.00000000      -0.28571429       0.20000000 </v>
   <v>       0.04166667      -0.28571429       0.20000000 </v>
   <v>       0.08333333      -0.28571429       0.20000000 </v>
   <v>       0.12500000      -0.28571429       0.20000000 </v>
   <v>       0.16666667      -0.28571429       0.20000000 </v>
   <v>       0.20833333      -0.28571429       0.20000000 </v>
   <v>       0.25000000      -0.28571429       0.20000000 </v>
   <v>       0.29166667      -0.28571429       0.20000000 </v>
   <v>       0.33333333      -0.28571429       0.20000000 </v>
   <v>       0.37500000      -0.28571429       0.20000000 </v>
   <v>       0.41666667      -0.28571429       0.20000000 </v>
   <v>       0.45833333      -0.28571429       0.20000000 </v>
   <v>       0.50000000      -0.28571429       0.20000000 </v>
   <v>       0.00000000      -0.21428571       0.20000000 </v>
   <v>       0.04166667      -0.21428571       0.20000000 </v>
   <v>       0.08333333      -0.21428571       0.20000000 </v>
   <v>       0.12500000      -0.21428571       0.20000000 </v>
   <v>       0.16666667      -0.21428571       0.20000000 </v>
   <v>       0.20833333      -0.21428571       0.20000000 </v>
   <v>       0.25000000      -0.21428571       0.20000000 </v>
   <v>       0.29166667      -0.21428571       0.20000000 </v>
   <v>       0.33333333      -0.21428571       0.20000000 </v>
   <v>       0.37500000      -0.21428571       0.20000000 </v>
   <v>       0.41666667      -0.21428571       0.20000000 </v>
   <v>       0.45833333      -0.21428571       0.20000000 </v>
   <v>       0.50000000      -0.21428571       0.20000000 </v>
   <v>       0.00000000      -0.14285714       0.20000000 </v>
   <v>       0.04166667      -0.14285714       0.20000000 </v>
   <v>       0.08333333      -0.14285714       0.20000000 </v>
   <v>       0.12500000      -0.14285714       0.20000000 </v>
   <v>       0.16666667      -0.14285714       0.20000000 </v>
   <v>       0.20833333      -0.14285714       0.20000000 </v>
   <v>       0.25000000      -0.14285714       0.20000000 </v>
   <v>       0.29166667      -0.14285714       0.20000000 </v>
   <v>       0.33333333      -0.14285714       0.20000000 </v>
   <v>       0.37500000      -0.14285714       0.20000000 </v>
   <v>       0.41666667      -0.14285714       0.20000000 </v>
   <v>       0.45833333      -0.14285714       0.20000000 </v>
   <v>       0.50000000      -0.14285714       0.20000000 </v>
   <v>       0.00000000      -0.07142857       0.20000000 </v>
   <v>       0.04166667      -0.07142857       0.20000000 </v>
   <v>       0.08333333      -0.07142857       0.20000000 </v>
   <v>       0.12500000      -0.07142857       0.20000000 </v>
   <v>       0.16666667      -0.07142857       0.20000000 </v>
   <v>       0.20833333      -0.07142857       0.20000000 </v>
   <v>       0.25000000      -0.07142857       0.20000000 </v>
   <v>       0.29166667      -0.07142857       0.20000000 </v>
   <v>       0.33333333      -0.07142857       0.20000000 </v>
   <v>       0.37500000      -0.07142857       0.20000000 </v>
   <v>       0.41666667      -0.07142857       0.20000000 </v>
   <v>       0.45833333      -0.07142857       0.20000000 </v>
   <v>       0.50000000      -0.07142857       0.20000000 </v>
   <v>       0.00000000       0.00000000       0.30000000 </v>
   <v>       0.04166667       0.00000000       0.30000000 </v>
   <v>       0.08333333       0.00000000       0.30000000 </v>
   <v>       0.12500000       0.00000000       0.30000000 </v>
   <v>       0.16666667       0.00000000       0.30000000 </v>
   <v>       0.20833333       0.00000000       0.30000000 </v>
   <v>       0.25000000       0.00000000       0.30000000 </v>
   <v>       0.29166667       0.00000000       0.30000000 </v>
   <v>       0.33333333       0.00000000       0.30000000 </v>
   <v>       0.37500000       0.00000000       0.30000000 </v>
   <v>       0.41666667       0.00000000       0.30000000 </v>
   <v>       0.45833333       0.00000000       0.30000000 </v>
   <v>       0.50000000       0.00000000       0.30000000 </v>
   <v>       0.00000000       0.07142857       0.30000000 </v>
   <v>       0.04166667       0.07142857       0.30000000 </v>
   <v>       0.08333333       0.07142857       0.30000000 </v>
   <v>       0.12500000       0.07142857       0.30000000 </v>
   <v>       0.16666667       0.07142857       0.30000000 </v>
   <v>       0.20833333       0.07142857       0.30000000 </v>
   <v>       0.25000000       0.07142857       0.30000000 </v>
   <v>       0.29166667       0.07142857       0.30000000 </v>
   <v>       0.33333333       0.07142857       0.30000000 </v>
   <v>       0.37500000       0.07142857       0.30000000 </v>
   <v>       0.41666667       0.07142857       0.30000000 </v>
   <v>       0.45833333       0.07142857       0.30000000 </v>
   <v>       0.50000000       0.07142857       0.30000000 </v>
   <v>       0.00000000       0.14285714       0.30000000 </v>
   <v>       0.04166667       0.14285714       0.30000000 </v>
   <v>       0.08333333       0.14285714       0.30000000 </v>
   <v>       0.12500000       0.14285714       0.30000000 </v>
   <v>       0.16666667       0.14285714       0.30000000 </v>
   <v>       0.20833333       0.14285714       0.30000000 </v>
   <v>       0.25000000       0.14285714       0.30000000 </v>
   <v>       0.29166667       0.14285714       0.30000000 </v>
   <v>       0.33333333       0.14285714       0.30000000 </v>
   <v>       0.37500000       0.14285714       0.30000000 </v>
   <v>       0.41666667       0.14285714       0.30000000 </v>
   <v>       0.45833333       0.14285714       0.30000000 </v>
   <v>       0.50000000       0.14285714       0.30000000 </v>
   <v>       0.00000000       0.21428571       0.30000000 </v>
   <v>       0.04166667       0.21428571       0.30000000 </v>
   <v>       0.08333333       0.21428571       0.30000000 </v>
   <v>       0.12500000       0.21428571       0.30000000 </v>
   <v>       0.16666667       0.21428571       0.30000000 </v>
   <v>       0.20833333       0.21428571       0.30000000 </v>
   <v>       0.25000000       0.21428571       0.30000000 </v>
   <v>       0.29166667       0.21428571       0.30000000 </v>
   <v>       0.33333333       0.21428571       0.30000000 </v>
   <v>       0.37500000       0.21428571       0.30000000 </v>
   <v>       0.41666667       0.21428571       0.30000000 </v>
   <v>       0.45833333       0.21428571       0.30000000 </v>
   <v>       0.50000000       0.21428571       0.30000000 </v>
   <v>       0.00000000       0.28571429       0.30000000 </v>
   <v>       0.04166667       0.28571429       0.30000000 </v>
   <v>       0.08333333       0.28571429       0.30000000 </v>
   <v>       0.12500000       0.28571429       0.30000000 </v>
   <v>       0.16666667       0.28571429       0.30000000 </v>
   <v>       0.20833333       0.28571429       0.30000000 </v>
   <v>       0.25000000       0.28571429       0.30000000 </v>
   <v>       0.29166667       0.28571429       0.30000000 </v>
   <v>       0.33333333       0.28571429       0.30000000 </v>
   <v>       0.37500000       0.28571429       0.30000000 </v>
   <v>       0.41666667       0.28571429       0.30000000 </v>
   <v>       0.45833333       0.28571429       0.30000000 </v>
   <v>       0.50000000       0.28571429       0.30000000 </v>
   <v>       0.00000000       0.35714286       0.30000000 </v>
   <v>       0.04166667       0.35714286       0.30000000 </v>
   <v>       0.08333333       0.35714286       0.30000000 </v>
   <v>       0.12500000       0.35714286       0.30000000 </v>
   <v>       0.16666667       0.35714286       0.30000000 </v>
   <v>       0.20833333       0.35714286       0.30000000 </v>
   <v>       0.25000000       0.35714286       0.30000000 </v>
   <v>       0.29166667       0.35714286       0.30000000 </v>
   <v>       0.33333333       0.35714286       0.30000000 </v>
   <v>       0.37500000       0.35714286       0.30000000 </v>
   <v>       0.41666667       0.35714286       0.30000000 </v>
   <v>       0.45833333       0.35714286       0.30000000 </v>
   <v>       0.50000000       0.35714286       0.30000000 </v>
   <v>       0.00000000       0.42857143       0.30000000 </v>
   <v>       0.04166667       0.42857143       0.30000000 </v>
   <v>       0.08333333       0.42857143       0.30000000 </v>
   <v>       0.12500000       0.42857143       0.30000000 </v>
   <v>       0.16666667       0.42857143       0.30000000 </v>
   <v>       0.20833333       0.42857143       0.30000000 </v>
   <v>       0.25000000       0.42857143       0.30000000 </v>
   <v>       0.29166667       0.42857143       0.30000000 </v>
   <v>       0.33333333       0.42857143       0.30000000 </v>
   <v>       0.37500000       0.42857143       0.30000000 </v>
   <v>       0.41666667       0.42857143       0.30000000 </v>
   <v>       0.45833333       0.42857143       0.30000000 </v>
   <v>       0.50000000       0.42857143       0.30000000 </v>
   <v>       0.00000000       0.50000000       0.30000000 </v>
   <v>       0.04166667       0.50000000       0.30000000 </v>
   <v>       0.08333333       0.50000000       0.30000000 </v>
   <v>       0.12500000       0.50000000       0.30000000 </v>
   <v>       0.16666667       0.50000000       0.30000000 </v>
   <v>       0.20833333       0.50000000       0.30000000 </v>
   <v>       0.25000000       0.50000000       0.30000000 </v>
   <v>       0.29166667       0.50000000       0.30000000 </v>
   <v>       0.33333333       0.50000000       0.30000000 </v>
   <v>       0.37500000       0.50000000       0.30000000 </v>
   <v>       0.41666667       0.50000000       0.30000000 </v>
   <v>       0.45833333       0.50000000       0.30000000 </v>
   <v>       0.50000000       0.50000000       0.30000000 </v>
   <v>       0.00000000      -0.42857143       0.30000000 </v>
   <v>       0.04166667      -0.42857143       0.30000000 </v>
   <v>       0.08333333      -0.42857143       0.30000000 </v>
   <v>       0.12500000      -0.42857143       0.30000000 </v>
   <v>       0.16666667      -0.42857143       0.30000000 </v>
   <v>       0.20833333      -0.42857143       0.30000000 </v>
   <v>       0.25000000      -0.42857143       0.30000000 </v>
   <v>       0.29166667      -0.42857143       0.30000000 </v>
   <v>       0.33333333      -0.42857143       0.30000000 </v>
   <v>       0.37500000      -0.42857143       0.30000000 </v>
   <v>       0.41666667      -0.42857143       0.30000000 </v>
   <v>       0.45833333      -0.42857143       0.30000000 </v>
   <v>       0.50000000      -0.42857143       0.30000000 </v>
   <v>       0.00000000      -0.35714286       0.30000000 </v>
   <v>       0.04166667      -0.35714286       0.30000000 </v>
   <v>       0.08333333      -0.35714286       0.30000000 </v>
   <v>       0.12500000      -0.35714286       0.30000000 </v>
   <v>       0.16666667      -0.35714286       0.30000000 </v>
   <v>       0.20833333      -0.35714286       0.30000000 </v>
   <v>       0.25000000      -0.35714286       0.30000000 </v>
   <v>       0.29166667      -0.35714286       0.30000000 </v>
   <v>       0.33333333      -0.35714286       0.30000000 </v>
   <v>       0.37500000      -0.35714286       0.30000000 </v>
   <v>       0.41666667      -0.35714286       0.30000000 </v>
   <v>       0.45833333      -0.35714286       0.30000000 </v>
   <v>       0.50000000      -0.35714286       0.30000000 </v>
   <v>       0.00000000      -0.28571429       0.30000000 </v>
   <v>       0.04166667      -0.28571429       0.30000000 </v>
   <v>       0.08333333      -0.28571429       0.30000000 </v>
   <v>       0.12500000      -0.28571429       0.30000000 </v>
   <v>       0.16666667      -0.28571429       0.30000000 </v>
   <v>       0.20833333      -0.28571429       0.30000000 </v>
   <v>       0.25000000      -0.28571429       0.30000000 </v>
   <v>       0.29166667      -0.28571429       0.30000000 </v>
   <v>       0.33333333      -0.28571429       0.30000000 </v>
   <v>       0.37500000      -0.28571429       0.30000000 </v>
   <v>       0.41666667      -0.28571429       0.30000000 </v>
   <v>       0.45833333      -0.28571429       0.30000000 </v>
   <v>       0.50000000      -0.28571429       0.30000000 </v>
   <v>       0.00000000      -0.21428571       0.30000000 </v>
   <v>       0.04166667      -0.21428571       0.30000000 </v>
   <v>       0.08333333      -0.21428571       0.30000000 </v>
   <v>       0.12500000      -0.21428571       0.30000000 </v>
   <v>       0.16666667      -0.21428571       0.30000000 </v>
   <v>       0.20833333      -0.21428571       0.30000000 </v>
   <v>       0.25000000      -0.21428571       0.30000000 </v>
   <v>       0.29166667      -0.21428571       0.30000000 </v>
   <v>       0.33333333      -0.21428571       0.30000000 </v>
   <v>       0.37500000      -0.21428571       0.30000000 </v>
   <v>       0.41666667      -0.21428571       0.30000000 </v>
   <v>       0.45833333      -0.21428571       0.30000000 </v>
   <v>       0.50000000      -0.21428571       0.30000000 </v>
   <v>       0.00000000      -0.14285714       0.30000000 </v>
   <v>       0.04166667      -0.14285714       0.30000000 </v>
   <v>       0.08333333      -0.14285714       0.30000000 </v>
   <v>       0.12500000      -0.14285714       0.30000000 </v>
   <v>       0.16666667      -0.14285714       0.30000000 </v>
   <v>       0.20833333      -0.14285714       0.30000000 </v>
   <v>       0.25000000      -0.14285714       0.30000000 </v>
   <v>       0.29166667      -0.14285714       0.30000000 </v>
   <v>       0.33333333      -0.14285714       0.30000000 </v>
   <v>       0.37500000      -0.14285714       0.30000000 </v>
   <v>       0.41666667      -0.14285714       0.30000000 </v>
   <v>       0.45833333      -0.14285714       0.30000000 </v>
   <v>       0.50000000      -0.14285714       0.30000000 </v>
   <v>       0.00000000      -0.07142857       0.30000000 </v>
   <v>       0.04166667      -0.07142857       0.30000000 </v>
   <v>       0.08333333      -0.07142857       0.30000000 </v>
   <v>       0.12500000      -0.07142857       0.30000000 </v>
   <v>       0.16666667      -0.07142857       0.30000000 </v>
   <v>       0.20833333      -0.07142857       0.30000000 </v>
   <v>       0.25000000      -0.07142857       0.30000000 </v>
   <v>       0.29166667      -0.07142857       0.30000000 </v>
   <v>       0.33333333      -0.07142857       0.30000000 </v>
   <v>       0.37500000      -0.07142857       0.30000000 </v>
   <v>       0.41666667      -0.07142857       0.30000000 </v>
   <v>       0.45833333      -0.07142857       0.30000000 </v>
   <v>       0.50000000      -0.07142857       0.30000000 </v>
   <v>       0.00000000       0.00000000       0.40000000 </v>
   <v>       0.04166667       0.00000000       0.40000000 </v>
   <v>       0.08333333       0.00000000       0.40000000 </v>
   <v>       0.12500000       0.00000000       0.40000000 </v>
   <v>       0.16666667       0.00000000       0.40000000 </v>
   <v>       0.20833333       0.00000000       0.40000000 </v>
   <v>       0.25000000       0.00000000       0.40000000 </v>
   <v>       0.29166667       0.00000000       0.40000000 </v>
   <v>       0.33333333       0.00000000       0.40000000 </v>
   <v>       0.37500000       0.00000000       0.40000000 </v>
   <v>       0.41666667       0.00000000       0.40000000 </v>
   <v>       0.45833333       0.00000000       0.40000000 </v>
   <v>       0.50000000       0.00000000       0.40000000 </v>
   <v>       0.00000000       0.07142857       0.40000000 </v>
   <v>       0.04166667       0.07142857       0.40000000 </v>
   <v>       0.08333333       0.07142857       0.40000000 </v>
   <v>       0.12500000       0.07142857       0.40000000 </v>
   <v>       0.16666667       0.07142857       0.40000000 </v>
   <v>       0.20833333       0.07142857       0.40000000 </v>
   <v>       0.25000000       0.07142857       0.40000000 </v>
   <v>       0.29166667       0.07142857       0.40000000 </v>
   <v>       0.33333333       0.07142857       0.40000000 </v>
   <v>       0.37500000       0.07142857       0.40000000 </v>
   <v>       0.41666667       0.07142857       0.40000000 </v>
   <v>       0.45833333       0.07142857       0.40000000 </v>
   <v>       0.50000000       0.07142857       0.40000000 </v>
   <v>       0.00000000       0.14285714       0.40000000 </v>
   <v>       0.04166667       0.14285714       0.40000000 </v>
   <v>       0.08333333       0.14285714       0.40000000 </v>
   <v>       0.12500000       0.14285714       0.40000000 </v>
   <v>       0.16666667       0.14285714       0.40000000 </v>
   <v>       0.20833333       0.14285714       0.40000000 </v>
   <v>       0.25000000       0.14285714       0.40000000 </v>
   <v>       0.29166667       0.14285714       0.40000000 </v>
   <v>       0.33333333       0.14285714       0.40000000 </v>
   <v>       0.37500000       0.14285714       0.40000000 </v>
   <v>       0.41666667       0.14285714       0.40000000 </v>
   <v>       0.45833333       0.14285714       0.40000000 </v>
   <v>       0.50000000       0.14285714       0.40000000 </v>
   <v>       0.00000000       0.21428571       0.40000000 </v>
   <v>       0.04166667       0.21428571       0.40000000 </v>
   <v>       0.08333333       0.21428571       0.40000000 </v>
   <v>       0.12500000       0.21428571       0.40000000 </v>
   <v>       0.16666667       0.21428571       0.40000000 </v>
   <v>       0.20833333       0.21428571       0.40000000 </v>
   <v>       0.25000000       0.21428571       0.40000000 </v>
   <v>       0.29166667       0.21428571       0.40000000 </v>
   <v>       0.33333333       0.21428571       0.40000000 </v>
   <v>       0.37500000       0.21428571       0.40000000 </v>
   <v>       0.41666667       0.21428571       0.40000000 </v>
   <v>       0.45833333       0.21428571       0.40000000 </v>
   <v>       0.50000000       0.21428571       0.40000000 </v>
   <v>       0.00000000       0.28571429       0.40000000 </v>
   <v>       0.04166667       0.28571429       0.40000000 </v>
   <v>       0.08333333       0.28571429       0.40000000 </v>
   <v>       0.12500000       0.28571429       0.40000000 </v>
   <v>       0.16666667       0.28571429       0.40000000 </v>
   <v>       0.20833333       0.28571429       0.40000000 </v>
   <v>       0.25000000       0.28571429       0.40000000 </v>
   <v>       0.29166667       0.28571429       0.40000000 </v>
   <v>       0.33333333       0.28571429       0.40000000 </v>
   <v>       0.37500000       0.28571429       0.40000000 </v>
   <v>       0.41666667       0.28571429       0.40000000 </v>
   <v>       0.45833333       0.28571429       0.40000000 </v>
   <v>       0.50000000       0.28571429       0.40000000 </v>
   <v>       0.00000000       0.35714286       0.40000000 </v>
   <v>       0.04166667       0.35714286       0.40000000 </v>
   <v>       0.08333333       0.35714286       0.40000000 </v>
   <v>       0.12500000       0.35714286       0.40000000 </v>
   <v>       0.16666667       0.35714286       0.40000000 </v>
   <v>       0.20833333       0.35714286       0.40000000 </v>
   <v>       0.25000000       0.35714286       0.40000000 </v>
   <v>       0.29166667       0.35714286       0.40000000 </v>
   <v>       0.33333333       0.35714286       0.40000000 </v>
   <v>       0.37500000       0.35714286       0.40000000 </v>
   <v>       0.41666667       0.35714286       0.40000000 </v>
   <v>       0.45833333       0.35714286       0.40000000 </v>
   <v>       0.50000000       0.35714286       0.40000000 </v>
   <v>       0.00000000       0.42857143       0.40000000 </v>
   <v>       0.04166667       0.42857143       0.40000000 </v>
   <v>       0.08333333       0.42857143       0.40000000 </v>
   <v>       0.12500000       0.42857143       0.40000000 </v>
   <v>       0.16666667       0.42857143       0.40000000 </v>
   <v>       0.20833333       0.42857143       0.40000000 </v>
   <v>       0.25000000       0.42857143       0.40000000 </v>
   <v>       0.29166667       0.42857143       0.40000000 </v>
   <v>       0.33333333       0.42857143       0.40000000 </v>
   <v>       0.37500000       0.42857143       0.40000000 </v>
   <v>       0.41666667       0.42857143       0.40000000 </v>
   <v>       0.45833333       0.42857143       0.40000000 </v>
   <v>       0.50000000       0.42857143       0.40000000 </v>
   <v>       0.00000000       0.50000000       0.40000000 </v>
   <v>       0.04166667       0.50000000       0.40000000 </v>
   <v>       0.08333333       0.50000000       0.40000000 </v>
   <v>       0.12500000       0.50000000       0.40000000 </v>
   <v>       0.16666667       0.50000000       0.40000000 </v>
   <v>       0.20833333       0.50000000       0.40000000 </v>
   <v>       0.25000000       0.50000000       0.40000000 </v>
   <v>       0.29166667       0.50000000       0.40000000 </v>
   <v>       0.33333333       0.50000000       0.40000000 </v>
   <v>       0.37500000       0.50000000       0.40000000 </v>
   <v>       0.41666667       0.50000000       0.40000000 </v>
   <v>       0.45833333       0.50000000       0.40000000 </v>
   <v>       0.50000000       0.50000000       0.40000000 </v>
   <v>       0.00000000      -0.42857143       0.40000000 </v>
   <v>       0.04166667      -0.42857143       0.40000000 </v>
   <v>       0.08333333      -0.42857143       0.40000000 </v>
   <v>       0.12500000      -0.42857143       0.40000000 </v>
   <v>       0.16666667      -0.42857143       0.40000000 </v>
   <v>       0.20833333      -0.42857143       0.40000000 </v>
   <v>       0.25000000      -0.42857143       0.40000000 </v>
   <v>       0.29166667      -0.42857143       0.40000000 </v>
   <v>       0.33333333      -0.42857143       0.40000000 </v>
   <v>       0.37500000      -0.42857143       0.40000000 </v>
   <v>       0.41666667      -0.42857143       0.40000000 </v>
   <v>       0.45833333      -0.42857143       0.40000000 </v>
   <v>       0.50000000      -0.42857143       0.40000000 </v>
   <v>       0.00000000      -0.35714286       0.40000000 </v>
   <v>       0.04166667      -0.35714286       0.40000000 </v>
   <v>       0.08333333      -0.35714286       0.40000000 </v>
   <v>       0.12500000      -0.35714286       0.40000000 </v>
   <v>       0.16666667      -0.35714286       0.40000000 </v>
   <v>       0.20833333      -0.35714286       0.40000000 </v>
   <v>       0.25000000      -0.35714286       0.40000000 </v>
   <v>       0.29166667      -0.35714286       0.40000000 </v>
   <v>       0.33333333      -0.35714286       0.40000000 </v>
   <v>       0.37500000      -0.35714286       0.40000000 </v>
   <v>       0.41666667      -0.35714286       0.40000000 </v>
   <v>       0.45833333      -0.35714286       0.40000000 </v>
   <v>       0.50000000      -0.35714286       0.40000000 </v>
   <v>       0.00000000      -0.28571429       0.40000000 </v>
   <v>       0.04166667      -0.28571429       0.40000000 </v>
   <v>       0.08333333      -0.28571429       0.40000000 </v>
   <v>       0.12500000      -0.28571429       0.40000000 </v>
   <v>       0.16666667      -0.28571429       0.40000000 </v>
   <v>       0.20833333      -0.28571429       0.40000000 </v>
   <v>       0.25000000      -0.28571429       0.40000000 </v>
   <v>       0.29166667      -0.28571429       0.40000000 </v>
   <v>       0.33333333      -0.28571429       0.40000000 </v>
   <v>       0.37500000      -0.28571429       0.40000000 </v>
   <v>       0.41666667      -0.28571429       0.40000000 </v>
   <v>       0.45833333      -0.28571429       0.40000000 </v>
   <v>       0.50000000      -0.28571429       0.40000000 </v>
   <v>       0.00000000      -0.21428571       0.40000000 </v>
   <v>       0.04166667      -0.21428571       0.40000000 </v>
   <v>       0.08333333      -0.21428571       0.40000000 </v>
   <v>       0.12500000      -0.21428571       0.40000000 </v>
   <v>       0.16666667      -0.21428571       0.40000000 </v>
   <v>       0.20833333      -0.21428571       0.40000000 </v>
   <v>       0.25000000      -0.21428571       0.40000000 </v>
   <v>       0.29166667      -0.21428571       0.40000000 </v>
   <v>       0.33333333      -0.21428571       0.40000000 </v>
   <v>       0.37500000      -0.21428571       0.40000000 </v>
   <v>       0.41666667      -0.21428571       0.40000000 </v>
   <v>       0.45833333      -0.21428571       0.40000000 </v>
   <v>       0.50000000      -0.21428571       0.40000000 </v>
   <v>       0.00000000      -0.14285714       0.40000000 </v>
   <v>       0.04166667      -0.14285714       0.40000000 </v>
   <v>       0.08333333      -0.14285714       0.40000000 </v>
   <v>       0.12500000      -0.14285714       0.40000000 </v>
   <v>       0.16666667      -0.14285714       0.40000000 </v>
   <v>       0.20833333      -0.14285714       0.40000000 </v>
   <v>       0.25000000      -0.14285714       0.40000000 </v>
   <v>       0.29166667      -0.14285714       0.40000000 </v>
   <v>       0.33333333      -0.14285714       0.40000000 </v>
   <v>       0.37500000      -0.14285714       0.40000000 </v>
   <v>       0.41666667      -0.14285714       0.40000000 </v>
   <v>       0.45833333      -0.14285714       0.40000000 </v>
   <v>       0.50000000      -0.14285714       0.40000000 </v>
   <v>       0.00000000      -0.07142857       0.40000000 </v>
   <v>       0.04166667      -0.07142857       0.40000000 </v>
   <v>       0.08333333      -0.07142857       0.40000000 </v>
   <v>       0.12500000      -0.07142857       0.40000000 </v>
   <v>       0.16666667      -0.07142857       0.40000000 </v>
   <v>       0.20833333      -0.07142857       0.40000000 </v>
   <v>       0.25000000      -0.07142857       0.40000000 </v>
   <v>       0.29166667      -0.07142857       0.40000000 </v>
   <v>       0.33333333      -0.07142857       0.40000000 </v>
   <v>       0.37500000      -0.07142857       0.40000000 </v>
   <v>       0.41666667      -0.07142857       0.40000000 </v>
   <v>       0.45833333      -0.07142857       0.40000000 </v>
   <v>       0.50000000      -0.07142857       0.40000000 </v>
   <v>       0.00000000       0.00000000       0.50000000 </v>
   <v>       0.04166667       0.00000000       0.50000000 </v>
   <v>       0.08333333       0.00000000       0.50000000 </v>
   <v>       0.12500000       0.00000000       0.50000000 </v>
   <v>       0.16666667       0.00000000       0.50000000 </v>
   <v>       0.20833333       0.00000000       0.50000000 </v>
   <v>       0.25000000       0.00000000       0.50000000 </v>
   <v>       0.29166667       0.00000000       0.50000000 </v>
   <v>       0.33333333       0.00000000       0.50000000 </v>
   <v>       0.37500000       0.00000000       0.50000000 </v>
   <v>       0.41666667       0.00000000       0.50000000 </v>
   <v>       0.45833333       0.00000000       0.50000000 </v>
   <v>       0.50000000       0.00000000       0.50000000 </v>
   <v>       0.00000000       0.07142857       0.50000000 </v>
   <v>       0.04166667       0.07142857       0.50000000 </v>
   <v>       0.08333333       0.07142857       0.50000000 </v>
   <v>       0.12500000       0.07142857       0.50000000 </v>
   <v>       0.16666667       0.07142857       0.50000000 </v>
   <v>       0.20833333       0.07142857       0.50000000 </v>
   <v>       0.25000000       0.07142857       0.50000000 </v>
   <v>       0.29166667       0.07142857       0.50000000 </v>
   <v>       0.33333333       0.07142857       0.50000000 </v>
   <v>       0.37500000       0.07142857       0.50000000 </v>
   <v>       0.41666667       0.07142857       0.50000000 </v>
   <v>       0.45833333       0.07142857       0.50000000 </v>
   <v>       0.50000000       0.07142857       0.50000000 </v>
   <v>       0.00000000       0.14285714       0.50000000 </v>
   <v>       0.04166667       0.14285714       0.50000000 </v>
   <v>       0.08333333       0.14285714       0.50000000 </v>
   <v>       0.12500000       0.14285714       0.50000000 </v>
   <v>       0.16666667       0.14285714       0.50000000 </v>
   <v>       0.20833333       0.14285714       0.50000000 </v>
   <v>       0.25000000       0.14285714       0.50000000 </v>
   <v>       0.29166667       0.14285714       0.50000000 </v>
   <v>       0.33333333       0.14285714       0.50000000 </v>
   <v>       0.37500000       0.14285714       0.50000000 </v>
   <v>       0.41666667       0.14285714       0.50000000 </v>
   <v>       0.45833333       0.14285714       0.50000000 </v>
   <v>       0.50000000       0.14285714       0.50000000 </v>
   <v>       0.00000000       0.21428571       0.50000000 </v>
   <v>       0.04166667       0.21428571       0.50000000 </v>
   <v>       0.08333333       0.21428571       0.50000000 </v>
   <v>       0.12500000       0.21428571       0.50000000 </v>
   <v>       0.16666667       0.21428571       0.50000000 </v>
   <v>       0.20833333       0.21428571       0.50000000 </v>
   <v>       0.25000000       0.21428571       0.50000000 </v>
   <v>       0.29166667       0.21428571       0.50000000 </v>
   <v>       0.33333333       0.21428571       0.50000000 </v>
   <v>       0.37500000       0.21428571       0.50000000 </v>
   <v>       0.41666667       0.21428571       0.50000000 </v>
   <v>       0.45833333       0.21428571       0.50000000 </v>
   <v>       0.50000000       0.21428571       0.50000000 </v>
   <v>       0.00000000       0.28571429       0.50000000 </v>
   <v>       0.04166667       0.28571429       0.50000000 </v>
   <v>       0.08333333       0.28571429       0.50000000 </v>
   <v>       0.12500000       0.28571429       0.50000000 </v>
   <v>       0.16666667       0.28571429       0.50000000 </v>
   <v>       0.20833333       0.28571429       0.50000000 </v>
   <v>       0.25000000       0.28571429       0.50000000 </v>
   <v>       0.29166667       0.28571429       0.50000000 </v>
   <v>       0.33333333       0.28571429       0.50000000 </v>
   <v>       0.37500000       0.28571429       0.50000000 </v>
   <v>       0.41666667       0.28571429       0.50000000 </v>
   <v>       0.45833333       0.28571429       0.50000000 </v>
   <v>       0.50000000       0.28571429       0.50000000 </v>
   <v>       0.00000000       0.35714286       0.50000000 </v>
   <v>       0.04166667       0.35714286       0.50000000 </v>
   <v>       0.08333333       0.35714286       0.50000000 </v>
   <v>       0.12500000       0.35714286       0.50000000 </v>
   <v>       0.16666667       0.35714286       0.50000000 </v>
   <v>       0.20833333       0.35714286       0.50000000 </v>
   <v>       0.25000000       0.35714286       0.50000000 </v>
   <v>       0.29166667       0.35714286       0.50000000 </v>
   <v>       0.33333333       0.35714286       0.50000000 </v>
   <v>       0.37500000       0.35714286       0.50000000 </v>
   <v>       0.41666667       0.35714286       0.50000000 </v>
   <v>       0.45833333       0.35714286       0.50000000 </v>
   <v>       0.50000000       0.35714286       0.50000000 </v>
   <v>       0.00000000       0.42857143       0.50000000 </v>
   <v>       0.04166667       0.42857143       0.50000000 </v>
   <v>       0.08333333       0.42857143       0.50000000 </v>
   <v>       0.12500000       0.42857143       0.50000000 </v>
   <v>       0.16666667       0.42857143       0.50000000 </v>
   <v>       0.20833333       0.42857143       0.50000000 </v>
   <v>       0.25000000       0.42857143       0.50000000 </v>
   <v>       0.29166667       0.42857143       0.50000000 </v>
   <v>       0.33333333       0.42857143       0.50000000 </v>
   <v>       0.37500000       0.42857143       0.50000000 </v>
   <v>       0.41666667       0.42857143       0.50000000 </v>
   <v>       0.45833333       0.42857143       0.50000000 </v>
   <v>       0.50000000       0.42857143       0.50000000 </v>
   <v>       0.00000000       0.50000000       0.50000000 </v>
   <v>       0.04166667       0.50000000       0.50000000 </v>
   <v>       0.08333333       0.50000000       0.50000000 </v>
   <v>       0.12500000       0.50000000       0.50000000 </v>
   <v>       0.16666667       0.50000000       0.50000000 </v>
   <v>       0.20833333       0.50000000       0.50000000 </v>
   <v>       0.25000000       0.50000000       0.50000000 </v>
   <v>       0.29166667       0.50000000       0.50000000 </v>
   <v>       0.33333333       0.50000000       0.50000000 </v>
   <v>       0.37500000       0.50000000       0.50000000 </v>
   <v>       0.41666667       0.50000000       0.50000000 </v>
   <v>       0.45833333       0.50000000       0.50000000 </v>
   <v>       0.50000000       0.50000000       0.50000000 </v>
  </varray>
  <varray name="weights" >
   <v>       0.00029762 </v>
   <v>       0.00059524 </v>
   <v>       0.00059524 </v>
   <v>       0.00059524 </v>
   <v>       0.00059524 </v>
   <v>       0.00059524 </v>
   <v>       0.00059524 </v>
   <v>       0.00059524 </v>
   <v>       0.00059524 </v>
   <v>       0.00059524 </v>
   <v>       0.00059524 </v>
   <v>       0.00059524 </v>
   <v>       0.00029762 </v>
   <v>       0.00059524 </v>
   <v>       0.00119048 </v>
   <v>       0.00119048 </v>
   <v>       0.00119048 </v>
   <v>       0.00119048 </v>
   <v>       0.00119048 </v>
   <v>       0.00119048 </v>
   <v>       0.00119048 </v>
   <v>       0.00119048 </v>
   <v>       0.00119048 </v>
   <v>       0.00119048 </v>
   <v>       0.00119048 </v>
   <v>       0.00059524 </v>
   <v>       0.00059524 </v>
   <v>       0.00119048 </v>
   <v>       0.00119048 </v>
   <v>       0.00119048 </v>
   <v>       0.00119048 </v>
   <v>       0.00119048 </v>
   <v>       0.00119048 </v>
   <v>       0.00119048 </v>
   <v>       0.00119048 </v>
   <v>       0.00119048 </v>
   <v>       0.00119048 </v>
   <v>       0.00119048 </v>
   <v>       0.00059524 </v>
   <v>       0.00059524 </v>
   <v>       0.00119048 </v>
   <v>       0.00119048 </v>
   <v>       0.00119048 </v>
   <v>       0.00119048 </v>
   <v>       0.00119048 </v>
   <v>       0.00119048 </v>
   <v>       0.00119048 </v>
   <v>       0.00119048 </v>
   <v>       0.00119048 </v>
   <v>       0.00119048 </v>
   <v>       0.00119048 </v>
   <v>       0.00059524 </v>
   <v>       0.00059524 </v>
   <v>       0.00119048 </v>
   <v>       0.00119048 </v>
   <v>       0.00119048 </v>
   <v>       0.00119048 </v>
   <v>       0.00119048 </v>
   <v>       0.00119048 </v>
   <v>       0.00119048 </v>
   <v>       0.00119048 </v>
   <v>       0.00119048 </v>
   <v>       0.00119048 </v>
   <v>       0.00119048 </v>
   <v>       0.00059524 </v>
   <v>       0.00059524 </v>
   <v>       0.00119048 </v>
   <v>       0.00119048 </v>
   <v>       0.00119048 </v>
   <v>       0.00119048 </v>
   <v>       0.00119048 </v>
   <v>       0.00119048 </v>
   <v>       0.00119048 </v>
   <v>       0.00119048 </v>
   <v>       0.00119048 </v>
   <v>       0.00119048 </v>
   <v>       0.00119048 </v>
   <v>       0.00059524 </v>
   <v>       0.00059524 </v>
   <v>       0.00119048 </v>
   <v>       0.00119048 </v>
   <v>       0.00119048 </v>
   <v>       0.00119048 </v>
   <v>       0.00119048 </v>
   <v>       0.00119048 </v>
   <v>       0.00119048 </v>
   <v>       0.00119048 </v>
   <v>       0.00119048 </v>
   <v>       0.00119048 </v>
   <v>       0.00119048 </v>
   <v>       0.00059524 </v>
   <v>       0.00029762 </v>
   <v>       0.00059524 </v>
   <v>       0.00059524 </v>
   <v>       0.00059524 </v>
   <v>       0.00059524 </v>
   <v>       0.00059524 </v>
   <v>       0.00059524 </v>
   <v>       0.00059524 </v>
   <v>       0.00059524 </v>
   <v>       0.00059524 </v>
   <v>       0.00059524 </v>
   <v>       0.00059524 </v>
   <v>       0.00029762 </v>
   <v>       0.00059524 </v>
   <v>       0.00119048 </v>
   <v>       0.00119048 </v>
   <v>       0.00119048 </v>
   <v>       0.00119048 </v>
   <v>       0.00119048 </v>
   <v>       0.00119048 </v>
   <v>       0.00119048 </v>
   <v>       0.00119048 </v>
   <v>       0.00119048 </v>
   <v>       0.00119048 </v>
   <v>       0.00119048 </v>
   <v>       0.00059524 </v>
   <v>       0.00059524 </v>
   <v>       0.00119048 </v>
   <v>       0.00119048 </v>
   <v>       0.00119048 </v>
   <v>       0.00119048 </v>
   <v>       0.00119048 </v>
   <v>       0.00119048 </v>
   <v>       0.00119048 </v>
   <v>       0.00119048 </v>
   <v>       0.00119048 </v>
   <v>       0.00119048 </v>
   <v>       0.00119048 </v>
   <v>       0.00059524 </v>
   <v>       0.00059524 </v>
   <v>       0.00119048 </v>
   <v>       0.00119048 </v>
   <v>       0.00119048 </v>
   <v>       0.00119048 </v>
   <v>       0.00119048 </v>
   <v>       0.00119048 </v>
   <v>       0.00119048 </v>
   <v>       0.00119048 </v>
   <v>       0.00119048 </v>
   <v>       0.00119048 </v>
   <v>       0.00119048 </v>
   <v>       0.00059524 </v>
   <v>       0.00059524 </v>
   <v>       0.00119048 </v>
   <v>       0.00119048 </v>
   <v>       0.00119048 </v>
   <v>       0.00119048 </v>
   <v>       0.00119048 </v>
   <v>       0.00119048 </v>
   <v>       0.00119048 </v>
   <v>       0.00119048 </v>
   <v>       0.00119048 </v>
   <v>       0.00119048 </v>
   <v>       0.00119048 </v>
   <v>       0.00059524 </v>
   <v>       0.00059524 </v>
   <v>       0.00119048 </v>
   <v>       0.00119048 </v>
   <v>       0.00119048 </v>
   <v>       0.00119048 </v>
   <v>       0.00119048 </v>
   <v>       0.00119048 </v>
   <v>       0.00119048 </v>
   <v>       0.00119048 </v>
   <v>       0.00119048 </v>
   <v>       0.00119048 </v>
   <v>       0.00119048 </v>
   <v>       0.00059524 </v>
   <v>       0.00059524 </v>
   <v>       0.00119048 </v>
   <v>       0.00119048 </v>
   <v>       0.00119048 </v>
   <v>       0.00119048 </v>
   <v>       0.00119048 </v>
   <v>       0.00119048 </v>
   <v>       0.00119048 </v>
   <v>       0.00119048 </v>
   <v>       0.00119048 </v>
   <v>       0.00119048 </v>
   <v>       0.00119048 </v>
   <v>       0.00059524 </v>
   <v>       0.00059524 </v>
   <v>       0.00119048 </v>
   <v>       0.00119048 </v>
   <v>       0.00119048 </v>
   <v>       0.00119048 </v>
   <v>       0.00119048 </v>
   <v>       0.00119048 </v>
   <v>       0.00119048 </v>
   <v>       0.00119048 </v>
   <v>       0.00119048 </v>
   <v>       0.00119048 </v>
   <v>       0.00119048 </v>
   <v>       0.00059524 </v>
   <v>       0.00059524 </v>
   <v>       0.00119048 </v>
   <v>       0.00119048 </v>
   <v>       0.00119048 </v>
   <v>       0.00119048 </v>
   <v>       0.00119048 </v>
   <v>       0.00119048 </v>
   <v>       0.00119048 </v>
   <v>       0.00119048 </v>
   <v>       0.00119048 </v>
   <v>       0.00119048 </v>
   <v>       0.00119048 </v>
   <v>       0.00059524 </v>
   <v>       0.00059524 </v>
   <v>       0.00119048 </v>
   <v>       0.00119048 </v>
   <v>       0.00119048 </v>
   <v>       0.00119048 </v>
   <v>       0.00119048 </v>
   <v>       0.00119048 </v>
   <v>       0.00119048 </v>
   <v>       0.00119048 </v>
   <v>       0.00119048 </v>
   <v>       0.00119048 </v>
   <v>       0.00119048 </v>
   <v>       0.00059524 </v>
   <v>       0.00059524 </v>
   <v>       0.00119048 </v>
   <v>       0.00119048 </v>
   <v>       0.00119048 </v>
   <v>       0.00119048 </v>
   <v>       0.00119048 </v>
   <v>       0.00119048 </v>
   <v>       0.00119048 </v>
   <v>       0.00119048 </v>
   <v>       0.00119048 </v>
   <v>       0.00119048 </v>
   <v>       0.00119048 </v>
   <v>       0.00059524 </v>
   <v>       0.00059524 </v>
   <v>       0.00119048 </v>
   <v>       0.00119048 </v>
   <v>       0.00119048 </v>
   <v>       0.00119048 </v>
   <v>       0.00119048 </v>
   <v>       0.00119048 </v>
   <v>       0.00119048 </v>
   <v>       0.00119048 </v>
   <v>       0.00119048 </v>
   <v>       0.00119048 </v>
   <v>       0.00119048 </v>
   <v>       0.00059524 </v>
   <v>       0.00059524 </v>
   <v>       0.00119048 </v>
   <v>       0.00119048 </v>
   <v>       0.00119048 </v>
   <v>       0.00119048 </v>
   <v>       0.00119048 </v>
   <v>       0.00119048 </v>
   <v>       0.00119048 </v>
   <v>       0.00119048 </v>
   <v>       0.00119048 </v>
   <v>       0.00119048 </v>
   <v>       0.00119048 </v>
   <v>       0.00059524 </v>
   <v>       0.00059524 </v>
   <v>       0.00119048 </v>
   <v>       0.00119048 </v>
   <v>       0.00119048 </v>
   <v>       0.00119048 </v>
   <v>       0.00119048 </v>
   <v>       0.00119048 </v>
   <v>       0.00119048 </v>
   <v>       0.00119048 </v>
   <v>       0.00119048 </v>
   <v>       0.00119048 </v>
   <v>       0.00119048 </v>
   <v>       0.00059524 </v>
   <v>       0.00059524 </v>
   <v>       0.00119048 </v>
   <v>       0.00119048 </v>
   <v>       0.00119048 </v>
   <v>       0.00119048 </v>
   <v>       0.00119048 </v>
   <v>       0.00119048 </v>
   <v>       0.00119048 </v>
   <v>       0.00119048 </v>
   <v>       0.00119048 </v>
   <v>       0.00119048 </v>
   <v>       0.00119048 </v>
   <v>       0.00059524 </v>
   <v>       0.00059524 </v>
   <v>       0.00119048 </v>
   <v>       0.00119048 </v>
   <v>       0.00119048 </v>
   <v>       0.00119048 </v>
   <v>       0.00119048 </v>
   <v>       0.00119048 </v>
   <v>       0.00119048 </v>
   <v>       0.00119048 </v>
   <v>       0.00119048 </v>
   <v>       0.00119048 </v>
   <v>       0.00119048 </v>
   <v>       0.00059524 </v>
   <v>       0.00059524 </v>
   <v>       0.00119048 </v>
   <v>       0.00119048 </v>
   <v>       0.00119048 </v>
   <v>       0.00119048 </v>
   <v>       0.00119048 </v>
   <v>       0.00119048 </v>
   <v>       0.00119048 </v>
   <v>       0.00119048 </v>
   <v>       0.00119048 </v>
   <v>       0.00119048 </v>
   <v>       0.00119048 </v>
   <v>       0.00059524 </v>
   <v>       0.00059524 </v>
   <v>       0.00119048 </v>
   <v>       0.00119048 </v>
   <v>       0.00119048 </v>
   <v>       0.00119048 </v>
   <v>       0.00119048 </v>
   <v>       0.00119048 </v>
   <v>       0.00119048 </v>
   <v>       0.00119048 </v>
   <v>       0.00119048 </v>
   <v>       0.00119048 </v>
   <v>       0.00119048 </v>
   <v>       0.00059524 </v>
   <v>       0.00059524 </v>
   <v>       0.00119048 </v>
   <v>       0.00119048 </v>
   <v>       0.00119048 </v>
   <v>       0.00119048 </v>
   <v>       0.00119048 </v>
   <v>       0.00119048 </v>
   <v>       0.00119048 </v>
   <v>       0.00119048 </v>
   <v>       0.00119048 </v>
   <v>       0.00119048 </v>
   <v>       0.00119048 </v>
   <v>       0.00059524 </v>
   <v>       0.00059524 </v>
   <v>       0.00119048 </v>
   <v>       0.00119048 </v>
   <v>       0.00119048 </v>
   <v>       0.00119048 </v>
   <v>       0.00119048 </v>
   <v>       0.00119048 </v>
   <v>       0.00119048 </v>
   <v>       0.00119048 </v>
   <v>       0.00119048 </v>
   <v>       0.00119048 </v>
   <v>       0.00119048 </v>
   <v>       0.00059524 </v>
   <v>       0.00059524 </v>
   <v>       0.00119048 </v>
   <v>       0.00119048 </v>
   <v>       0.00119048 </v>
   <v>       0.00119048 </v>
   <v>       0.00119048 </v>
   <v>       0.00119048 </v>
   <v>       0.00119048 </v>
   <v>       0.00119048 </v>
   <v>       0.00119048 </v>
   <v>       0.00119048 </v>
   <v>       0.00119048 </v>
   <v>       0.00059524 </v>
   <v>       0.00059524 </v>
   <v>       0.00119048 </v>
   <v>       0.00119048 </v>
   <v>       0.00119048 </v>
   <v>       0.00119048 </v>
   <v>       0.00119048 </v>
   <v>       0.00119048 </v>
   <v>       0.00119048 </v>
   <v>       0.00119048 </v>
   <v>       0.00119048 </v>
   <v>       0.00119048 </v>
   <v>       0.00119048 </v>
   <v>       0.00059524 </v>
   <v>       0.00059524 </v>
   <v>       0.00119048 </v>
   <v>       0.00119048 </v>
   <v>       0.00119048 </v>
   <v>       0.00119048 </v>
   <v>       0.00119048 </v>
   <v>       0.00119048 </v>
   <v>       0.00119048 </v>
   <v>       0.00119048 </v>
   <v>       0.00119048 </v>
   <v>       0.00119048 </v>
   <v>       0.00119048 </v>
   <v>       0.00059524 </v>
   <v>       0.00059524 </v>
   <v>       0.00119048 </v>
   <v>       0.00119048 </v>
   <v>       0.00119048 </v>
   <v>       0.00119048 </v>
   <v>       0.00119048 </v>
   <v>       0.00119048 </v>
   <v>       0.00119048 </v>
   <v>       0.00119048 </v>
   <v>       0.00119048 </v>
   <v>       0.00119048 </v>
   <v>       0.00119048 </v>
   <v>       0.00059524 </v>
   <v>       0.00059524 </v>
   <v>       0.00119048 </v>
   <v>       0.00119048 </v>
   <v>       0.00119048 </v>
   <v>       0.00119048 </v>
   <v>       0.00119048 </v>
   <v>       0.00119048 </v>
   <v>       0.00119048 </v>
   <v>       0.00119048 </v>
   <v>       0.00119048 </v>
   <v>       0.00119048 </v>
   <v>       0.00119048 </v>
   <v>       0.00059524 </v>
   <v>       0.00059524 </v>
   <v>       0.00119048 </v>
   <v>       0.00119048 </v>
   <v>       0.00119048 </v>
   <v>       0.00119048 </v>
   <v>       0.00119048 </v>
   <v>       0.00119048 </v>
   <v>       0.00119048 </v>
   <v>       0.00119048 </v>
   <v>       0.00119048 </v>
   <v>       0.00119048 </v>
   <v>       0.00119048 </v>
   <v>       0.00059524 </v>
   <v>       0.00059524 </v>
   <v>       0.00119048 </v>
   <v>       0.00119048 </v>
   <v>       0.00119048 </v>
   <v>       0.00119048 </v>
   <v>       0.00119048 </v>
   <v>       0.00119048 </v>
   <v>       0.00119048 </v>
   <v>       0.00119048 </v>
   <v>       0.00119048 </v>
   <v>       0.00119048 </v>
   <v>       0.00119048 </v>
   <v>       0.00059524 </v>
   <v>       0.00059524 </v>
   <v>       0.00119048 </v>
   <v>       0.00119048 </v>
   <v>       0.00119048 </v>
   <v>       0.00119048 </v>
   <v>       0.00119048 </v>
   <v>       0.00119048 </v>
   <v>       0.00119048 </v>
   <v>       0.00119048 </v>
   <v>       0.00119048 </v>
   <v>       0.00119048 </v>
   <v>       0.00119048 </v>
   <v>       0.00059524 </v>
   <v>       0.00059524 </v>
   <v>       0.00119048 </v>
   <v>       0.00119048 </v>
   <v>       0.00119048 </v>
   <v>       0.00119048 </v>
   <v>       0.00119048 </v>
   <v>       0.00119048 </v>
   <v>       0.00119048 </v>
   <v>       0.00119048 </v>
   <v>       0.00119048 </v>
   <v>       0.00119048 </v>
   <v>       0.00119048 </v>
   <v>       0.00059524 </v>
   <v>       0.00059524 </v>
   <v>       0.00119048 </v>
   <v>       0.00119048 </v>
   <v>       0.00119048 </v>
   <v>       0.00119048 </v>
   <v>       0.00119048 </v>
   <v>       0.00119048 </v>
   <v>       0.00119048 </v>
   <v>       0.00119048 </v>
   <v>       0.00119048 </v>
   <v>       0.00119048 </v>
   <v>       0.00119048 </v>
   <v>       0.00059524 </v>
   <v>       0.00059524 </v>
   <v>       0.00119048 </v>
   <v>       0.00119048 </v>
   <v>       0.00119048 </v>
   <v>       0.00119048 </v>
   <v>       0.00119048 </v>
   <v>       0.00119048 </v>
   <v>       0.00119048 </v>
   <v>       0.00119048 </v>
   <v>       0.00119048 </v>
   <v>       0.00119048 </v>
   <v>       0.00119048 </v>
   <v>       0.00059524 </v>
   <v>       0.00059524 </v>
   <v>       0.00119048 </v>
   <v>       0.00119048 </v>
   <v>       0.00119048 </v>
   <v>       0.00119048 </v>
   <v>       0.00119048 </v>
   <v>       0.00119048 </v>
   <v>       0.00119048 </v>
   <v>       0.00119048 </v>
   <v>       0.00119048 </v>
   <v>       0.00119048 </v>
   <v>       0.00119048 </v>
   <v>       0.00059524 </v>
   <v>       0.00059524 </v>
   <v>       0.00119048 </v>
   <v>       0.00119048 </v>
   <v>       0.00119048 </v>
   <v>       0.00119048 </v>
   <v>       0.00119048 </v>
   <v>       0.00119048 </v>
   <v>       0.00119048 </v>
   <v>       0.00119048 </v>
   <v>       0.00119048 </v>
   <v>       0.00119048 </v>
   <v>       0.00119048 </v>
   <v>       0.00059524 </v>
   <v>       0.00059524 </v>
   <v>       0.00119048 </v>
   <v>       0.00119048 </v>
   <v>       0.00119048 </v>
   <v>       0.00119048 </v>
   <v>       0.00119048 </v>
   <v>       0.00119048 </v>
   <v>       0.00119048 </v>
   <v>       0.00119048 </v>
   <v>       0.00119048 </v>
   <v>       0.00119048 </v>
   <v>       0.00119048 </v>
   <v>       0.00059524 </v>
   <v>       0.00059524 </v>
   <v>       0.00119048 </v>
   <v>       0.00119048 </v>
   <v>       0.00119048 </v>
   <v>       0.00119048 </v>
   <v>       0.00119048 </v>
   <v>       0.00119048 </v>
   <v>       0.00119048 </v>
   <v>       0.00119048 </v>
   <v>       0.00119048 </v>
   <v>       0.00119048 </v>
   <v>       0.00119048 </v>
   <v>       0.00059524 </v>
   <v>       0.00059524 </v>
   <v>       0.00119048 </v>
   <v>       0.00119048 </v>
   <v>       0.00119048 </v>
   <v>       0.00119048 </v>
   <v>       0.00119048 </v>
   <v>       0.00119048 </v>
   <v>       0.00119048 </v>
   <v>       0.00119048 </v>
   <v>       0.00119048 </v>
   <v>       0.00119048 </v>
   <v>       0.00119048 </v>
   <v>       0.00059524 </v>
   <v>       0.00059524 </v>
   <v>       0.00119048 </v>
   <v>       0.00119048 </v>
   <v>       0.00119048 </v>
   <v>       0.00119048 </v>
   <v>       0.00119048 </v>
   <v>       0.00119048 </v>
   <v>       0.00119048 </v>
   <v>       0.00119048 </v>
   <v>       0.00119048 </v>
   <v>       0.00119048 </v>
   <v>       0.00119048 </v>
   <v>       0.00059524 </v>
   <v>       0.00059524 </v>
   <v>       0.00119048 </v>
   <v>       0.00119048 </v>
   <v>       0.00119048 </v>
   <v>       0.00119048 </v>
   <v>       0.00119048 </v>
   <v>       0.00119048 </v>
   <v>       0.00119048 </v>
   <v>       0.00119048 </v>
   <v>       0.00119048 </v>
   <v>       0.00119048 </v>
   <v>       0.00119048 </v>
   <v>       0.00059524 </v>
   <v>       0.00059524 </v>
   <v>       0.00119048 </v>
   <v>       0.00119048 </v>
   <v>       0.00119048 </v>
   <v>       0.00119048 </v>
   <v>       0.00119048 </v>
   <v>       0.00119048 </v>
   <v>       0.00119048 </v>
   <v>       0.00119048 </v>
   <v>       0.00119048 </v>
   <v>       0.00119048 </v>
   <v>       0.00119048 </v>
   <v>       0.00059524 </v>
   <v>       0.00059524 </v>
   <v>       0.00119048 </v>
   <v>       0.00119048 </v>
   <v>       0.00119048 </v>
   <v>       0.00119048 </v>
   <v>       0.00119048 </v>
   <v>       0.00119048 </v>
   <v>       0.00119048 </v>
   <v>       0.00119048 </v>
   <v>       0.00119048 </v>
   <v>       0.00119048 </v>
   <v>       0.00119048 </v>
   <v>       0.00059524 </v>
   <v>       0.00059524 </v>
   <v>       0.00119048 </v>
   <v>       0.00119048 </v>
   <v>       0.00119048 </v>
   <v>       0.00119048 </v>
   <v>       0.00119048 </v>
   <v>       0.00119048 </v>
   <v>       0.00119048 </v>
   <v>       0.00119048 </v>
   <v>       0.00119048 </v>
   <v>       0.00119048 </v>
   <v>       0.00119048 </v>
   <v>       0.00059524 </v>
   <v>       0.00059524 </v>
   <v>       0.00119048 </v>
   <v>       0.00119048 </v>
   <v>       0.00119048 </v>
   <v>       0.00119048 </v>
   <v>       0.00119048 </v>
   <v>       0.00119048 </v>
   <v>       0.00119048 </v>
   <v>       0.00119048 </v>
   <v>       0.00119048 </v>
   <v>       0.00119048 </v>
   <v>       0.00119048 </v>
   <v>       0.00059524 </v>
   <v>       0.00059524 </v>
   <v>       0.00119048 </v>
   <v>       0.00119048 </v>
   <v>       0.00119048 </v>
   <v>       0.00119048 </v>
   <v>       0.00119048 </v>
   <v>       0.00119048 </v>
   <v>       0.00119048 </v>
   <v>       0.00119048 </v>
   <v>       0.00119048 </v>
   <v>       0.00119048 </v>
   <v>       0.00119048 </v>
   <v>       0.00059524 </v>
   <v>       0.00059524 </v>
   <v>       0.00119048 </v>
   <v>       0.00119048 </v>
   <v>       0.00119048 </v>
   <v>       0.00119048 </v>
   <v>       0.00119048 </v>
   <v>       0.00119048 </v>
   <v>       0.00119048 </v>
   <v>       0.00119048 </v>
   <v>       0.00119048 </v>
   <v>       0.00119048 </v>
   <v>       0.00119048 </v>
   <v>       0.00059524 </v>
   <v>       0.00059524 </v>
[...]
       <r>    5.6020    1.0000 </r>
       <r>    5.6428    1.0000 </r>
       <r>    5.8194    1.0000 </r>
       <r>    5.9644    1.0000 </r>
       <r>    5.9858    1.0000 </r>
       <r>    6.1314    1.0000 </r>
       <r>    6.2114    1.0000 </r>
       <r>    6.3610    1.0000 </r>
       <r>    6.3804    1.0000 </r>
       <r>    7.2206    1.0000 </r>
       <r>    7.4612    1.0001 </r>
       <r>    7.9369    1.0272 </r>
       <r>    8.0637    1.0319 </r>
       <r>   11.3544    0.0000 </r>
       <r>   11.4334    0.0000 </r>
       <r>   11.8522    0.0000 </r>
       <r>   12.6185    0.0000 </r>
       <r>   13.7298    0.0000 </r>
       <r>   13.9397    0.0000 </r>
      </set>
      <set comment="kpoint 935">
       <r>    1.6788    1.0000 </r>
       <r>    1.8836    1.0000 </r>
       <r>    2.2601    1.0000 </r>
       <r>    2.3061    1.0000 </r>
       <r>    2.3621    1.0000 </r>
       <r>    2.3944    1.0000 </r>
       <r>    2.6178    1.0000 </r>
       <r>    2.6212    1.0000 </r>
       <r>    2.6998    1.0000 </r>
       <r>    2.7163    1.0000 </r>
       <r>    3.7970    1.0000 </r>
       <r>    3.8570    1.0000 </r>
       <r>    3.8892    1.0000 </r>
       <r>    3.9097    1.0000 </r>
       <r>    4.8159    1.0000 </r>
       <r>    4.9996    1.0000 </r>
       <r>    5.0204    1.0000 </r>
       <r>    5.0717    1.0000 </r>
       <r>    5.2463    1.0000 </r>
       <r>    5.4946    1.0000 </r>
       <r>    5.5675    1.0000 </r>
       <r>    5.5931    1.0000 </r>
       <r>    5.7188    1.0000 </r>
       <r>    5.8134    1.0000 </r>
       <r>    6.0450    1.0000 </r>
       <r>    6.1328    1.0000 </r>
       <r>    6.2171    1.0000 </r>
       <r>    6.2691    1.0000 </r>
       <r>    6.5017    1.0000 </r>
       <r>    6.5088    1.0000 </r>
       <r>    7.6029    1.0007 </r>
       <r>    7.7447    1.0048 </r>
       <r>    8.6442   -0.0015 </r>
       <r>    8.7965   -0.0332 </r>
       <r>   10.4233    0.0000 </r>
       <r>   10.5215    0.0000 </r>
       <r>   11.1221    0.0000 </r>
       <r>   12.1797    0.0000 </r>
       <r>   14.2231    0.0000 </r>
       <r>   14.5173    0.0000 </r>
      </set>
      <set comment="kpoint 936">
       <r>    1.6697    1.0000 </r>
       <r>    1.8711    1.0000 </r>
       <r>    2.2459    1.0000 </r>
       <r>    2.2911    1.0000 </r>
       <r>    2.3493    1.0000 </r>
       <r>    2.3781    1.0000 </r>
       <r>    2.6347    1.0000 </r>
       <r>    2.6379    1.0000 </r>
       <r>    2.6541    1.0000 </r>
       <r>    2.6789    1.0000 </r>
       <r>    3.7984    1.0000 </r>
       <r>    3.8530    1.0000 </r>
       <r>    3.8825    1.0000 </r>
       <r>    3.8969    1.0000 </r>
       <r>    4.8464    1.0000 </r>
       <r>    5.0436    1.0000 </r>
       <r>    5.0672    1.0000 </r>
       <r>    5.1473    1.0000 </r>
       <r>    5.2016    1.0000 </r>
       <r>    5.4995    1.0000 </r>
       <r>    5.5484    1.0000 </r>
       <r>    5.6055    1.0000 </r>
       <r>    5.7487    1.0000 </r>
       <r>    5.8081    1.0000 </r>
       <r>    6.0652    1.0000 </r>
       <r>    6.1450    1.0000 </r>
       <r>    6.2777    1.0000 </r>
       <r>    6.2924    1.0000 </r>
       <r>    6.5534    1.0000 </r>
       <r>    6.5535    1.0000 </r>
       <r>    7.7985    1.0088 </r>
       <r>    7.8611    1.0159 </r>
       <r>    9.3327    0.0000 </r>
       <r>    9.5726    0.0000 </r>
       <r>    9.6621    0.0000 </r>
       <r>    9.6868    0.0000 </r>
       <r>   10.8179    0.0000 </r>
       <r>   11.9933    0.0000 </r>
       <r>   14.6944    0.0000 </r>
       <r>   14.9242    0.0000 </r>
      </set>
     </set>
    </set>
   </array>
  </eigenvalues>
  <separator name="orbital magnetization" >
   <v name="MAGDIPOLOUT">      0.00000000      0.00000000      0.00000000</v>
  </separator>
  <dos>
   <i name="efermi">      8.38963006 </i>
   <total>
    <array>
     <dimension dim="1">gridpoints</dimension>
     <dimension dim="2">spin</dimension>
     <field>energy</field>
     <field>total</field>
     <field>integrated</field>
     <set>
      <set comment="spin 1">
       <r>    -3.4335     0.0000     0.0000 </r>
       <r>    -3.3507     0.0000     0.0000 </r>
       <r>    -3.2679     0.0000     0.0000 </r>
       <r>    -3.1851     0.0000     0.0000 </r>
       <r>    -3.1023     0.0000     0.0000 </r>
       <r>    -3.0194     0.0000     0.0000 </r>
       <r>    -2.9366     0.0000     0.0000 </r>
       <r>    -2.8538     0.0000     0.0000 </r>
       <r>    -2.7710     0.0000     0.0000 </r>
       <r>    -2.6882     0.0000     0.0000 </r>
       <r>    -2.6054     0.0000     0.0000 </r>
       <r>    -2.5225     0.0000     0.0000 </r>
       <r>    -2.4397     0.0000     0.0000 </r>
       <r>    -2.3569     0.0000     0.0000 </r>
       <r>    -2.2741     0.0000     0.0000 </r>
       <r>    -2.1913     0.0000     0.0000 </r>
       <r>    -2.1085     0.0000     0.0000 </r>
       <r>    -2.0256     0.0000     0.0000 </r>
       <r>    -1.9428     0.0000     0.0000 </r>
       <r>    -1.8600     0.0000     0.0000 </r>
       <r>    -1.7772     0.0000     0.0000 </r>
       <r>    -1.6944     0.0000     0.0000 </r>
       <r>    -1.6116     0.0000     0.0000 </r>
       <r>    -1.5287     0.0000     0.0000 </r>
       <r>    -1.4459     0.0000     0.0000 </r>
       <r>    -1.3631     0.0000     0.0000 </r>
       <r>    -1.2803     0.0000     0.0000 </r>
       <r>    -1.1975    -0.0001     0.0000 </r>
       <r>    -1.1147    -0.0002     0.0000 </r>
       <r>    -1.0319    -0.0007    -0.0001 </r>
       <r>    -0.9490    -0.0019    -0.0002 </r>
       <r>    -0.8662    -0.0040    -0.0006 </r>
       <r>    -0.7834    -0.0069    -0.0011 </r>
       <r>    -0.7006    -0.0086    -0.0019 </r>
       <r>    -0.6178    -0.0047    -0.0022 </r>
       <r>    -0.5350     0.0108    -0.0014 </r>
       <r>    -0.4521     0.0432     0.0022 </r>
       <r>    -0.3693     0.0932     0.0100 </r>
       <r>    -0.2865     0.1560     0.0229 </r>
       <r>    -0.2037     0.2238     0.0414 </r>
       <r>    -0.1209     0.2898     0.0654 </r>
       <r>    -0.0381     0.3509     0.0945 </r>
       <r>     0.0448     0.4065     0.1281 </r>
       <r>     0.1276     0.4558     0.1659 </r>
       <r>     0.2104     0.4968     0.2070 </r>
       <r>     0.2932     0.5274     0.2507 </r>
       <r>     0.3760     0.5487     0.2961 </r>
       <r>     0.4588     0.5648     0.3429 </r>
       <r>     0.5417     0.5826     0.3912 </r>
       <r>     0.6245     0.6087     0.4416 </r>
       <r>     0.7073     0.6483     0.4953 </r>
       <r>     0.7901     0.7014     0.5533 </r>
       <r>     0.8729     0.7617     0.6164 </r>
       <r>     0.9557     0.8196     0.6843 </r>
       <r>     1.0386     0.8695     0.7563 </r>
       <r>     1.1214     0.9150     0.8321 </r>
       <r>     1.2042     0.9673     0.9122 </r>
       <r>     1.2870     1.0400     0.9983 </r>
       <r>     1.3698     1.1487     1.0935 </r>
       <r>     1.4526     1.3152     1.2024 </r>
       <r>     1.5355     1.5684     1.3323 </r>
       <r>     1.6183     1.9321     1.4923 </r>
       <r>     1.7011     2.4088     1.6918 </r>
       <r>     1.7839     2.9772     1.9383 </r>
       <r>     1.8667     3.6138     2.2376 </r>
       <r>     1.9495     4.3251     2.5958 </r>
       <r>     2.0323     5.1655     3.0236 </r>
       <r>     2.1152     6.2216     3.5388 </r>
       <r>     2.1980     7.5588     4.1648 </r>
       <r>     2.2808     9.1502     4.9226 </r>
       <r>     2.3636    10.8334     5.8198 </r>
       <r>     2.4464    12.3414     6.8419 </r>
       <r>     2.5292    13.4073     7.9522 </r>
       <r>     2.6121    13.8813     9.1018 </r>
       <r>     2.6949    13.7798    10.2430 </r>
       <r>     2.7777    13.2436    11.3398 </r>
       <r>     2.8605    12.4609    12.3717 </r>
       <r>     2.9433    11.6297    13.3349 </r>
       <r>     3.0261    10.9616    14.2427 </r>
       <r>     3.1090    10.6653    15.1259 </r>
       <r>     3.1918    10.8680    16.0260 </r>
       <r>     3.2746    11.5247    16.9804 </r>
       <r>     3.3574    12.4099    18.0082 </r>
       <r>     3.4402    13.2285    19.1037 </r>
       <r>     3.5230    13.7780    20.2447 </r>
       <r>     3.6059    14.0621    21.4093 </r>
       <r>     3.6887    14.2982    22.5934 </r>
       <r>     3.7715    14.8201    23.8208 </r>
       <r>     3.8543    15.8986    25.1374 </r>
       <r>     3.9371    17.5294    26.5891 </r>
       <r>     4.0199    19.3035    28.1878 </r>
       <r>     4.1028    20.5135    29.8866 </r>
       <r>     4.1856    20.5322    31.5870 </r>
       <r>     4.2684    19.2418    33.1806 </r>
       <r>     4.3512    17.1574    34.6015 </r>
       <r>     4.4340    15.1100    35.8528 </r>
       <r>     4.5168    13.7425    36.9909 </r>
       <r>     4.5996    13.2149    38.0853 </r>
       <r>     4.6825    13.2726    39.1845 </r>
       <r>     4.7653    13.5243    40.3045 </r>
       <r>     4.8481    13.6947    41.4387 </r>
       <r>     4.9309    13.7211    42.5750 </r>
       <r>     5.0137    13.6849    43.7084 </r>
       <r>     5.0965    13.6604    44.8397 </r>
       <r>     5.1794    13.6196    45.9676 </r>
       <r>     5.2622    13.4783    47.0838 </r>
       <r>     5.3450    13.2226    48.1788 </r>
       <r>     5.4278    12.9667    49.2527 </r>
       <r>     5.5106    12.8842    50.3197 </r>
       <r>     5.5934    13.0919    51.4039 </r>
       <r>     5.6763    13.5891    52.5293 </r>
       <r>     5.7591    14.2597    53.7103 </r>
       <r>     5.8419    14.9018    54.9444 </r>
       <r>     5.9247    15.2761    56.2095 </r>
       <r>     6.0075    15.1816    57.4668 </r>
       <r>     6.0903    14.5206    58.6693 </r>
       <r>     6.1732    13.3047    59.7711 </r>
       <r>     6.2560    11.6208    60.7335 </r>
       <r>     6.3388     9.6120    61.5296 </r>
       <r>     6.4216     7.4859    62.1495 </r>
       <r>     6.5044     5.4972    62.6048 </r>
       <r>     6.5872     3.8781    62.9260 </r>
       <r>     6.6701     2.7521    63.1539 </r>
       <r>     6.7529     2.0974    63.3276 </r>
       <r>     6.8357     1.7841    63.4753 </r>
       <r>     6.9185     1.6540    63.6123 </r>
       <r>     7.0013     1.5912    63.7441 </r>
       <r>     7.0841     1.5483    63.8723 </r>
       <r>     7.1670     1.5263    63.9987 </r>
       <r>     7.2498     1.5372    64.1260 </r>
       <r>     7.3326     1.5772    64.2566 </r>
       <r>     7.4154     1.6244    64.3911 </r>
       <r>     7.4982     1.6537    64.5281 </r>
       <r>     7.5810     1.6537    64.6651 </r>
       <r>     7.6638     1.6330    64.8003 </r>
       <r>     7.7467     1.6114    64.9337 </r>
       <r>     7.8295     1.6048    65.0667 </r>
       <r>     7.9123     1.6164    65.2005 </r>
       <r>     7.9951     1.6388    65.3362 </r>
       <r>     8.0779     1.6632    65.4740 </r>
       <r>     8.1607     1.6835    65.6134 </r>
       <r>     8.2436     1.6948    65.7538 </r>
       <r>     8.3264     1.6923    65.8939 </r>
       <r>     8.4092     1.6743    66.0326 </r>
       <r>     8.4920     1.6485    66.1691 </r>
       <r>     8.5748     1.6306    66.3041 </r>
       <r>     8.6576     1.6354    66.4396 </r>
       <r>     8.7405     1.6637    66.5773 </r>
       <r>     8.8233     1.6991    66.7181 </r>
       <r>     8.9061     1.7174    66.8603 </r>
       <r>     8.9889     1.7037    67.0014 </r>
       <r>     9.0717     1.6638    67.1392 </r>
       <r>     9.1545     1.6183    67.2732 </r>
       <r>     9.2374     1.5881    67.4047 </r>
       <r>     9.3202     1.5830    67.5358 </r>
       <r>     9.4030     1.6022    67.6685 </r>
       <r>     9.4858     1.6378    67.8041 </r>
       <r>     9.5686     1.6768    67.9430 </r>
       <r>     9.6514     1.7025    68.0840 </r>
       <r>     9.7343     1.7021    68.2250 </r>
       <r>     9.8171     1.6738    68.3636 </r>
       <r>     9.8999     1.6283    68.4984 </r>
       <r>     9.9827     1.5831    68.6295 </r>
       <r>    10.0655     1.5543    68.7582 </r>
       <r>    10.1483     1.5490    68.8865 </r>
       <r>    10.2311     1.5620    69.0159 </r>
       <r>    10.3140     1.5791    69.1467 </r>
       <r>    10.3968     1.5855    69.2780 </r>
       <r>    10.4796     1.5721    69.4082 </r>
       <r>    10.5624     1.5385    69.5356 </r>
       <r>    10.6452     1.4937    69.6593 </r>
       <r>    10.7280     1.4546    69.7797 </r>
       <r>    10.8109     1.4396    69.8990 </r>
       <r>    10.8937     1.4596    70.0198 </r>
       <r>    10.9765     1.5136    70.1452 </r>
       <r>    11.0593     1.5920    70.2770 </r>
       <r>    11.1421     1.6821    70.4163 </r>
       <r>    11.2249     1.7713    70.5630 </r>
       <r>    11.3078     1.8484    70.7161 </r>
       <r>    11.3906     1.9050    70.8739 </r>
       <r>    11.4734     1.9380    71.0344 </r>
       <r>    11.5562     1.9492    71.1958 </r>
       <r>    11.6390     1.9423    71.3567 </r>
       <r>    11.7218     1.9225    71.5159 </r>
       <r>    11.8047     1.8972    71.6730 </r>
       <r>    11.8875     1.8757    71.8283 </r>
       <r>    11.9703     1.8650    71.9828 </r>
       <r>    12.0531     1.8648    72.1372 </r>
       <r>    12.1359     1.8684    72.2920 </r>
       <r>    12.2187     1.8679    72.4466 </r>
       <r>    12.3016     1.8599    72.6007 </r>
       <r>    12.3844     1.8488    72.7538 </r>
       <r>    12.4672     1.8440    72.9065 </r>
       <r>    12.5500     1.8532    73.0600 </r>
       <r>    12.6328     1.8732    73.2151 </r>
       <r>    12.7156     1.8879    73.3715 </r>
       <r>    12.7984     1.8772    73.5269 </r>
       <r>    12.8813     1.8348    73.6789 </r>
       <r>    12.9641     1.7775    73.8261 </r>
       <r>    13.0469     1.7349    73.9698 </r>
       <r>    13.1297     1.7266    74.1127 </r>
       <r>    13.2125     1.7485    74.2575 </r>
       <r>    13.2953     1.7826    74.4052 </r>
       <r>    13.3782     1.8183    74.5558 </r>
       <r>    13.4610     1.8642    74.7101 </r>
       <r>    13.5438     1.9360    74.8705 </r>
       <r>    13.6266     2.0367    75.0392 </r>
       <r>    13.7094     2.1459    75.2169 </r>
       <r>    13.7922     2.2290    75.4015 </r>
       <r>    13.8751     2.2578    75.5884 </r>
       <r>    13.9579     2.2277    75.7729 </r>
       <r>    14.0407     2.1594    75.9518 </r>
       <r>    14.1235     2.0826    76.1242 </r>
       <r>    14.2063     2.0139    76.2910 </r>
       <r>    14.2891     1.9483    76.4524 </r>
       <r>    14.3720     1.8720    76.6074 </r>
       <r>    14.4548     1.7835    76.7551 </r>
       <r>    14.5376     1.7017    76.8960 </r>
       <r>    14.6204     1.6531    77.0329 </r>
       <r>    14.7032     1.6514    77.1697 </r>
       <r>    14.7860     1.6832    77.3091 </r>
       <r>    14.8689     1.7124    77.4509 </r>
       <r>    14.9517     1.7011    77.5918 </r>
       <r>    15.0345     1.6365    77.7273 </r>
       <r>    15.1173     1.5425    77.8551 </r>
       <r>    15.2001     1.4622    77.9762 </r>
       <r>    15.2829     1.4235    78.0941 </r>
       <r>    15.3658     1.4166    78.2114 </r>
       <r>    15.4486     1.4048    78.3277 </r>
       <r>    15.5314     1.3567    78.4401 </r>
       <r>    15.6142     1.2695    78.5452 </r>
       <r>    15.6970     1.1657    78.6417 </r>
       <r>    15.7798     1.0708    78.7304 </r>
       <r>    15.8626     0.9965    78.8130 </r>
       <r>    15.9455     0.9413    78.8909 </r>
       <r>    16.0283     0.9030    78.9657 </r>
       <r>    16.1111     0.8847    79.0390 </r>
       <r>    16.1939     0.8869    79.1124 </r>
       <r>    16.2767     0.8977    79.1867 </r>
       <r>    16.3595     0.8941    79.2608 </r>
       <r>    16.4424     0.8571    79.3318 </r>
       <r>    16.5252     0.7857    79.3968 </r>
       <r>    16.6080     0.6978    79.4546 </r>
       <r>    16.6908     0.6169    79.5057 </r>
       <r>    16.7736     0.5585    79.5520 </r>
       <r>    16.8564     0.5245    79.5954 </r>
       <r>    16.9393     0.5060    79.6373 </r>
       <r>    17.0221     0.4896    79.6779 </r>
       <r>    17.1049     0.4640    79.7163 </r>
       <r>    17.1877     0.4252    79.7515 </r>
       <r>    17.2705     0.3775    79.7828 </r>
       <r>    17.3533     0.3306    79.8101 </r>
       <r>    17.4362     0.2929    79.8344 </r>
       <r>    17.5190     0.2678    79.8566 </r>
       <r>    17.6018     0.2531    79.8775 </r>
       <r>    17.6846     0.2437    79.8977 </r>
       <r>    17.7674     0.2337    79.9171 </r>
       <r>    17.8502     0.2179    79.9351 </r>
       <r>    17.9331     0.1931    79.9511 </r>
       <r>    18.0159     0.1600    79.9644 </r>
       <r>    18.0987     0.1241    79.9746 </r>
       <r>    18.1815     0.0929    79.9823 </r>
       <r>    18.2643     0.0705    79.9882 </r>
       <r>    18.3471     0.0555    79.9928 </r>
       <r>    18.4299     0.0432    79.9963 </r>
       <r>    18.5128     0.0300    79.9988 </r>
       <r>    18.5956     0.0165    80.0002 </r>
       <r>    18.6784     0.0056    80.0007 </r>
       <r>    18.7612    -0.0006    80.0006 </r>
       <r>    18.8440    -0.0026    80.0004 </r>
       <r>    18.9268    -0.0023    80.0002 </r>
       <r>    19.0097    -0.0014    80.0001 </r>
       <r>    19.0925    -0.0006    80.0000 </r>
       <r>    19.1753    -0.0002    80.0000 </r>
       <r>    19.2581    -0.0001    80.0000 </r>
       <r>    19.3409     0.0000    80.0000 </r>
       <r>    19.4237     0.0000    80.0000 </r>
       <r>    19.5066     0.0000    80.0000 </r>
       <r>    19.5894     0.0000    80.0000 </r>
       <r>    19.6722     0.0000    80.0000 </r>
       <r>    19.7550     0.0000    80.0000 </r>
       <r>    19.8378     0.0000    80.0000 </r>
       <r>    19.9206     0.0000    80.0000 </r>
       <r>    20.0035     0.0000    80.0000 </r>
       <r>    20.0863     0.0000    80.0000 </r>
       <r>    20.1691     0.0000    80.0000 </r>
       <r>    20.2519     0.0000    80.0000 </r>
       <r>    20.3347     0.0000    80.0000 </r>
       <r>    20.4175     0.0000    80.0000 </r>
       <r>    20.5004     0.0000    80.0000 </r>
       <r>    20.5832     0.0000    80.0000 </r>
       <r>    20.6660     0.0000    80.0000 </r>
       <r>    20.7488     0.0000    80.0000 </r>
       <r>    20.8316     0.0000    80.0000 </r>
       <r>    20.9144     0.0000    80.0000 </r>
       <r>    20.9973     0.0000    80.0000 </r>
       <r>    21.0801     0.0000    80.0000 </r>
       <r>    21.1629     0.0000    80.0000 </r>
       <r>    21.2457     0.0000    80.0000 </r>
       <r>    21.3285     0.0000    80.0000 </r>
       <r>    21.4113     0.0000    80.0000 </r>
      </set>
     </set>
    </array>
   </total>
  </dos>
 </calculation>
 <structure name="finalpos" >
  <crystal>
   <varray name="basis" >
    <v>       0.00000000      -2.06465516      -2.06465516 </v>
    <v>      -4.17294175       2.06562229      -2.06562229 </v>
    <v>       4.18841025       4.14669174      -4.14669174 </v>
   </varray>
   <i name="volume">    107.17863073 </i>
   <varray name="rec_basis" >
    <v>       0.00000000      -0.24217119      -0.24217119 </v>
    <v>      -0.15976111       0.08068421      -0.08068421 </v>
    <v>       0.07958299       0.08038623      -0.08038623 </v>
   </varray>
  </crystal>
  <varray name="positions" >
   <v>       0.50000000       0.49984750       0.99799444 </v>
   <v>       0.50000000       0.16681917       0.66867223 </v>
   <v>       0.00000000       0.00036360       0.99881465 </v>
   <v>       0.50000000       0.83333333       0.33333333 </v>
   <v>       0.00000000       0.66630306       0.66785202 </v>
   <v>       0.00000000       0.33333333       0.33333333 </v>
  </varray>
 </structure>
</modeling>
