<?xml version="1.0" encoding="ISO-8859-1"?>
<modeling>
 <generator>
  <i name="program" type="string">vasp </i>
  <i name="version" type="string">5.3.5  </i>
  <i name="subversion" type="string">31Mar14 (build Jun 20 2014 13:15:13) complex                          parallel </i>
  <i name="platform" type="string">LinuxIFC </i>
  <i name="date" type="string">2025 12 16 </i>
  <i name="time" type="string">16:29:32 </i>
 </generator>
 <incar>
  <i type="string" name="PREC">accurate</i>
  <i type="int" name="IALGO">    68</i>
  <i type="logical" name="ADDGRID"> T  </i>
  <i type="int" name="NELM">   100</i>
  <i type="int" name="NELMIN">     4</i>
  <i type="int" name="IBRION">     2</i>
  <i name="EDIFF">      0.00000100</i>
  <i name="EDIFFG">     -0.02000000</i>
  <i type="int" name="NSW">    30</i>
  <i type="int" name="ISIF">     3</i>
  <i name="ENCUT">    600.00000000</i>
  <i type="logical" name="LREAL"> F  </i>
  <i type="int" name="ISMEAR">     0</i>
  <i name="SIGMA">      0.10000000</i>
  <i type="logical" name="LWAVE"> F  </i>
  <i type="logical" name="LCHARG"> F  </i>
  <i type="int" name="NELM">   100</i>
 </incar>
 <kpoints>
  <generation param="Auto">
   <i name="subdivisionlength">     20.00000000 </i>
   <v type="int" name="divisions">       7        7        1 </v>
   <v name="usershift">      0.00000000       0.00000000       0.00000000 </v>
   <v name="genvec1">      0.14285714       0.00000000       0.00000000 </v>
   <v name="genvec2">      0.00000000       0.14285714       0.00000000 </v>
   <v name="genvec3">      0.00000000       0.00000000       1.00000000 </v>
   <v name="shift">      0.00000000       0.00000000       0.00000000 </v>
  </generation>
  <varray name="kpointlist" >
   <v>       0.00000000       0.00000000       0.00000000 </v>
   <v>       0.14285714       0.00000000       0.00000000 </v>
   <v>       0.28571429       0.00000000       0.00000000 </v>
   <v>       0.42857143       0.00000000       0.00000000 </v>
   <v>       0.14285714       0.14285714       0.00000000 </v>
   <v>       0.28571429       0.14285714       0.00000000 </v>
   <v>       0.42857143       0.14285714       0.00000000 </v>
   <v>       0.28571429       0.28571429       0.00000000 </v>
  </varray>
  <varray name="weights" >
   <v>       0.02040816 </v>
   <v>       0.12244898 </v>
   <v>       0.12244898 </v>
   <v>       0.12244898 </v>
   <v>       0.12244898 </v>
   <v>       0.24489796 </v>
   <v>       0.12244898 </v>
   <v>       0.12244898 </v>
  </varray>
 </kpoints>
 <parameters>
  <separator name="general" >
   <i type="string" name="SYSTEM">unknown system</i>
   <i type="logical" name="LCOMPAT"> F  </i>
  </separator>
  <separator name="electronic" >
   <i type="string" name="PREC">accura</i>
   <i name="ENMAX">    600.00000000</i>
   <i name="ENAUG">    644.87300000</i>
   <i name="EDIFF">      0.00000100</i>
   <i type="int" name="IALGO">    68</i>
   <i type="int" name="IWAVPR">    11</i>
   <i type="int" name="NBANDS">    44</i>
   <i name="NELECT">     64.00000000</i>
   <i type="int" name="TURBO">     0</i>
   <i type="int" name="IRESTART">     0</i>
   <i type="int" name="NREBOOT">     0</i>
   <i type="int" name="NMIN">     0</i>
   <i name="EREF">      0.00000000</i>
   <separator name="electronic smearing" >
    <i type="int" name="ISMEAR">     0</i>
    <i name="SIGMA">      0.10000000</i>
    <i name="KSPACING">      0.50000000</i>
    <i type="logical" name="KGAMMA"> T  </i>
   </separator>
   <separator name="electronic projectors" >
    <i type="logical" name="LREAL"> F  </i>
    <v name="ROPT">      0.00000000      0.00000000      0.00000000      0.00000000</v>
    <i type="int" name="LMAXPAW">  -100</i>
    <i type="int" name="LMAXMIX">     2</i>
    <i type="logical" name="NLSPLINE"> F  </i>
   </separator>
   <separator name="electronic startup" >
    <i type="int" name="ISTART">     0</i>
    <i type="int" name="ICHARG">     2</i>
    <i type="int" name="INIWAV">     1</i>
   </separator>
   <separator name="electronic spin" >
    <i type="int" name="ISPIN">     1</i>
    <i type="logical" name="LNONCOLLINEAR"> F  </i>
    <v name="MAGMOM">      1.00000000      1.00000000      1.00000000      1.00000000      1.00000000      1.00000000      1.00000000      1.00000000      1.00000000      1.00000000      1.00000000      1.00000000      1.00000000      1.00000000      1.00000000      1.00000000</v>
    <i name="NUPDOWN">     -1.00000000</i>
    <i type="logical" name="LSORBIT"> F  </i>
    <v name="SAXIS">      0.00000000      0.00000000      1.00000000</v>
    <i type="logical" name="LSPIRAL"> F  </i>
    <v name="QSPIRAL">      0.00000000      0.00000000      0.00000000</v>
    <i type="logical" name="LZEROZ"> F  </i>
   </separator>
   <separator name="electronic exchange-correlation" >
    <i type="logical" name="LASPH"> F  </i>
    <i type="logical" name="LMETAGGA"> F  </i>
   </separator>
   <separator name="electronic convergence" >
    <i type="int" name="NELM">   100</i>
    <i type="int" name="NELMDL">     0</i>
    <i type="int" name="NELMIN">     4</i>
    <i name="ENINI">    600.00000000</i>
    <separator name="electronic convergence detail" >
     <i type="logical" name="LDIAG"> T  </i>
     <i type="logical" name="LSUBROT"> F  </i>
     <i name="WEIMIN">      0.00100000</i>
     <i name="EBREAK">      0.00000001</i>
     <i name="DEPER">      0.30000000</i>
     <i type="int" name="NRMM">     4</i>
     <i name="TIME">      0.40000000</i>
    </separator>
   </separator>
   <separator name="electronic mixer" >
    <i name="AMIX">      0.40000000</i>
    <i name="BMIX">      1.00000000</i>
    <i name="AMIN">      0.10000000</i>
    <i name="AMIX_MAG">      1.60000000</i>
    <i name="BMIX_MAG">      1.00000000</i>
    <separator name="electronic mixer details" >
     <i type="int" name="IMIX">     4</i>
     <i type="int" name="MAXMIX">   -45</i>
     <i name="WC">    100.00000000</i>
     <i type="int" name="INIMIX">     1</i>
     <i type="int" name="MIXPRE">     1</i>
     <i type="int" name="MREMOVE">     5</i>
    </separator>
   </separator>
   <separator name="electronic dipolcorrection" >
    <i type="logical" name="LDIPOL"> F  </i>
    <i type="logical" name="LMONO"> F  </i>
    <i type="int" name="IDIPOL">     0</i>
    <i name="EPSILON">      1.00000000</i>
    <v name="DIPOL">   -100.00000000   -100.00000000   -100.00000000</v>
    <i name="EFIELD">      0.00000000</i>
   </separator>
  </separator>
  <separator name="grids" >
   <i type="int" name="NGX">    28</i>
   <i type="int" name="NGY">    28</i>
   <i type="int" name="NGZ">   150</i>
   <i type="int" name="NGXF">    56</i>
   <i type="int" name="NGYF">    56</i>
   <i type="int" name="NGZF">   300</i>
   <i type="logical" name="ADDGRID"> T  </i>
  </separator>
  <separator name="ionic" >
   <i type="int" name="NSW">    30</i>
   <i type="int" name="IBRION">     2</i>
   <i type="int" name="ISIF">     3</i>
   <i name="PSTRESS">      0.00000000</i>
   <i name="EDIFFG">     -0.02000000</i>
   <i type="int" name="NFREE">     1</i>
   <i name="POTIM">      0.50000000</i>
   <i name="SMASS">     -3.00000000</i>
   <i name="SCALEE">      1.00000000</i>
  </separator>
  <separator name="ionic md" >
   <i name="TEBEG">      0.00010000</i>
   <i name="TEEND">      0.00010000</i>
   <i type="int" name="NBLOCK">     1</i>
   <i type="int" name="KBLOCK">    30</i>
   <i type="int" name="NPACO">   256</i>
   <i name="APACO">     16.00000000</i>
  </separator>
  <separator name="symmetry" >
   <i type="int" name="ISYM">     2</i>
   <i name="SYMPREC">      0.00001000</i>
  </separator>
  <separator name="dos" >
   <i type="logical" name="LORBIT"> F  </i>
   <v name="RWIGS">     -1.00000000     -1.00000000     -1.00000000     -1.00000000</v>
   <i type="int" name="NEDOS">   301</i>
   <i name="EMIN">     10.00000000</i>
   <i name="EMAX">    -10.00000000</i>
   <i name="EFERMI">      0.00000000</i>
  </separator>
  <separator name="writing" >
   <i type="int" name="NWRITE">     2</i>
   <i type="logical" name="LWAVE"> F  </i>
   <i type="logical" name="LCHARG"> F  </i>
   <i type="logical" name="LPARD"> F  </i>
   <i type="logical" name="LVTOT"> F  </i>
   <i type="logical" name="LVHAR"> F  </i>
   <i type="logical" name="LELF"> F  </i>
   <i type="logical" name="LOPTICS"> F  </i>
   <v name="STM">      0.00000000      0.00000000      0.00000000      0.00000000      0.00000000      0.00000000      0.00000000</v>
  </separator>
  <separator name="performance" >
   <i type="int" name="NPAR">     4</i>
   <i type="int" name="NSIM">     4</i>
   <i type="int" name="NBLK">    -1</i>
   <i type="logical" name="LPLANE"> T  </i>
   <i type="logical" name="LSCALAPACK"> T  </i>
   <i type="logical" name="LSCAAWARE"> F  </i>
   <i type="logical" name="LSCALU"> F  </i>
   <i type="logical" name="LASYNC"> F  </i>
   <i type="logical" name="LORBITALREAL"> F  </i>
  </separator>
  <separator name="miscellaneous" >
   <i type="int" name="IDIOT">     3</i>
   <i type="logical" name="LMUSIC"> F  </i>
   <v name="POMASS">     28.08500000     26.98100000     12.01100000     14.00100000</v>
   <v name="DARWINR">      0.00000000      0.00000000      0.00000000      0.00000000</v>
   <v name="DARWINV">      1.00000000      1.00000000      1.00000000      1.00000000</v>
   <i type="logical" name="LCORR"> T  </i>
  </separator>
  <i type="logical" name="GGA_COMPAT"> T  </i>
  <i type="logical" name="LBERRY"> F  </i>
  <i type="int" name="ICORELEVEL">     0</i>
  <i type="logical" name="LDAU"> F  </i>
  <i type="int" name="I_CONSTRAINED_M">     0</i>
  <separator name="electronic exchange-correlation" >
   <i type="string" name="GGA">--</i>
   <i type="int" name="VOSKOWN">     0</i>
   <i type="logical" name="LHFCALC"> F  </i>
   <i type="string" name="PRECFOCK"></i>
   <i type="logical" name="LSYMGRAD"> F  </i>
   <i type="logical" name="LHFONE"> F  </i>
   <i type="logical" name="LRHFCALC"> F  </i>
   <i type="logical" name="LTHOMAS"> F  </i>
   <i type="logical" name="LMODELHF"> F  </i>
   <i name="ENCUT4O">     -1.00000000</i>
   <i type="int" name="EXXOEP">     0</i>
   <i type="int" name="FOURORBIT">     0</i>
   <i name="AEXX">      0.00000000</i>
   <i name="HFALPHA">      0.00000000</i>
   <i name="MCALPHA">      0.00000000</i>
   <i name="ALDAX">      1.00000000</i>
   <i name="AGGAX">      1.00000000</i>
   <i name="ALDAC">      1.00000000</i>
   <i name="AGGAC">      1.00000000</i>
   <i type="int" name="NKREDX">     1</i>
   <i type="int" name="NKREDY">     1</i>
   <i type="int" name="NKREDZ">     1</i>
   <i type="logical" name="SHIFTRED"> F  </i>
   <i type="logical" name="ODDONLY"> F  </i>
   <i type="logical" name="EVENONLY"> F  </i>
   <i type="int" name="LMAXFOCK">     0</i>
   <i type="int" name="NMAXFOCKAE">     0</i>
   <i type="logical" name="LFOCKAEDFT"> F  </i>
   <i name="HFSCREEN">      0.00000000</i>
   <i name="HFSCREENC">      0.00000000</i>
   <i type="int" name="NBANDSGWLOW">     0</i>
  </separator>
  <separator name="vdW DFT" >
   <i type="logical" name="LUSE_VDW"> F  </i>
   <i name="Zab_VDW">     -0.84910000</i>
   <i name="PARAM1">      0.12340000</i>
   <i name="PARAM2">      1.00000000</i>
   <i name="PARAM3">      0.00000000</i>
  </separator>
  <separator name="model GW" >
   <i type="int" name="MODEL_GW">     0</i>
   <i name="MODEL_EPS0">      6.35168347</i>
   <i name="MODEL_ALPHA">      1.00000000</i>
  </separator>
  <separator name="linear response parameters" >
   <i type="logical" name="LEPSILON"> F  </i>
   <i type="logical" name="LRPA"> F  </i>
   <i type="logical" name="LNABLA"> F  </i>
   <i type="logical" name="LVEL"> F  </i>
   <i type="int" name="KINTER">     0</i>
   <i name="CSHIFT">      0.10000000</i>
   <i name="OMEGAMAX">     -1.00000000</i>
   <i name="DEG_THRESHOLD">      0.00200000</i>
  </separator>
  <separator name="orbital magnetization" >
   <i type="logical" name="NUCIND"> F  </i>
   <v name="MAGPOS">      0.00000000      0.00000000      0.00000000</v>
   <i type="logical" name="LNICSALL"> T  </i>
   <i type="logical" name="ORBITALMAG"> F  </i>
   <i type="logical" name="LMAGBLOCH"> F  </i>
   <i type="logical" name="LCHIMAG"> F  </i>
   <i type="logical" name="LGAUGE"> T  </i>
   <i type="int" name="MAGATOM">     0</i>
   <v name="MAGDIPOL">      0.00000000      0.00000000      0.00000000</v>
   <v name="AVECCONST">      0.00000000      0.00000000      0.00000000</v>
  </separator>
  <separator name="response functions" >
   <i type="logical" name="LADDER"> F  </i>
   <i type="logical" name="LFXC"> F  </i>
   <i type="logical" name="LHARTREE"> T  </i>
   <i type="int" name="IBSE">     0</i>
   <i type="logical" name="LTCTE"> F  </i>
   <i type="logical" name="LTETE"> F  </i>
   <i type="logical" name="LTRIPLET"> F  </i>
   <i type="logical" name="LFXCEPS"> F  </i>
   <i type="logical" name="LFXHEG"> F  </i>
   <i type="logical" name="L2ORDER"> F  </i>
   <i type="logical" name="LUSEW"> F  </i>
   <i name="ENCUTGW">     -2.00000000</i>
   <i name="ENCUTGWSOFT">     -2.00000000</i>
   <i name="ENCUTLF">     -1.00000000</i>
   <i type="int" name="LMAXMP2">    -1</i>
   <i name="SCISSOR">      0.00000000</i>
   <i type="int" name="NOMEGA">     0</i>
   <i type="int" name="NOMEGAR">     0</i>
   <i type="int" name="NBANDSGW">    -1</i>
   <i type="int" name="NBANDSO">    -1</i>
   <i type="int" name="NBANDSV">    -1</i>
   <i type="int" name="NELM">   100</i>
   <i type="int" name="DIM">     3</i>
   <i type="int" name="ANTIRES">     0</i>
   <i name="OMEGAMAX">    -30.00000000</i>
   <i name="OMEGAMIN">    -30.00000000</i>
   <i name="OMEGATL">   -200.00000000</i>
   <i type="int" name="OMEGAGRID">     0</i>
   <i name="CSHIFT">     -0.10000000</i>
   <i type="logical" name="SELFENERGY"> F  </i>
   <i type="logical" name="LSPECTRAL"> F  </i>
   <i type="logical" name="ODDONLYGW"> F  </i>
   <i type="logical" name="EVENONLYGW"> F  </i>
   <i type="int" name="NKREDLFX">     1</i>
   <i type="int" name="NKREDLFY">     1</i>
   <i type="int" name="NKREDLFZ">     1</i>
   <i type="int" name="MAXMEM">  1800</i>
   <i type="int" name="TELESCOPE">     0</i>
   <i type="int" name="TAUPAR">     1</i>
  </separator>
  <separator name="External order field" >
   <i name="OFIELD_KAPPA">      0.00000000</i>
   <v name="OFIELD_K">      0.00000000      0.00000000      0.00000000</v>
   <i name="OFIELD_Q6_NEAR">      0.00000000</i>
   <i name="OFIELD_Q6_FAR">      0.00000000</i>
   <i name="OFIELD_A">      0.00000000</i>
  </separator>
 </parameters>
 <atominfo>
  <atoms>      16 </atoms>
  <types>       4 </types>
  <array name="atoms" >
   <dimension dim="1">ion</dimension>
   <field type="string">element</field>
   <field type="int">atomtype</field>
   <set>
    <rc><c>Si</c><c>   1</c></rc>
    <rc><c>Si</c><c>   1</c></rc>
    <rc><c>Si</c><c>   1</c></rc>
    <rc><c>Si</c><c>   1</c></rc>
    <rc><c>Al</c><c>   2</c></rc>
    <rc><c>Al</c><c>   2</c></rc>
    <rc><c>Al</c><c>   2</c></rc>
    <rc><c>Al</c><c>   2</c></rc>
    <rc><c>C </c><c>   3</c></rc>
    <rc><c>C </c><c>   3</c></rc>
    <rc><c>C </c><c>   3</c></rc>
    <rc><c>C </c><c>   3</c></rc>
    <rc><c>N </c><c>   4</c></rc>
    <rc><c>N </c><c>   4</c></rc>
    <rc><c>N </c><c>   4</c></rc>
    <rc><c>N </c><c>   4</c></rc>
   </set>
  </array>
  <array name="atomtypes" >
   <dimension dim="1">type</dimension>
   <field type="int">atomspertype</field>
   <field type="string">element</field>
   <field>mass</field>
   <field>valence</field>
   <field type="string">pseudopotential</field>
   <set>
    <rc><c>   4</c><c>Si</c><c>     28.08500000</c><c>      4.00000000</c><c>  PAW_PBE Si 05Jan2001                  </c></rc>
    <rc><c>   4</c><c>Al</c><c>     26.98100000</c><c>      3.00000000</c><c>  PAW_PBE Al 04Jan2001                  </c></rc>
    <rc><c>   4</c><c>C </c><c>     12.01100000</c><c>      4.00000000</c><c>  PAW_PBE C 08Apr2002                   </c></rc>
    <rc><c>   4</c><c>N </c><c>     14.00100000</c><c>      5.00000000</c><c>  PAW_PBE N_s 07Sep2000                 </c></rc>
   </set>
  </array>
 </atominfo>
 <structure name="initialpos" >
  <crystal>
   <varray name="basis" >
    <v>       3.22370557       0.00000000       0.00000000 </v>
    <v>      -1.61185278       2.79181092       0.00000000 </v>
    <v>       0.00000000       0.00000000      18.81985222 </v>
   </varray>
   <i name="volume">    169.37822595 </i>
   <varray name="rec_basis" >
    <v>       0.31020203       0.17909522       0.00000000 </v>
    <v>       0.00000000       0.35819045       0.00000000 </v>
    <v>       0.00000000       0.00000000       0.05313538 </v>
   </varray>
  </crystal>
  <varray name="positions" >
   <v>       0.33333333       0.66666667       0.72399794 </v>
   <v>       0.66666667       0.33333333       0.12597241 </v>
   <v>       0.66666667       0.33333333       0.60377924 </v>
   <v>       0.66666667       0.33333333       0.86701200 </v>
   <v>       0.33333333       0.66666667       0.98803537 </v>
   <v>       0.33333333       0.66666667       0.25976092 </v>
   <v>       0.33333333       0.66666667       0.48799363 </v>
   <v>       0.66666667       0.33333333       0.38625049 </v>
   <v>       0.33333333       0.66666667       0.36077835 </v>
   <v>       0.66666667       0.33333333       0.50019988 </v>
   <v>       0.66666667       0.33333333       0.71523743 </v>
   <v>       0.66666667       0.33333333       0.96298877 </v>
   <v>       0.33333333       0.66666667       0.09936703 </v>
   <v>       0.33333333       0.66666667       0.61440611 </v>
   <v>       0.33333333       0.66666667       0.83601753 </v>
   <v>       0.66666667       0.33333333       0.21820292 </v>
  </varray>
 </structure>
 <calculation>
  <scstep>
   <time name="dav">    0.20    0.20</time>
   <time name="total">    0.26    0.27</time>
   <energy>
    <i name="alphaZ">     64.21484080 </i>
    <i name="ewald">  -2167.50902141 </i>
    <i name="hartreedc">   -474.42049037 </i>
    <i name="XCdc">     -5.52159042 </i>
    <i name="pawpsdc">   1871.13760811 </i>
    <i name="pawaedc">  -1679.96522576 </i>
    <i name="eentropy">     -0.01692275 </i>
    <i name="bandstr">    459.68927678 </i>
    <i name="atom">   2273.20978491 </i>
    <i name="e_fr_energy">    340.81825990 </i>
    <i name="e_wo_entrp">    340.83518265 </i>
    <i name="e_0_energy">    340.82672128 </i>
   </energy>
  </scstep>
  <scstep>
   <time name="dav">    0.22    0.22</time>
   <time name="total">    0.22    0.23</time>
   <energy>
    <i name="e_fr_energy">    -94.90381356 </i>
    <i name="e_wo_entrp">    -94.90381356 </i>
    <i name="e_0_energy">    -94.90381356 </i>
   </energy>
  </scstep>
  <scstep>
   <time name="dav">    0.24    0.24</time>
   <time name="total">    0.24    0.25</time>
   <energy>
    <i name="e_fr_energy">   -130.12121462 </i>
    <i name="e_wo_entrp">   -130.12121462 </i>
    <i name="e_0_energy">   -130.12121462 </i>
   </energy>
  </scstep>
  <scstep>
   <time name="dav">    0.24    0.24</time>
   <time name="total">    0.24    0.25</time>
   <energy>
    <i name="e_fr_energy">   -131.07545031 </i>
    <i name="e_wo_entrp">   -131.07545031 </i>
    <i name="e_0_energy">   -131.07545031 </i>
   </energy>
  </scstep>
  <scstep>
   <time name="dav">    0.23    0.23</time>
   <time name="total">    0.30    0.31</time>
   <energy>
    <i name="e_fr_energy">   -131.09708537 </i>
    <i name="e_wo_entrp">   -131.09708537 </i>
    <i name="e_0_energy">   -131.09708537 </i>
   </energy>
  </scstep>
  <scstep>
   <time name="diag">    0.05    0.05</time>
   <time name="diis">    0.14    0.14</time>
   <time name="orth">    0.01    0.01</time>
   <time name="total">    0.31    0.32</time>
   <energy>
    <i name="e_fr_energy">   -112.00464018 </i>
    <i name="e_wo_entrp">   -112.00442653 </i>
    <i name="e_0_energy">   -112.00453336 </i>
   </energy>
  </scstep>
  <scstep>
   <time name="diag">    0.05    0.05</time>
   <time name="diis">    0.15    0.15</time>
   <time name="orth">    0.01    0.01</time>
   <time name="total">    0.33    0.34</time>
   <energy>
    <i name="e_fr_energy">   -111.56671444 </i>
    <i name="e_wo_entrp">   -111.54882791 </i>
    <i name="e_0_energy">   -111.55777117 </i>
   </energy>
  </scstep>
  <scstep>
   <time name="diag">    0.05    0.05</time>
   <time name="diis">    0.14    0.14</time>
   <time name="orth">    0.01    0.01</time>
   <time name="total">    0.32    0.33</time>
   <energy>
    <i name="e_fr_energy">   -112.89418369 </i>
    <i name="e_wo_entrp">   -112.89417818 </i>
    <i name="e_0_energy">   -112.89418093 </i>
   </energy>
  </scstep>
  <scstep>
   <time name="diag">    0.05    0.05</time>
   <time name="diis">    0.14    0.14</time>
   <time name="orth">    0.01    0.01</time>
   <time name="total">    0.31    0.33</time>
   <energy>
    <i name="e_fr_energy">   -111.73611465 </i>
    <i name="e_wo_entrp">   -111.73473403 </i>
    <i name="e_0_energy">   -111.73542434 </i>
   </energy>
  </scstep>
  <scstep>
   <time name="diag">    0.05    0.05</time>
   <time name="diis">    0.14    0.14</time>
   <time name="orth">    0.01    0.01</time>
   <time name="total">    0.32    0.33</time>
   <energy>
    <i name="e_fr_energy">   -111.38339913 </i>
    <i name="e_wo_entrp">   -111.37285829 </i>
    <i name="e_0_energy">   -111.37812871 </i>
   </energy>
  </scstep>
  <scstep>
   <time name="diag">    0.05    0.05</time>
   <time name="diis">    0.14    0.14</time>
   <time name="orth">    0.01    0.01</time>
   <time name="total">    0.32    0.33</time>
   <energy>
    <i name="e_fr_energy">   -111.38530387 </i>
    <i name="e_wo_entrp">   -111.38149648 </i>
    <i name="e_0_energy">   -111.38340018 </i>
   </energy>
  </scstep>
  <scstep>
   <time name="diag">    0.05    0.05</time>
   <time name="diis">    0.14    0.14</time>
   <time name="orth">    0.01    0.01</time>
   <time name="total">    0.31    0.33</time>
   <energy>
    <i name="e_fr_energy">   -111.36760735 </i>
    <i name="e_wo_entrp">   -111.35199509 </i>
    <i name="e_0_energy">   -111.35980122 </i>
   </energy>
  </scstep>
  <scstep>
   <time name="diag">    0.05    0.05</time>
   <time name="diis">    0.14    0.14</time>
   <time name="orth">    0.01    0.01</time>
   <time name="total">    0.31    0.33</time>
   <energy>
    <i name="e_fr_energy">   -111.36951101 </i>
    <i name="e_wo_entrp">   -111.35936336 </i>
    <i name="e_0_energy">   -111.36443719 </i>
   </energy>
  </scstep>
  <scstep>
   <time name="diag">    0.05    0.05</time>
   <time name="diis">    0.14    0.14</time>
   <time name="orth">    0.01    0.01</time>
   <time name="total">    0.32    0.33</time>
   <energy>
    <i name="e_fr_energy">   -111.37066796 </i>
    <i name="e_wo_entrp">   -111.35518469 </i>
    <i name="e_0_energy">   -111.36292632 </i>
   </energy>
  </scstep>
  <scstep>
   <time name="diag">    0.05    0.05</time>
   <time name="diis">    0.14    0.14</time>
   <time name="orth">    0.01    0.01</time>
   <time name="total">    0.31    0.33</time>
   <energy>
    <i name="e_fr_energy">   -111.36650894 </i>
    <i name="e_wo_entrp">   -111.35192539 </i>
    <i name="e_0_energy">   -111.35921717 </i>
   </energy>
  </scstep>
  <scstep>
   <time name="diag">    0.05    0.05</time>
   <time name="diis">    0.15    0.15</time>
   <time name="orth">    0.01    0.01</time>
   <time name="total">    0.32    0.34</time>
   <energy>
    <i name="e_fr_energy">   -111.36651875 </i>
    <i name="e_wo_entrp">   -111.35176984 </i>
    <i name="e_0_energy">   -111.35914429 </i>
   </energy>
  </scstep>
  <scstep>
   <time name="diag">    0.05    0.05</time>
   <time name="diis">    0.14    0.14</time>
   <time name="orth">    0.01    0.01</time>
   <time name="total">    0.31    0.33</time>
   <energy>
    <i name="e_fr_energy">   -111.36656584 </i>
    <i name="e_wo_entrp">   -111.35166970 </i>
    <i name="e_0_energy">   -111.35911777 </i>
   </energy>
  </scstep>
  <scstep>
   <time name="diag">    0.05    0.05</time>
   <time name="diis">    0.14    0.14</time>
   <time name="orth">    0.01    0.01</time>
   <time name="total">    0.31    0.32</time>
   <energy>
    <i name="e_fr_energy">   -111.36650387 </i>
    <i name="e_wo_entrp">   -111.35200667 </i>
    <i name="e_0_energy">   -111.35925527 </i>
   </energy>
  </scstep>
  <scstep>
   <time name="diag">    0.05    0.05</time>
   <time name="diis">    0.10    0.10</time>
   <time name="orth">    0.01    0.01</time>
   <time name="total">    0.28    0.29</time>
   <energy>
    <i name="e_fr_energy">   -111.36650498 </i>
    <i name="e_wo_entrp">   -111.35204093 </i>
    <i name="e_0_energy">   -111.35927295 </i>
   </energy>
  </scstep>
  <scstep>
   <time name="diag">    0.05    0.05</time>
   <time name="diis">    0.09    0.09</time>
   <time name="orth">    0.01    0.01</time>
   <time name="total">    0.21    0.22</time>
   <energy>
    <i name="alphaZ">     64.21484080 </i>
    <i name="ewald">  -2167.50902141 </i>
    <i name="hartreedc">   -573.84837253 </i>
    <i name="XCdc">      3.58452740 </i>
    <i name="pawpsdc">   9641.32021373 </i>
    <i name="pawaedc">  -9453.80967323 </i>
    <i name="eentropy">     -0.01456381 </i>
    <i name="bandstr">    101.48576007 </i>
    <i name="atom">   2273.20978491 </i>
    <i name="e_fr_energy">   -111.36650408 </i>
    <i name="e_wo_entrp">   -111.35194027 </i>
    <i name="e_0_energy">   -111.35922217 </i>
   </energy>
  </scstep>
  <structure>
   <crystal>
    <varray name="basis" >
     <v>       3.22370557       0.00000000       0.00000000 </v>
     <v>      -1.61185278       2.79181092       0.00000000 </v>
     <v>       0.00000000       0.00000000      18.81985222 </v>
    </varray>
    <i name="volume">    169.37822595 </i>
    <varray name="rec_basis" >
     <v>       0.31020203       0.17909522       0.00000000 </v>
     <v>       0.00000000       0.35819045       0.00000000 </v>
     <v>       0.00000000       0.00000000       0.05313538 </v>
    </varray>
   </crystal>
   <varray name="positions" >
    <v>       0.33333333       0.66666667       0.72399794 </v>
    <v>       0.66666667       0.33333333       0.12597241 </v>
    <v>       0.66666667       0.33333333       0.60377924 </v>
    <v>       0.66666667       0.33333333       0.86701200 </v>
    <v>       0.33333333       0.66666667       0.98803537 </v>
    <v>       0.33333333       0.66666667       0.25976092 </v>
    <v>       0.33333333       0.66666667       0.48799363 </v>
    <v>       0.66666667       0.33333333       0.38625049 </v>
    <v>       0.33333333       0.66666667       0.36077835 </v>
    <v>       0.66666667       0.33333333       0.50019988 </v>
    <v>       0.66666667       0.33333333       0.71523743 </v>
    <v>       0.66666667       0.33333333       0.96298877 </v>
    <v>       0.33333333       0.66666667       0.09936703 </v>
    <v>       0.33333333       0.66666667       0.61440611 </v>
    <v>       0.33333333       0.66666667       0.83601753 </v>
    <v>       0.66666667       0.33333333       0.21820292 </v>
   </varray>
  </structure>
  <varray name="forces" >
   <v>       0.00000000       0.00000000       0.00419710 </v>
   <v>       0.00000000       0.00000000       0.00721725 </v>
   <v>       0.00000000       0.00000000       0.00070956 </v>
   <v>       0.00000000       0.00000000      -0.00866429 </v>
   <v>       0.00000000       0.00000000       0.00442094 </v>
   <v>       0.00000000       0.00000000      -0.00519540 </v>
   <v>       0.00000000       0.00000000      -0.00628591 </v>
   <v>       0.00000000       0.00000000      -0.00059745 </v>
   <v>       0.00000000       0.00000000       0.00764246 </v>
   <v>       0.00000000       0.00000000      -0.00078417 </v>
   <v>       0.00000000       0.00000000      -0.00347761 </v>
   <v>       0.00000000       0.00000000       0.00984361 </v>
   <v>       0.00000000       0.00000000      -0.00436166 </v>
   <v>       0.00000000       0.00000000       0.00438742 </v>
   <v>       0.00000000       0.00000000      -0.00827723 </v>
   <v>       0.00000000       0.00000000      -0.00077465 </v>
  </varray>
  <varray name="stress" >
   <v>       0.13136818       0.00000000       0.00000000 </v>
   <v>       0.00000000       0.13136818       0.00000000 </v>
   <v>       0.00000000       0.00000000      -0.34580588 </v>
  </varray>
  <energy>
   <i name="e_fr_energy">   -111.36650408 </i>
   <i name="e_wo_entrp">   -111.35922217 </i>
   <i name="e_0_energy">     -0.01456381 </i>
  </energy>
  <time name="totalsc">    7.05    7.35</time>
  <eigenvalues>
   <array>
    <dimension dim="1">band</dimension>
    <dimension dim="2">kpoint</dimension>
    <dimension dim="3">spin</dimension>
    <field>eigene</field>
    <field>occ</field>
    <set>
     <set comment="spin 1">
      <set comment="kpoint 1">
       <r>  -10.5932    1.0000 </r>
       <r>   -9.3481    1.0000 </r>
       <r>   -9.0483    1.0000 </r>
       <r>   -8.2022    1.0000 </r>
       <r>   -5.1177    1.0000 </r>
       <r>   -4.3129    1.0000 </r>
       <r>   -3.9228    1.0000 </r>
       <r>   -2.7687    1.0000 </r>
       <r>   -0.1445    1.0000 </r>
       <r>    1.3882    1.0000 </r>
       <r>    1.6521    1.0000 </r>
       <r>    2.8901    1.0000 </r>
       <r>    2.8901    1.0000 </r>
       <r>    3.5571    1.0000 </r>
       <r>    4.1166    1.0000 </r>
       <r>    4.1166    1.0000 </r>
       <r>    4.1385    1.0000 </r>
       <r>    4.2991    1.0000 </r>
       <r>    4.2991    1.0000 </r>
       <r>    5.0792    1.0000 </r>
       <r>    5.0792    1.0000 </r>
       <r>    5.9192    1.0000 </r>
       <r>    6.4879    1.0000 </r>
       <r>    7.1289    1.0000 </r>
       <r>    7.1289    1.0000 </r>
       <r>    8.0498    1.0000 </r>
       <r>    8.1016    1.0000 </r>
       <r>    8.1016    1.0000 </r>
       <r>    8.1093    1.0000 </r>
       <r>    8.1093    1.0000 </r>
       <r>    8.3609    1.0000 </r>
       <r>    8.7823    0.0865 </r>
       <r>    8.7823    0.0865 </r>
       <r>    9.1915    0.0000 </r>
       <r>   11.0624    0.0000 </r>
       <r>   11.7470    0.0000 </r>
       <r>   12.6422    0.0000 </r>
       <r>   13.6346    0.0000 </r>
       <r>   13.6115    0.0000 </r>
       <r>   13.7084    0.0000 </r>
       <r>   13.9038    0.0000 </r>
       <r>   14.0508    0.0000 </r>
       <r>   14.6471    0.0000 </r>
       <r>   15.3633    0.0000 </r>
      </set>
      <set comment="kpoint 2">
       <r>  -10.3529    1.0000 </r>
       <r>   -9.0963    1.0000 </r>
       <r>   -8.8125    1.0000 </r>
       <r>   -8.0620    1.0000 </r>
       <r>   -4.8198    1.0000 </r>
       <r>   -4.0519    1.0000 </r>
       <r>   -3.6934    1.0000 </r>
       <r>   -2.5761    1.0000 </r>
       <r>    0.0360    1.0000 </r>
       <r>    1.0605    1.0000 </r>
       <r>    1.7131    1.0000 </r>
       <r>    1.9916    1.0000 </r>
       <r>    2.5874    1.0000 </r>
       <r>    2.6133    1.0000 </r>
       <r>    2.9834    1.0000 </r>
       <r>    3.7647    1.0000 </r>
       <r>    3.8049    1.0000 </r>
       <r>    4.0330    1.0000 </r>
       <r>    4.3148    1.0000 </r>
       <r>    4.7435    1.0000 </r>
       <r>    4.9523    1.0000 </r>
       <r>    5.5020    1.0000 </r>
       <r>    6.3240    1.0000 </r>
       <r>    6.6681    1.0000 </r>
       <r>    6.8508    1.0000 </r>
       <r>    7.1260    1.0000 </r>
       <r>    7.3550    1.0000 </r>
       <r>    7.6932    1.0000 </r>
       <r>    7.8330    1.0000 </r>
       <r>    7.9080    1.0000 </r>
       <r>    8.5731    0.9447 </r>
       <r>    8.6292    0.7889 </r>
       <r>    8.9692    0.0000 </r>
       <r>   10.1414    0.0000 </r>
       <r>   11.5833    0.0000 </r>
       <r>   11.9300    0.0000 </r>
       <r>   12.1391    0.0000 </r>
       <r>   12.8709    0.0000 </r>
       <r>   13.2966    0.0000 </r>
       <r>   13.9321    0.0000 </r>
       <r>   14.3755    0.0000 </r>
       <r>   14.4460    0.0000 </r>
       <r>   14.8772    0.0000 </r>
       <r>   15.1665    0.0000 </r>
      </set>
      <set comment="kpoint 3">
       <r>   -9.6995    1.0000 </r>
       <r>   -8.4172    1.0000 </r>
       <r>   -8.1829    1.0000 </r>
       <r>   -7.7596    1.0000 </r>
       <r>   -3.9801    1.0000 </r>
       <r>   -3.3805    1.0000 </r>
       <r>   -3.1686    1.0000 </r>
       <r>   -2.1646    1.0000 </r>
       <r>   -0.7511    1.0000 </r>
       <r>    0.4371    1.0000 </r>
       <r>    0.4729    1.0000 </r>
       <r>    1.1625    1.0000 </r>
       <r>    1.8596    1.0000 </r>
       <r>    2.0903    1.0000 </r>
       <r>    2.4044    1.0000 </r>
       <r>    2.9060    1.0000 </r>
       <r>    3.2263    1.0000 </r>
       <r>    3.4467    1.0000 </r>
       <r>    3.5216    1.0000 </r>
       <r>    3.9251    1.0000 </r>
       <r>    4.5588    1.0000 </r>
       <r>    4.6583    1.0000 </r>
       <r>    5.1199    1.0000 </r>
       <r>    5.5512    1.0000 </r>
       <r>    5.9516    1.0000 </r>
       <r>    6.2957    1.0000 </r>
       <r>    6.4976    1.0000 </r>
       <r>    7.2988    1.0000 </r>
       <r>    7.3238    1.0000 </r>
       <r>    7.4891    1.0000 </r>
       <r>    7.9709    1.0000 </r>
       <r>    8.2827    1.0000 </r>
       <r>    9.2397    0.0000 </r>
       <r>   10.3240    0.0000 </r>
       <r>   11.4653    0.0000 </r>
       <r>   11.7709    0.0000 </r>
       <r>   12.3346    0.0000 </r>
       <r>   12.9311    0.0000 </r>
       <r>   13.3282    0.0000 </r>
       <r>   13.6178    0.0000 </r>
       <r>   13.7093    0.0000 </r>
       <r>   14.0350    0.0000 </r>
       <r>   14.6483    0.0000 </r>
       <r>   15.4845    0.0000 </r>
      </set>
      <set comment="kpoint 4">
       <r>   -8.9393    1.0000 </r>
       <r>   -7.6745    1.0000 </r>
       <r>   -7.6267    1.0000 </r>
       <r>   -7.4942    1.0000 </r>
       <r>   -3.2635    1.0000 </r>
       <r>   -2.9729    1.0000 </r>
       <r>   -2.6931    1.0000 </r>
       <r>   -2.0402    1.0000 </r>
       <r>   -1.6215    1.0000 </r>
       <r>   -0.3638    1.0000 </r>
       <r>   -0.1034    1.0000 </r>
       <r>    0.6743    1.0000 </r>
       <r>    1.1928    1.0000 </r>
       <r>    1.7369    1.0000 </r>
       <r>    1.9368    1.0000 </r>
       <r>    2.3013    1.0000 </r>
       <r>    2.6743    1.0000 </r>
       <r>    2.8416    1.0000 </r>
       <r>    3.1724    1.0000 </r>
       <r>    3.4686    1.0000 </r>
       <r>    3.9297    1.0000 </r>
       <r>    4.1730    1.0000 </r>
       <r>    4.4286    1.0000 </r>
       <r>    5.0099    1.0000 </r>
       <r>    5.5632    1.0000 </r>
       <r>    5.9149    1.0000 </r>
       <r>    6.3950    1.0000 </r>
       <r>    6.6999    1.0000 </r>
       <r>    6.9778    1.0000 </r>
       <r>    7.1846    1.0000 </r>
       <r>    7.3601    1.0000 </r>
       <r>    8.0175    1.0000 </r>
       <r>    8.7031    0.4042 </r>
       <r>    9.7760    0.0000 </r>
       <r>   11.0904    0.0000 </r>
       <r>   11.2317    0.0000 </r>
       <r>   12.1571    0.0000 </r>
       <r>   12.4427    0.0000 </r>
       <r>   12.7094    0.0000 </r>
       <r>   13.2220    0.0000 </r>
       <r>   13.8116    0.0000 </r>
       <r>   14.4404    0.0000 </r>
       <r>   14.7877    0.0000 </r>
       <r>   15.0145    0.0000 </r>
      </set>
      <set comment="kpoint 5">
       <r>   -9.9035    1.0000 </r>
       <r>   -8.6276    1.0000 </r>
       <r>   -8.3769    1.0000 </r>
       <r>   -7.8381    1.0000 </r>
       <r>   -4.2476    1.0000 </r>
       <r>   -3.5787    1.0000 </r>
       <r>   -3.3048    1.0000 </r>
       <r>   -2.2659    1.0000 </r>
       <r>   -0.2470    1.0000 </r>
       <r>    0.6171    1.0000 </r>
       <r>    0.9796    1.0000 </r>
       <r>    1.4524    1.0000 </r>
       <r>    1.7427    1.0000 </r>
       <r>    2.1151    1.0000 </r>
       <r>    2.5703    1.0000 </r>
       <r>    2.9271    1.0000 </r>
       <r>    3.3057    1.0000 </r>
       <r>    3.4725    1.0000 </r>
       <r>    3.7166    1.0000 </r>
       <r>    4.2638    1.0000 </r>
       <r>    4.4889    1.0000 </r>
       <r>    5.1960    1.0000 </r>
       <r>    5.7390    1.0000 </r>
       <r>    5.7897    1.0000 </r>
       <r>    5.9624    1.0000 </r>
       <r>    6.3089    1.0000 </r>
       <r>    6.7076    1.0000 </r>
       <r>    7.2075    1.0000 </r>
       <r>    7.2989    1.0000 </r>
       <r>    7.5166    1.0000 </r>
       <r>    8.0366    1.0000 </r>
       <r>    8.4074    1.0000 </r>
       <r>   10.0422    0.0000 </r>
       <r>   11.1150    0.0000 </r>
       <r>   11.2773    0.0000 </r>
       <r>   12.2191    0.0000 </r>
       <r>   12.3648    0.0000 </r>
       <r>   12.4935    0.0000 </r>
       <r>   13.0736    0.0000 </r>
       <r>   13.6788    0.0000 </r>
       <r>   13.9165    0.0000 </r>
       <r>   14.2641    0.0000 </r>
       <r>   14.6384    0.0000 </r>
       <r>   15.3669    0.0000 </r>
      </set>
      <set comment="kpoint 6">
       <r>   -9.1624    1.0000 </r>
       <r>   -7.8799    1.0000 </r>
       <r>   -7.6872    1.0000 </r>
       <r>   -7.6199    1.0000 </r>
       <r>   -3.3034    1.0000 </r>
       <r>   -2.9779    1.0000 </r>
       <r>   -2.8941    1.0000 </r>
       <r>   -1.8936    1.0000 </r>
       <r>   -1.3667    1.0000 </r>
       <r>   -0.0131    1.0000 </r>
       <r>    0.1871    1.0000 </r>
       <r>    0.8292    1.0000 </r>
       <r>    1.3175    1.0000 </r>
       <r>    1.7457    1.0000 </r>
       <r>    1.9692    1.0000 </r>
       <r>    2.2268    1.0000 </r>
       <r>    2.3773    1.0000 </r>
       <r>    2.6694    1.0000 </r>
       <r>    3.3040    1.0000 </r>
       <r>    3.7961    1.0000 </r>
       <r>    4.0417    1.0000 </r>
       <r>    4.1901    1.0000 </r>
       <r>    4.6379    1.0000 </r>
       <r>    4.9926    1.0000 </r>
       <r>    5.2535    1.0000 </r>
       <r>    5.7914    1.0000 </r>
       <r>    6.2600    1.0000 </r>
       <r>    6.4792    1.0000 </r>
       <r>    6.7479    1.0000 </r>
       <r>    7.1758    1.0000 </r>
       <r>    7.4634    1.0000 </r>
       <r>    7.9609    1.0000 </r>
       <r>    9.9868    0.0000 </r>
       <r>   11.0648    0.0000 </r>
       <r>   11.8917    0.0000 </r>
       <r>   12.0848    0.0000 </r>
       <r>   12.1653    0.0000 </r>
       <r>   12.8892    0.0000 </r>
       <r>   13.1056    0.0000 </r>
       <r>   13.5971    0.0000 </r>
       <r>   14.0090    0.0000 </r>
       <r>   14.2932    0.0000 </r>
       <r>   14.5264    0.0000 </r>
       <r>   14.8459    0.0000 </r>
      </set>
      <set comment="kpoint 7">
       <r>   -8.6760    1.0000 </r>
       <r>   -7.6293    1.0000 </r>
       <r>   -7.4482    1.0000 </r>
       <r>   -7.2736    1.0000 </r>
       <r>   -3.2610    1.0000 </r>
       <r>   -2.8584    1.0000 </r>
       <r>   -2.3060    1.0000 </r>
       <r>   -2.0037    1.0000 </r>
       <r>   -1.4389    1.0000 </r>
       <r>   -0.2453    1.0000 </r>
       <r>   -0.0168    1.0000 </r>
       <r>    0.4928    1.0000 </r>
       <r>    0.8553    1.0000 </r>
       <r>    1.1432    1.0000 </r>
       <r>    1.7718    1.0000 </r>
       <r>    2.0605    1.0000 </r>
       <r>    2.1980    1.0000 </r>
       <r>    2.4602    1.0000 </r>
       <r>    2.7945    1.0000 </r>
       <r>    3.5086    1.0000 </r>
       <r>    3.7141    1.0000 </r>
       <r>    3.9121    1.0000 </r>
       <r>    4.5754    1.0000 </r>
       <r>    4.6622    1.0000 </r>
       <r>    5.2074    1.0000 </r>
       <r>    5.5010    1.0000 </r>
       <r>    5.8484    1.0000 </r>
       <r>    6.3447    1.0000 </r>
       <r>    6.4518    1.0000 </r>
       <r>    6.9056    1.0000 </r>
       <r>    7.4158    1.0000 </r>
       <r>    7.7256    1.0000 </r>
       <r>    9.7011    0.0000 </r>
       <r>   10.7620    0.0000 </r>
       <r>   11.4815    0.0000 </r>
       <r>   11.8916    0.0000 </r>
       <r>   12.2502    0.0000 </r>
       <r>   13.0546    0.0000 </r>
       <r>   13.2102    0.0000 </r>
       <r>   13.4274    0.0000 </r>
       <r>   13.9843    0.0000 </r>
       <r>   14.4459    0.0000 </r>
       <r>   14.5781    0.0000 </r>
       <r>   15.2097    0.0000 </r>
      </set>
      <set comment="kpoint 8">
       <r>   -8.5758    1.0000 </r>
       <r>   -7.6154    1.0000 </r>
       <r>   -7.3649    1.0000 </r>
       <r>   -7.1888    1.0000 </r>
       <r>   -3.1493    1.0000 </r>
       <r>   -2.7387    1.0000 </r>
       <r>   -2.1747    1.0000 </r>
       <r>   -1.6998    1.0000 </r>
       <r>   -1.3306    1.0000 </r>
       <r>   -0.1819    1.0000 </r>
       <r>    0.0605    1.0000 </r>
       <r>    0.3460    1.0000 </r>
       <r>    0.6947    1.0000 </r>
       <r>    1.0569    1.0000 </r>
       <r>    1.2667    1.0000 </r>
       <r>    1.4117    1.0000 </r>
       <r>    2.3054    1.0000 </r>
       <r>    2.6095    1.0000 </r>
       <r>    2.7619    1.0000 </r>
       <r>    3.3149    1.0000 </r>
       <r>    3.5482    1.0000 </r>
       <r>    3.9308    1.0000 </r>
       <r>    4.1821    1.0000 </r>
       <r>    4.6218    1.0000 </r>
       <r>    4.7826    1.0000 </r>
       <r>    5.2697    1.0000 </r>
       <r>    5.4075    1.0000 </r>
       <r>    5.9172    1.0000 </r>
       <r>    6.1064    1.0000 </r>
       <r>    6.4518    1.0000 </r>
       <r>    7.4770    1.0000 </r>
       <r>    8.0335    1.0000 </r>
       <r>   11.0355    0.0000 </r>
       <r>   11.7689    0.0000 </r>
       <r>   11.9696    0.0000 </r>
       <r>   12.2872    0.0000 </r>
       <r>   13.1369    0.0000 </r>
       <r>   13.3146    0.0000 </r>
       <r>   13.5818    0.0000 </r>
       <r>   13.7222    0.0000 </r>
       <r>   14.1537    0.0000 </r>
       <r>   14.3690    0.0000 </r>
       <r>   14.4839    0.0000 </r>
       <r>   14.6227    0.0000 </r>
      </set>
     </set>
    </set>
   </array>
  </eigenvalues>
  <separator name="orbital magnetization" >
   <v name="MAGDIPOLOUT">      0.00000000      0.00000000      0.00000000</v>
  </separator>
  <dos>
   <i name="efermi">      8.68594070 </i>
   <total>
    <array>
     <dimension dim="1">gridpoints</dimension>
     <dimension dim="2">spin</dimension>
     <field>energy</field>
     <field>total</field>
     <field>integrated</field>
     <set>
      <set comment="spin 1">
       <r>   -11.8971     0.0000     0.0000 </r>
       <r>   -11.8015     0.0000     0.0000 </r>
       <r>   -11.7059     0.0000     0.0000 </r>
       <r>   -11.6103     0.0000     0.0000 </r>
       <r>   -11.5146     0.0000     0.0000 </r>
       <r>   -11.4190     0.0000     0.0000 </r>
       <r>   -11.3234     0.0000     0.0000 </r>
       <r>   -11.2278     0.0000     0.0000 </r>
       <r>   -11.1322     0.0000     0.0000 </r>
       <r>   -11.0365     0.0000     0.0000 </r>
       <r>   -10.9409     0.0000     0.0000 </r>
       <r>   -10.8453     0.0001     0.0000 </r>
       <r>   -10.7497     0.0057     0.0005 </r>
       <r>   -10.6541     0.0774     0.0080 </r>
       <r>   -10.5585     0.2154     0.0286 </r>
       <r>   -10.4628     0.2682     0.0542 </r>
       <r>   -10.3672     0.9355     0.1436 </r>
       <r>   -10.2716     1.1656     0.2551 </r>
       <r>   -10.1760     0.3045     0.2842 </r>
       <r>   -10.0804     0.0313     0.2872 </r>
       <r>    -9.9847     0.3050     0.3164 </r>
       <r>    -9.8891     1.1751     0.4287 </r>
       <r>    -9.7935     1.1472     0.5384 </r>
       <r>    -9.6979     1.2177     0.6549 </r>
       <r>    -9.6023     1.0453     0.7548 </r>
       <r>    -9.5067     0.2136     0.7752 </r>
       <r>    -9.4110     0.0837     0.7832 </r>
       <r>    -9.3154     0.2893     0.8109 </r>
       <r>    -9.2198     1.2172     0.9273 </r>
       <r>    -9.1242     3.4146     1.2538 </r>
       <r>    -9.0286     3.0545     1.5459 </r>
       <r>    -8.9329     1.9148     1.7289 </r>
       <r>    -8.8373     1.8970     1.9103 </r>
       <r>    -8.7417     1.9920     2.1008 </r>
       <r>    -8.6461     2.9046     2.3785 </r>
       <r>    -8.5505     3.3004     2.6941 </r>
       <r>    -8.4549     2.2529     2.9095 </r>
       <r>    -8.3592     2.6101     3.1591 </r>
       <r>    -8.2636     1.7721     3.3286 </r>
       <r>    -8.1680     1.7196     3.4930 </r>
       <r>    -8.0724     2.0173     3.6859 </r>
       <r>    -7.9768     1.7847     3.8565 </r>
       <r>    -7.8811     3.1311     4.1559 </r>
       <r>    -7.7855     4.9148     4.6259 </r>
       <r>    -7.6899     7.2388     5.3180 </r>
       <r>    -7.5943    10.2167     6.2949 </r>
       <r>    -7.4987     6.3704     6.9040 </r>
       <r>    -7.4031     3.6858     7.2565 </r>
       <r>    -7.3074     2.9788     7.5413 </r>
       <r>    -7.2118     2.6604     7.7957 </r>
       <r>    -7.1162     1.7132     7.9595 </r>
       <r>    -7.0206     0.4009     7.9978 </r>
       <r>    -6.9250     0.0224     8.0000 </r>
       <r>    -6.8293     0.0002     8.0000 </r>
       <r>    -6.7337     0.0000     8.0000 </r>
       <r>    -6.6381     0.0000     8.0000 </r>
       <r>    -6.5425     0.0000     8.0000 </r>
       <r>    -6.4469     0.0000     8.0000 </r>
       <r>    -6.3512     0.0000     8.0000 </r>
       <r>    -6.2556     0.0000     8.0000 </r>
       <r>    -6.1600     0.0000     8.0000 </r>
       <r>    -6.0644     0.0000     8.0000 </r>
       <r>    -5.9688     0.0000     8.0000 </r>
       <r>    -5.8732     0.0000     8.0000 </r>
       <r>    -5.7775     0.0000     8.0000 </r>
       <r>    -5.6819     0.0000     8.0000 </r>
       <r>    -5.5863     0.0000     8.0000 </r>
       <r>    -5.4907     0.0000     8.0000 </r>
       <r>    -5.3951     0.0000     8.0000 </r>
       <r>    -5.2994     0.0022     8.0002 </r>
       <r>    -5.2038     0.0455     8.0046 </r>
       <r>    -5.1082     0.1887     8.0226 </r>
       <r>    -5.0126     0.1695     8.0388 </r>
       <r>    -4.9170     0.2370     8.0615 </r>
       <r>    -4.8214     1.0422     8.1611 </r>
       <r>    -4.7257     1.0682     8.2633 </r>
       <r>    -4.6301     0.2255     8.2848 </r>
       <r>    -4.5345     0.0097     8.2857 </r>
       <r>    -4.4389     0.0243     8.2881 </r>
       <r>    -4.3433     0.3431     8.3209 </r>
       <r>    -4.2476     1.2698     8.4423 </r>
       <r>    -4.1520     1.3394     8.5704 </r>
       <r>    -4.0564     1.5893     8.7223 </r>
       <r>    -3.9608     2.4129     8.9530 </r>
       <r>    -3.8652     1.3454     9.0817 </r>
       <r>    -3.7696     0.5720     9.1364 </r>
       <r>    -3.6739     1.4274     9.2729 </r>
       <r>    -3.5783     1.9358     9.4580 </r>
       <r>    -3.4827     1.4120     9.5930 </r>
       <r>    -3.3871     2.2876     9.8117 </r>
       <r>    -3.2915     6.2757    10.4118 </r>
       <r>    -3.1958     6.9605    11.0773 </r>
       <r>    -3.1002     4.1466    11.4738 </r>
       <r>    -3.0046     3.7262    11.8301 </r>
       <r>    -2.9090     6.2260    12.4254 </r>
       <r>    -2.8134     5.4200    12.9437 </r>
       <r>    -2.7178     3.6044    13.2883 </r>
       <r>    -2.6221     2.8669    13.5625 </r>
       <r>    -2.5265     1.7987    13.7344 </r>
       <r>    -2.4309     0.7161    13.8029 </r>
       <r>    -2.3353     1.2628    13.9237 </r>
       <r>    -2.2397     3.2652    14.2359 </r>
       <r>    -2.1440     3.9111    14.6099 </r>
       <r>    -2.0484     3.4164    14.9365 </r>
       <r>    -1.9528     3.5832    15.2792 </r>
       <r>    -1.8572     3.3977    15.6040 </r>
       <r>    -1.7616     1.9708    15.7925 </r>
       <r>    -1.6660     2.0364    15.9872 </r>
       <r>    -1.5703     2.0994    16.1880 </r>
       <r>    -1.4747     1.7077    16.3512 </r>
       <r>    -1.3791     3.7760    16.7123 </r>
       <r>    -1.2835     4.0618    17.1007 </r>
       <r>    -1.1879     1.2094    17.2163 </r>
       <r>    -1.0922     0.0842    17.2244 </r>
       <r>    -0.9966     0.0019    17.2246 </r>
       <r>    -0.9010     0.0429    17.2287 </r>
       <r>    -0.8054     0.5233    17.2787 </r>
       <r>    -0.7098     1.2787    17.4010 </r>
       <r>    -0.6142     0.6486    17.4630 </r>
       <r>    -0.5185     0.1028    17.4728 </r>
       <r>    -0.4229     0.5135    17.5219 </r>
       <r>    -0.3273     1.9354    17.7070 </r>
       <r>    -0.2317     3.7358    18.0642 </r>
       <r>    -0.1361     4.4670    18.4913 </r>
       <r>    -0.0404     5.2619    18.9944 </r>
       <r>     0.0552     6.5983    19.6254 </r>
       <r>     0.1508     4.5883    20.0641 </r>
       <r>     0.2464     3.1971    20.3698 </r>
       <r>     0.3420     2.3325    20.5928 </r>
       <r>     0.4376     3.4600    20.9236 </r>
       <r>     0.5333     4.2071    21.3259 </r>
       <r>     0.6289     3.5404    21.6644 </r>
       <r>     0.7245     4.0133    22.0482 </r>
       <r>     0.8201     4.1757    22.4475 </r>
       <r>     0.9157     4.2224    22.8512 </r>
       <r>     1.0114     3.5780    23.1933 </r>
       <r>     1.1070     4.8940    23.6613 </r>
       <r>     1.2026     5.6313    24.1997 </r>
       <r>     1.2982     5.4222    24.7182 </r>
       <r>     1.3938     4.9709    25.1935 </r>
       <r>     1.4894     3.4121    25.5198 </r>
       <r>     1.5851     1.3900    25.6527 </r>
       <r>     1.6807     3.1149    25.9505 </r>
       <r>     1.7763     7.8594    26.7020 </r>
       <r>     1.8719     6.5080    27.3243 </r>
       <r>     1.9675     6.0472    27.9025 </r>
       <r>     2.0632     6.8269    28.5553 </r>
       <r>     2.1588     6.0617    29.1349 </r>
       <r>     2.2544     6.4260    29.7494 </r>
       <r>     2.3500     6.9953    30.4182 </r>
       <r>     2.4456     6.3172    31.0223 </r>
       <r>     2.5413     5.1368    31.5134 </r>
       <r>     2.6369     7.7083    32.2505 </r>
       <r>     2.7325     7.8194    32.9982 </r>
       <r>     2.8281     5.8253    33.5552 </r>
       <r>     2.9237     5.5200    34.0830 </r>
       <r>     3.0193     3.9371    34.4595 </r>
       <r>     3.1150     1.7914    34.6307 </r>
       <r>     3.2106     3.1275    34.9298 </r>
       <r>     3.3062     6.1584    35.5186 </r>
       <r>     3.4018     6.3734    36.1281 </r>
       <r>     3.4974     7.0785    36.8049 </r>
       <r>     3.5931     6.2859    37.4059 </r>
       <r>     3.6887     4.0319    37.7915 </r>
       <r>     3.7843     6.7806    38.4398 </r>
       <r>     3.8799     7.7310    39.1790 </r>
       <r>     3.9755     7.5815    39.9040 </r>
       <r>     4.0711     6.8796    40.5618 </r>
       <r>     4.1668     6.9011    41.2217 </r>
       <r>     4.2624     7.1447    41.9048 </r>
       <r>     4.3580     4.5890    42.3436 </r>
       <r>     4.4536     3.3541    42.6643 </r>
       <r>     4.5492     5.1149    43.1534 </r>
       <r>     4.6449     8.4726    43.9635 </r>
       <r>     4.7405     7.5395    44.6845 </r>
       <r>     4.8361     3.7137    45.0396 </r>
       <r>     4.9317     2.9521    45.3218 </r>
       <r>     5.0273     5.4296    45.8410 </r>
       <r>     5.1229     5.0371    46.3226 </r>
       <r>     5.2186     5.9032    46.8871 </r>
       <r>     5.3142     6.0836    47.4688 </r>
       <r>     5.4098     3.4838    47.8019 </r>
       <r>     5.5054     4.4440    48.2268 </r>
       <r>     5.6010     4.8947    48.6949 </r>
       <r>     5.6967     3.0086    48.9825 </r>
       <r>     5.7923     5.3934    49.4982 </r>
       <r>     5.8879     7.4210    50.2078 </r>
       <r>     5.9835     6.5963    50.8386 </r>
       <r>     6.0791     3.4054    51.1642 </r>
       <r>     6.1747     2.3147    51.3855 </r>
       <r>     6.2704     5.1869    51.8815 </r>
       <r>     6.3660     8.6278    52.7064 </r>
       <r>     6.4616     8.8403    53.5517 </r>
       <r>     6.5572     6.7150    54.1938 </r>
       <r>     6.6528     4.0368    54.5798 </r>
       <r>     6.7485     6.1571    55.1685 </r>
       <r>     6.8441     5.1678    55.6627 </r>
       <r>     6.9397     3.6342    56.0102 </r>
       <r>     7.0353     2.7712    56.2751 </r>
       <r>     7.1309     4.1922    56.6760 </r>
       <r>     7.2265     7.5576    57.3986 </r>
       <r>     7.3222     8.1943    58.1822 </r>
       <r>     7.4178     8.9042    59.0336 </r>
       <r>     7.5134     8.5435    59.8505 </r>
       <r>     7.6090     4.4311    60.2742 </r>
       <r>     7.7046     2.6275    60.5254 </r>
       <r>     7.8003     3.1487    60.8265 </r>
       <r>     7.8959     4.1594    61.2242 </r>
       <r>     7.9915     7.5561    61.9467 </r>
       <r>     8.0871     7.2953    62.6443 </r>
       <r>     8.1827     2.9113    62.9226 </r>
       <r>     8.2783     1.5112    63.0671 </r>
       <r>     8.3740     2.0336    63.2616 </r>
       <r>     8.4696     1.8664    63.4400 </r>
       <r>     8.5652     1.9742    63.6288 </r>
       <r>     8.6608     3.0822    63.9235 </r>
       <r>     8.7564     2.5612    64.1684 </r>
       <r>     8.8521     1.1663    64.2800 </r>
       <r>     8.9477     1.0264    64.3781 </r>
       <r>     9.0433     1.2327    64.4960 </r>
       <r>     9.1389     0.6363    64.5568 </r>
       <r>     9.2345     1.2427    64.6756 </r>
       <r>     9.3301     1.2035    64.7907 </r>
       <r>     9.4258     0.2570    64.8153 </r>
       <r>     9.5214     0.0254    64.8177 </r>
       <r>     9.6170     0.3169    64.8480 </r>
       <r>     9.7126     1.5886    64.9999 </r>
       <r>     9.8082     2.2361    65.2137 </r>
       <r>     9.9039     1.5522    65.3621 </r>
       <r>     9.9995     3.0926    65.6579 </r>
       <r>    10.0951     3.7585    66.0172 </r>
       <r>    10.1907     2.2057    66.2281 </r>
       <r>    10.2863     1.3100    66.3534 </r>
       <r>    10.3819     1.3238    66.4800 </r>
       <r>    10.4776     0.4912    66.5270 </r>
       <r>    10.5732     0.0474    66.5315 </r>
       <r>    10.6688     0.2309    66.5536 </r>
       <r>    10.7644     1.0756    66.6564 </r>
       <r>    10.8600     1.0626    66.7580 </r>
       <r>    10.9557     0.9525    66.8491 </r>
       <r>    11.0513     4.3257    67.2627 </r>
       <r>    11.1469     6.3118    67.8662 </r>
       <r>    11.2425     3.8934    68.2385 </r>
       <r>    11.3381     2.5311    68.4805 </r>
       <r>    11.4337     2.0066    68.6724 </r>
       <r>    11.5294     3.1058    68.9694 </r>
       <r>    11.6250     2.4204    69.2008 </r>
       <r>    11.7206     2.0653    69.3983 </r>
       <r>    11.8162     4.0486    69.7854 </r>
       <r>    11.9118     6.2849    70.3864 </r>
       <r>    12.0075     6.0249    70.9625 </r>
       <r>    12.1031     6.0958    71.5453 </r>
       <r>    12.1987     8.6978    72.3770 </r>
       <r>    12.2943     7.5398    73.0979 </r>
       <r>    12.3899     5.4575    73.6198 </r>
       <r>    12.4856     3.8631    73.9892 </r>
       <r>    12.5812     2.0764    74.1877 </r>
       <r>    12.6768     1.2916    74.3112 </r>
       <r>    12.7724     1.8699    74.4900 </r>
       <r>    12.8680     3.6576    74.8397 </r>
       <r>    12.9636     5.3079    75.3473 </r>
       <r>    13.0593     5.2910    75.8532 </r>
       <r>    13.1549     7.1032    76.5324 </r>
       <r>    13.2505     6.4293    77.1471 </r>
       <r>    13.3461     5.7290    77.6949 </r>
       <r>    13.4417     3.6929    78.0480 </r>
       <r>    13.5374     3.2610    78.3598 </r>
       <r>    13.6330     6.7892    79.0090 </r>
       <r>    13.7286     7.2955    79.7066 </r>
       <r>    13.8242     4.6446    80.1507 </r>
       <r>    13.9198     4.6386    80.5942 </r>
       <r>    14.0154     7.0148    81.2650 </r>
       <r>    14.1111     5.3737    81.7788 </r>
       <r>    14.2067     3.2703    82.0915 </r>
       <r>    14.3023     5.0702    82.5763 </r>
       <r>    14.3979     7.3932    83.2832 </r>
       <r>    14.4935     8.9407    84.1381 </r>
       <r>    14.5892     8.4305    84.9442 </r>
       <r>    14.6848     6.4469    85.5607 </r>
       <r>    14.7804     4.1474    85.9572 </r>
       <r>    14.8760     4.9049    86.4262 </r>
       <r>    14.9716     3.4927    86.7602 </r>
       <r>    15.0672     1.9584    86.9475 </r>
       <r>    15.1629     2.1743    87.1554 </r>
       <r>    15.2585     2.5997    87.4039 </r>
       <r>    15.3541     1.9934    87.5946 </r>
       <r>    15.4497     2.1195    87.7972 </r>
       <r>    15.5453     1.6050    87.9507 </r>
       <r>    15.6410     0.4812    87.9967 </r>
       <r>    15.7366     0.0342    88.0000 </r>
       <r>    15.8322     0.0005    88.0000 </r>
       <r>    15.9278     0.0000    88.0000 </r>
       <r>    16.0234     0.0000    88.0000 </r>
       <r>    16.1190     0.0000    88.0000 </r>
       <r>    16.2147     0.0000    88.0000 </r>
       <r>    16.3103     0.0000    88.0000 </r>
       <r>    16.4059     0.0000    88.0000 </r>
       <r>    16.5015     0.0000    88.0000 </r>
       <r>    16.5971     0.0000    88.0000 </r>
       <r>    16.6928     0.0000    88.0000 </r>
       <r>    16.7884     0.0000    88.0000 </r>
      </set>
     </set>
    </array>
   </total>
  </dos>
 </calculation>
 <structure name="finalpos" >
  <crystal>
   <varray name="basis" >
    <v>       3.22370557       0.00000000       0.00000000 </v>
    <v>      -1.61185278       2.79181092       0.00000000 </v>
    <v>       0.00000000       0.00000000      18.81985222 </v>
   </varray>
   <i name="volume">    169.37822595 </i>
   <varray name="rec_basis" >
    <v>       0.31020203       0.17909522       0.00000000 </v>
    <v>       0.00000000       0.35819045       0.00000000 </v>
    <v>       0.00000000       0.00000000       0.05313538 </v>
   </varray>
  </crystal>
  <varray name="positions" >
   <v>       0.33333333       0.66666667       0.72399794 </v>
   <v>       0.66666667       0.33333333       0.12597241 </v>
   <v>       0.66666667       0.33333333       0.60377924 </v>
   <v>       0.66666667       0.33333333       0.86701200 </v>
   <v>       0.33333333       0.66666667       0.98803537 </v>
   <v>       0.33333333       0.66666667       0.25976092 </v>
   <v>       0.33333333       0.66666667       0.48799363 </v>
   <v>       0.66666667       0.33333333       0.38625049 </v>
   <v>       0.33333333       0.66666667       0.36077835 </v>
   <v>       0.66666667       0.33333333       0.50019988 </v>
   <v>       0.66666667       0.33333333       0.71523743 </v>
   <v>       0.66666667       0.33333333       0.96298877 </v>
   <v>       0.33333333       0.66666667       0.09936703 </v>
   <v>       0.33333333       0.66666667       0.61440611 </v>
   <v>       0.33333333       0.66666667       0.83601753 </v>
   <v>       0.66666667       0.33333333       0.21820292 </v>
  </varray>
 </structure>
</modeling>
