<?xml version="1.0" encoding="ISO-8859-1"?>
<modeling>
 <generator>
  <i name="program" type="string">vasp </i>
  <i name="version" type="string">5.3.5  </i>
  <i name="subversion" type="string">31Mar14 (build Jun 20 2014 13:15:13) complex                          parallel </i>
  <i name="platform" type="string">LinuxIFC </i>
  <i name="date" type="string">2025 12 12 </i>
  <i name="time" type="string">12:12:44 </i>
 </generator>
 <incar>
  <i type="string" name="PREC">accurate</i>
  <i type="int" name="IALGO">    38</i>
  <i type="logical" name="ADDGRID"> T  </i>
  <i type="int" name="ISPIN">     2</i>
  <i type="int" name="NELM">   100</i>
  <i type="int" name="NELMIN">     4</i>
  <i name="EDIFF">      0.00000100</i>
  <i name="ENCUT">    500.00000000</i>
  <i type="logical" name="LREAL"> F  </i>
  <i type="int" name="ISMEAR">     0</i>
  <i name="SIGMA">      0.05000000</i>
  <i type="logical" name="LWAVE"> F  </i>
  <i type="logical" name="LCHARG"> F  </i>
  <i type="int" name="NELM">   100</i>
  <i type="logical" name="LDAU"> T  </i>
  <v name="LDAUU">      0.00000000      4.00000000      0.00000000</v>
  <v name="LDAUJ">      0.00000000      0.00000000      0.00000000</v>
 </incar>
 <kpoints>
  <generation param="Auto">
   <i name="subdivisionlength">     20.00000000 </i>
   <v type="int" name="divisions">       2        4        2 </v>
   <v name="usershift">      0.00000000       0.00000000       0.00000000 </v>
   <v name="genvec1">      0.50000000       0.00000000       0.00000000 </v>
   <v name="genvec2">      0.00000000       0.25000000       0.00000000 </v>
   <v name="genvec3">      0.00000000       0.00000000       0.50000000 </v>
   <v name="shift">      0.00000000       0.00000000       0.00000000 </v>
  </generation>
  <varray name="kpointlist" >
   <v>       0.00000000       0.00000000       0.00000000 </v>
   <v>       0.50000000       0.00000000       0.00000000 </v>
   <v>       0.00000000       0.25000000       0.00000000 </v>
   <v>       0.50000000       0.25000000       0.00000000 </v>
   <v>       0.00000000       0.50000000       0.00000000 </v>
   <v>       0.50000000       0.50000000       0.00000000 </v>
   <v>       0.00000000       0.00000000       0.50000000 </v>
   <v>       0.50000000       0.00000000       0.50000000 </v>
   <v>       0.00000000       0.25000000       0.50000000 </v>
   <v>       0.50000000       0.25000000       0.50000000 </v>
   <v>       0.00000000       0.50000000       0.50000000 </v>
   <v>       0.50000000       0.50000000       0.50000000 </v>
  </varray>
  <varray name="weights" >
   <v>       0.06250000 </v>
   <v>       0.06250000 </v>
   <v>       0.12500000 </v>
   <v>       0.12500000 </v>
   <v>       0.06250000 </v>
   <v>       0.06250000 </v>
   <v>       0.06250000 </v>
   <v>       0.06250000 </v>
   <v>       0.12500000 </v>
   <v>       0.12500000 </v>
   <v>       0.06250000 </v>
   <v>       0.06250000 </v>
  </varray>
 </kpoints>
 <parameters>
  <separator name="general" >
   <i type="string" name="SYSTEM">unknown system</i>
   <i type="logical" name="LCOMPAT"> F  </i>
  </separator>
  <separator name="electronic" >
   <i type="string" name="PREC">accura</i>
   <i name="ENMAX">    500.00000000</i>
   <i name="ENAUG">    586.98000000</i>
   <i name="EDIFF">      0.00000100</i>
   <i type="int" name="IALGO">    38</i>
   <i type="int" name="IWAVPR">    10</i>
   <i type="int" name="NBANDS">   176</i>
   <i name="NELECT">    264.00000000</i>
   <i type="int" name="TURBO">     0</i>
   <i type="int" name="IRESTART">     0</i>
   <i type="int" name="NREBOOT">     0</i>
   <i type="int" name="NMIN">     0</i>
   <i name="EREF">      0.00000000</i>
   <separator name="electronic smearing" >
    <i type="int" name="ISMEAR">     0</i>
    <i name="SIGMA">      0.05000000</i>
    <i name="KSPACING">      0.50000000</i>
    <i type="logical" name="KGAMMA"> T  </i>
   </separator>
   <separator name="electronic projectors" >
    <i type="logical" name="LREAL"> F  </i>
    <v name="ROPT">      0.00000000      0.00000000      0.00000000</v>
    <i type="int" name="LMAXPAW">  -100</i>
    <i type="int" name="LMAXMIX">     2</i>
    <i type="logical" name="NLSPLINE"> F  </i>
   </separator>
   <separator name="electronic startup" >
    <i type="int" name="ISTART">     0</i>
    <i type="int" name="ICHARG">     2</i>
    <i type="int" name="INIWAV">     1</i>
   </separator>
   <separator name="electronic spin" >
    <i type="int" name="ISPIN">     2</i>
    <i type="logical" name="LNONCOLLINEAR"> F  </i>
    <v name="MAGMOM">      1.00000000      1.00000000      1.00000000      1.00000000      1.00000000      1.00000000      1.00000000      1.00000000      1.00000000      1.00000000      1.00000000      1.00000000      1.00000000      1.00000000      1.00000000      1.00000000      1.00000000      1.00000000      1.00000000      1.00000000
      1.00000000      1.00000000      1.00000000      1.00000000      1.00000000      1.00000000      1.00000000      1.00000000      1.00000000      1.00000000      1.00000000      1.00000000</v>
    <i name="NUPDOWN">     -1.00000000</i>
    <i type="logical" name="LSORBIT"> F  </i>
    <v name="SAXIS">      0.00000000      0.00000000      1.00000000</v>
    <i type="logical" name="LSPIRAL"> F  </i>
    <v name="QSPIRAL">      0.00000000      0.00000000      0.00000000</v>
    <i type="logical" name="LZEROZ"> F  </i>
   </separator>
   <separator name="electronic exchange-correlation" >
    <i type="logical" name="LASPH"> F  </i>
    <i type="logical" name="LMETAGGA"> F  </i>
   </separator>
   <separator name="electronic convergence" >
    <i type="int" name="NELM">   100</i>
    <i type="int" name="NELMDL">    -5</i>
    <i type="int" name="NELMIN">     4</i>
    <i name="ENINI">    500.00000000</i>
    <separator name="electronic convergence detail" >
     <i type="logical" name="LDIAG"> T  </i>
     <i type="logical" name="LSUBROT"> F  </i>
     <i name="WEIMIN">      0.00000000</i>
     <i name="EBREAK">      0.00000000</i>
     <i name="DEPER">      0.30000000</i>
     <i type="int" name="NRMM">     4</i>
     <i name="TIME">      0.40000000</i>
    </separator>
   </separator>
   <separator name="electronic mixer" >
    <i name="AMIX">      0.40000000</i>
    <i name="BMIX">      1.00000000</i>
    <i name="AMIN">      0.10000000</i>
    <i name="AMIX_MAG">      1.60000000</i>
    <i name="BMIX_MAG">      1.00000000</i>
    <separator name="electronic mixer details" >
     <i type="int" name="IMIX">     4</i>
     <i type="int" name="MAXMIX">   -45</i>
     <i name="WC">    100.00000000</i>
     <i type="int" name="INIMIX">     1</i>
     <i type="int" name="MIXPRE">     1</i>
     <i type="int" name="MREMOVE">     5</i>
    </separator>
   </separator>
   <separator name="electronic dipolcorrection" >
    <i type="logical" name="LDIPOL"> F  </i>
    <i type="logical" name="LMONO"> F  </i>
    <i type="int" name="IDIPOL">     0</i>
    <i name="EPSILON">      1.00000000</i>
    <v name="DIPOL">   -100.00000000   -100.00000000   -100.00000000</v>
    <i name="EFIELD">      0.00000000</i>
   </separator>
  </separator>
  <separator name="grids" >
   <i type="int" name="NGX">    72</i>
   <i type="int" name="NGY">    42</i>
   <i type="int" name="NGZ">    72</i>
   <i type="int" name="NGXF">   144</i>
   <i type="int" name="NGYF">    84</i>
   <i type="int" name="NGZF">   144</i>
   <i type="logical" name="ADDGRID"> T  </i>
  </separator>
  <separator name="ionic" >
   <i type="int" name="NSW">     0</i>
   <i type="int" name="IBRION">    -1</i>
   <i type="int" name="ISIF">     2</i>
   <i name="PSTRESS">      0.00000000</i>
   <i name="EDIFFG">      0.00001000</i>
   <i type="int" name="NFREE">     0</i>
   <i name="POTIM">      0.50000000</i>
   <i name="SMASS">     -3.00000000</i>
   <i name="SCALEE">      1.00000000</i>
  </separator>
  <separator name="ionic md" >
   <i name="TEBEG">      0.00010000</i>
   <i name="TEEND">      0.00010000</i>
   <i type="int" name="NBLOCK">     1</i>
   <i type="int" name="KBLOCK">     1</i>
   <i type="int" name="NPACO">   256</i>
   <i name="APACO">     16.00000000</i>
  </separator>
  <separator name="symmetry" >
   <i type="int" name="ISYM">     2</i>
   <i name="SYMPREC">      0.00001000</i>
  </separator>
  <separator name="dos" >
   <i type="logical" name="LORBIT"> F  </i>
   <v name="RWIGS">     -1.00000000     -1.00000000     -1.00000000</v>
   <i type="int" name="NEDOS">   301</i>
   <i name="EMIN">     10.00000000</i>
   <i name="EMAX">    -10.00000000</i>
   <i name="EFERMI">      0.00000000</i>
  </separator>
  <separator name="writing" >
   <i type="int" name="NWRITE">     2</i>
   <i type="logical" name="LWAVE"> F  </i>
   <i type="logical" name="LCHARG"> F  </i>
   <i type="logical" name="LPARD"> F  </i>
   <i type="logical" name="LVTOT"> F  </i>
   <i type="logical" name="LVHAR"> F  </i>
   <i type="logical" name="LELF"> F  </i>
   <i type="logical" name="LOPTICS"> F  </i>
   <v name="STM">      0.00000000      0.00000000      0.00000000      0.00000000      0.00000000      0.00000000      0.00000000</v>
  </separator>
  <separator name="performance" >
   <i type="int" name="NPAR">     4</i>
   <i type="int" name="NSIM">     4</i>
   <i type="int" name="NBLK">    -1</i>
   <i type="logical" name="LPLANE"> T  </i>
   <i type="logical" name="LSCALAPACK"> T  </i>
   <i type="logical" name="LSCAAWARE"> F  </i>
   <i type="logical" name="LSCALU"> F  </i>
   <i type="logical" name="LASYNC"> F  </i>
   <i type="logical" name="LORBITALREAL"> F  </i>
  </separator>
  <separator name="miscellaneous" >
   <i type="int" name="IDIOT">     3</i>
   <i type="logical" name="LMUSIC"> F  </i>
   <v name="POMASS">     87.62000000     63.54600000     16.00000000</v>
   <v name="DARWINR">      0.00000000      0.00000000      0.00000000</v>
   <v name="DARWINV">      1.00000000      1.00000000      1.00000000</v>
   <i type="logical" name="LCORR"> T  </i>
  </separator>
  <i type="logical" name="GGA_COMPAT"> T  </i>
  <i type="logical" name="LBERRY"> F  </i>
  <i type="int" name="ICORELEVEL">     0</i>
  <i type="logical" name="LDAU"> T  </i>
  <v type="int" name="LDAUTYPE">     2</v>
  <v type="int" name="LDAUL">     2</v>
  <v name="LDAUU">      0.00000000</v>
  <v name="LDAUJ">      0.00000000</v>
  <i type="int" name="LDAUPRINT">     0</i>
  <i type="int" name="I_CONSTRAINED_M">     0</i>
  <separator name="electronic exchange-correlation" >
   <i type="string" name="GGA">--</i>
   <i type="int" name="VOSKOWN">     0</i>
   <i type="logical" name="LHFCALC"> F  </i>
   <i type="string" name="PRECFOCK"></i>
   <i type="logical" name="LSYMGRAD"> F  </i>
   <i type="logical" name="LHFONE"> F  </i>
   <i type="logical" name="LRHFCALC"> F  </i>
   <i type="logical" name="LTHOMAS"> F  </i>
   <i type="logical" name="LMODELHF"> F  </i>
   <i name="ENCUT4O">     -1.00000000</i>
   <i type="int" name="EXXOEP">     0</i>
   <i type="int" name="FOURORBIT">     0</i>
   <i name="AEXX">      0.00000000</i>
   <i name="HFALPHA">      0.00000000</i>
   <i name="MCALPHA">      0.00000000</i>
   <i name="ALDAX">      1.00000000</i>
   <i name="AGGAX">      1.00000000</i>
   <i name="ALDAC">      1.00000000</i>
   <i name="AGGAC">      1.00000000</i>
   <i type="int" name="NKREDX">     1</i>
   <i type="int" name="NKREDY">     1</i>
   <i type="int" name="NKREDZ">     1</i>
   <i type="logical" name="SHIFTRED"> F  </i>
   <i type="logical" name="ODDONLY"> F  </i>
   <i type="logical" name="EVENONLY"> F  </i>
   <i type="int" name="LMAXFOCK">     0</i>
   <i type="int" name="NMAXFOCKAE">     0</i>
   <i type="logical" name="LFOCKAEDFT"> F  </i>
   <i name="HFSCREEN">      0.00000000</i>
   <i name="HFSCREENC">      0.00000000</i>
   <i type="int" name="NBANDSGWLOW">     0</i>
  </separator>
  <separator name="vdW DFT" >
   <i type="logical" name="LUSE_VDW"> F  </i>
   <i name="Zab_VDW">     -0.84910000</i>
   <i name="PARAM1">      0.12340000</i>
   <i name="PARAM2">      1.00000000</i>
   <i name="PARAM3">      0.00000000</i>
  </separator>
  <separator name="model GW" >
   <i type="int" name="MODEL_GW">     0</i>
   <i name="MODEL_EPS0">      9.60000000</i>
   <i name="MODEL_ALPHA">      1.00000000</i>
  </separator>
  <separator name="linear response parameters" >
   <i type="logical" name="LEPSILON"> F  </i>
   <i type="logical" name="LRPA"> F  </i>
   <i type="logical" name="LNABLA"> F  </i>
   <i type="logical" name="LVEL"> F  </i>
   <i type="int" name="KINTER">     0</i>
   <i name="CSHIFT">      0.10000000</i>
   <i name="OMEGAMAX">     -1.00000000</i>
   <i name="DEG_THRESHOLD">      0.00200000</i>
  </separator>
  <separator name="orbital magnetization" >
   <i type="logical" name="NUCIND"> F  </i>
   <v name="MAGPOS">      0.00000000      0.00000000      0.00000000</v>
   <i type="logical" name="LNICSALL"> T  </i>
   <i type="logical" name="ORBITALMAG"> F  </i>
   <i type="logical" name="LMAGBLOCH"> F  </i>
   <i type="logical" name="LCHIMAG"> F  </i>
   <i type="logical" name="LGAUGE"> T  </i>
   <i type="int" name="MAGATOM">     0</i>
   <v name="MAGDIPOL">      0.00000000      0.00000000      0.00000000</v>
   <v name="AVECCONST">      0.00000000      0.00000000      0.00000000</v>
  </separator>
  <separator name="response functions" >
   <i type="logical" name="LADDER"> F  </i>
   <i type="logical" name="LFXC"> F  </i>
   <i type="logical" name="LHARTREE"> T  </i>
   <i type="int" name="IBSE">     0</i>
   <i type="logical" name="LTCTE"> F  </i>
   <i type="logical" name="LTETE"> F  </i>
   <i type="logical" name="LTRIPLET"> F  </i>
   <i type="logical" name="LFXCEPS"> F  </i>
   <i type="logical" name="LFXHEG"> F  </i>
   <i type="logical" name="L2ORDER"> F  </i>
   <i type="logical" name="LUSEW"> F  </i>
   <i name="ENCUTGW">     -2.00000000</i>
   <i name="ENCUTGWSOFT">     -2.00000000</i>
   <i name="ENCUTLF">     -1.00000000</i>
   <i type="int" name="LMAXMP2">    -1</i>
   <i name="SCISSOR">      0.00000000</i>
   <i type="int" name="NOMEGA">     0</i>
   <i type="int" name="NOMEGAR">     0</i>
   <i type="int" name="NBANDSGW">    -1</i>
   <i type="int" name="NBANDSO">    -1</i>
   <i type="int" name="NBANDSV">    -1</i>
   <i type="int" name="NELM">   100</i>
   <i type="int" name="DIM">     3</i>
   <i type="int" name="ANTIRES">     0</i>
   <i name="OMEGAMAX">    -30.00000000</i>
   <i name="OMEGAMIN">    -30.00000000</i>
   <i name="OMEGATL">   -200.00000000</i>
   <i type="int" name="OMEGAGRID">     0</i>
   <i name="CSHIFT">     -0.10000000</i>
   <i type="logical" name="SELFENERGY"> F  </i>
   <i type="logical" name="LSPECTRAL"> F  </i>
   <i type="logical" name="ODDONLYGW"> F  </i>
   <i type="logical" name="EVENONLYGW"> F  </i>
   <i type="int" name="NKREDLFX">     1</i>
   <i type="int" name="NKREDLFY">     1</i>
   <i type="int" name="NKREDLFZ">     1</i>
   <i type="int" name="MAXMEM">  1800</i>
   <i type="int" name="TELESCOPE">     0</i>
   <i type="int" name="TAUPAR">     1</i>
  </separator>
  <separator name="External order field" >
   <i name="OFIELD_KAPPA">      0.00000000</i>
   <v name="OFIELD_K">      0.00000000      0.00000000      0.00000000</v>
   <i name="OFIELD_Q6_NEAR">      0.00000000</i>
   <i name="OFIELD_Q6_FAR">      0.00000000</i>
   <i name="OFIELD_A">      0.00000000</i>
  </separator>
 </parameters>
 <atominfo>
  <atoms>      32 </atoms>
  <types>       3 </types>
  <array name="atoms" >
   <dimension dim="1">ion</dimension>
   <field type="string">element</field>
   <field type="int">atomtype</field>
   <set>
    <rc><c>Sr</c><c>   1</c></rc>
    <rc><c>Sr</c><c>   1</c></rc>
    <rc><c>Sr</c><c>   1</c></rc>
    <rc><c>Sr</c><c>   1</c></rc>
    <rc><c>Sr</c><c>   1</c></rc>
    <rc><c>Sr</c><c>   1</c></rc>
    <rc><c>Sr</c><c>   1</c></rc>
    <rc><c>Sr</c><c>   1</c></rc>
    <rc><c>Cu</c><c>   2</c></rc>
    <rc><c>Cu</c><c>   2</c></rc>
    <rc><c>Cu</c><c>   2</c></rc>
    <rc><c>Cu</c><c>   2</c></rc>
    <rc><c>Cu</c><c>   2</c></rc>
    <rc><c>Cu</c><c>   2</c></rc>
    <rc><c>Cu</c><c>   2</c></rc>
    <rc><c>Cu</c><c>   2</c></rc>
    <rc><c>O </c><c>   3</c></rc>
    <rc><c>O </c><c>   3</c></rc>
    <rc><c>O </c><c>   3</c></rc>
    <rc><c>O </c><c>   3</c></rc>
    <rc><c>O </c><c>   3</c></rc>
    <rc><c>O </c><c>   3</c></rc>
    <rc><c>O </c><c>   3</c></rc>
    <rc><c>O </c><c>   3</c></rc>
    <rc><c>O </c><c>   3</c></rc>
    <rc><c>O </c><c>   3</c></rc>
    <rc><c>O </c><c>   3</c></rc>
    <rc><c>O </c><c>   3</c></rc>
    <rc><c>O </c><c>   3</c></rc>
    <rc><c>O </c><c>   3</c></rc>
    <rc><c>O </c><c>   3</c></rc>
    <rc><c>O </c><c>   3</c></rc>
   </set>
  </array>
  <array name="atomtypes" >
   <dimension dim="1">type</dimension>
   <field type="int">atomspertype</field>
   <field type="string">element</field>
   <field>mass</field>
   <field>valence</field>
   <field type="string">pseudopotential</field>
   <set>
    <rc><c>   8</c><c>Sr</c><c>     87.62000000</c><c>     10.00000000</c><c>  PAW_PBE Sr_sv 07Sep2000               </c></rc>
    <rc><c>   8</c><c>Cu</c><c>     63.54600000</c><c>     11.00000000</c><c>  PAW_PBE Cu 22Jun2005                  </c></rc>
    <rc><c>  16</c><c>O </c><c>     16.00000000</c><c>      6.00000000</c><c>  PAW_PBE O_s 07Sep2000                 </c></rc>
   </set>
  </array>
 </atominfo>
 <structure name="initialpos" >
  <crystal>
   <varray name="basis" >
    <v>       9.79795897       0.00000000       0.00000000 </v>
    <v>       0.00000000       5.65685425       0.00000000 </v>
    <v>      -3.26598632       0.00000000       9.23760431 </v>
   </varray>
   <i name="volume">    512.00000000 </i>
   <varray name="rec_basis" >
    <v>       0.10206207       0.00000000       0.03608439 </v>
    <v>       0.00000000       0.17677670       0.00000000 </v>
    <v>       0.00000000       0.00000000       0.10825318 </v>
   </varray>
  </crystal>
  <varray name="positions" >
   <v>       0.25000000       0.75000000       0.00000000 </v>
   <v>       0.50000000       0.75000000       0.75000000 </v>
   <v>       0.25000000       0.25000000       0.50000000 </v>
   <v>       0.00000000       0.75000000       0.25000000 </v>
   <v>       0.75000000       0.25000000       0.00000000 </v>
   <v>       0.00000000       0.25000000       0.75000000 </v>
   <v>       0.75000000       0.75000000       0.50000000 </v>
   <v>       0.50000000       0.25000000       0.25000000 </v>
   <v>       0.12500000       0.25000000       0.12500000 </v>
   <v>       0.37500000       0.25000000       0.87500000 </v>
   <v>       0.12500000       0.75000000       0.62500000 </v>
   <v>       0.37500000       0.75000000       0.37500000 </v>
   <v>       0.62500000       0.75000000       0.12500000 </v>
   <v>       0.87500000       0.75000000       0.87500000 </v>
   <v>       0.62500000       0.25000000       0.62500000 </v>
   <v>       0.87500000       0.25000000       0.37500000 </v>
   <v>       0.25000000       0.25000000       0.00000000 </v>
   <v>       0.25000000       0.75000000       0.50000000 </v>
   <v>       0.25000000       0.00000000       0.75000000 </v>
   <v>       0.50000000       0.00000000       0.50000000 </v>
   <v>       0.25000000       0.50000000       0.25000000 </v>
   <v>       0.00000000       0.50000000       0.00000000 </v>
   <v>       0.25000000       0.50000000       0.75000000 </v>
   <v>       0.25000000       0.00000000       0.25000000 </v>
   <v>       0.75000000       0.75000000       0.00000000 </v>
   <v>       0.75000000       0.25000000       0.50000000 </v>
   <v>       0.75000000       0.50000000       0.75000000 </v>
   <v>       0.00000000       0.50000000       0.50000000 </v>
   <v>       0.75000000       0.00000000       0.25000000 </v>
   <v>       0.50000000       0.00000000       0.00000000 </v>
   <v>       0.75000000       0.00000000       0.75000000 </v>
   <v>       0.75000000       0.50000000       0.25000000 </v>
  </varray>
 </structure>
 <calculation>
  <scstep>
   <time name="dav">   13.22   13.22</time>
   <time name="total">   13.65   13.67</time>
   <energy>
    <i name="alphaZ">   1197.30728288 </i>
    <i name="ewald"> -17357.92105911 </i>
    <i name="hartreedc">  -7530.39515748 </i>
    <i name="XCdc">   1086.29897550 </i>
    <i name="pawpsdc">  20377.93945936 </i>
    <i name="pawaedc"> -21035.46554250 </i>
    <i name="eentropy">     -0.00861919 </i>
    <i name="bandstr">   1948.59915258 </i>
    <i name="atom">  24790.01456472 </i>
    <i name="e_fr_energy">   3476.36905676 </i>
    <i name="e_wo_entrp">   3476.37767595 </i>
    <i name="e_0_energy">   3476.37336636 </i>
   </energy>
  </scstep>
  <scstep>
   <time name="dav">   13.47   13.47</time>
   <time name="total">   13.47   13.49</time>
   <energy>
    <i name="e_fr_energy">    412.47817354 </i>
    <i name="e_wo_entrp">    412.49305797 </i>
    <i name="e_0_energy">    412.48561575 </i>
   </energy>
  </scstep>
  <scstep>
   <time name="dav">   13.40   13.40</time>
   <time name="total">   13.40   13.42</time>
   <energy>
    <i name="e_fr_energy">   -138.64573866 </i>
    <i name="e_wo_entrp">   -138.62804904 </i>
    <i name="e_0_energy">   -138.63689385 </i>
   </energy>
  </scstep>
  <scstep>
   <time name="dav">   17.35   17.36</time>
   <time name="total">   17.36   17.38</time>
   <energy>
    <i name="e_fr_energy">   -189.81017078 </i>
    <i name="e_wo_entrp">   -189.79628471 </i>
    <i name="e_0_energy">   -189.80322775 </i>
   </energy>
  </scstep>
  <scstep>
   <time name="dav">   21.05   21.06</time>
   <time name="total">   21.92   21.94</time>
   <energy>
    <i name="e_fr_energy">   -193.06462555 </i>
    <i name="e_wo_entrp">   -193.04974571 </i>
    <i name="e_0_energy">   -193.05718563 </i>
   </energy>
  </scstep>
  <scstep>
   <time name="dav">   18.80   18.81</time>
   <time name="total">   20.10   20.12</time>
   <energy>
    <i name="e_fr_energy">   -173.18083153 </i>
    <i name="e_wo_entrp">   -173.14539828 </i>
    <i name="e_0_energy">   -173.16311490 </i>
   </energy>
  </scstep>
  <scstep>
   <time name="dav">   18.48   18.48</time>
   <time name="total">   19.77   19.79</time>
   <energy>
    <i name="e_fr_energy">   -156.77852279 </i>
    <i name="e_wo_entrp">   -156.74884423 </i>
    <i name="e_0_energy">   -156.76368351 </i>
   </energy>
  </scstep>
  <scstep>
   <time name="dav">   18.98   18.99</time>
   <time name="total">   20.27   20.29</time>
   <energy>
    <i name="e_fr_energy">   -156.20290369 </i>
    <i name="e_wo_entrp">   -156.18295684 </i>
    <i name="e_0_energy">   -156.19293027 </i>
   </energy>
  </scstep>
  <scstep>
   <time name="dav">   18.90   18.90</time>
   <time name="total">   20.19   20.21</time>
   <energy>
    <i name="e_fr_energy">   -155.68607020 </i>
    <i name="e_wo_entrp">   -155.67868380 </i>
    <i name="e_0_energy">   -155.68237700 </i>
   </energy>
  </scstep>
  <scstep>
   <time name="dav">   18.49   18.49</time>
   <time name="total">   19.78   19.79</time>
   <energy>
    <i name="e_fr_energy">   -155.71261802 </i>
    <i name="e_wo_entrp">   -155.70593096 </i>
    <i name="e_0_energy">   -155.70927449 </i>
   </energy>
  </scstep>
  <scstep>
   <time name="dav">   17.87   17.87</time>
   <time name="total">   19.16   19.18</time>
   <energy>
    <i name="e_fr_energy">   -155.76489904 </i>
    <i name="e_wo_entrp">   -155.75618952 </i>
    <i name="e_0_energy">   -155.76054428 </i>
   </energy>
  </scstep>
  <scstep>
   <time name="dav">   17.59   17.59</time>
   <time name="total">   18.88   18.90</time>
   <energy>
    <i name="e_fr_energy">   -155.77850361 </i>
    <i name="e_wo_entrp">   -155.76898242 </i>
    <i name="e_0_energy">   -155.77374302 </i>
   </energy>
  </scstep>
  <scstep>
   <time name="dav">   18.73   18.73</time>
   <time name="total">   20.01   20.04</time>
   <energy>
    <i name="e_fr_energy">   -155.77490839 </i>
    <i name="e_wo_entrp">   -155.76514359 </i>
    <i name="e_0_energy">   -155.77002599 </i>
   </energy>
  </scstep>
  <scstep>
   <time name="dav">   18.53   18.54</time>
   <time name="total">   19.83   19.85</time>
   <energy>
    <i name="e_fr_energy">   -155.77396410 </i>
    <i name="e_wo_entrp">   -155.76421272 </i>
    <i name="e_0_energy">   -155.76908841 </i>
   </energy>
  </scstep>
  <scstep>
   <time name="dav">   18.65   18.65</time>
   <time name="total">   19.94   19.96</time>
   <energy>
    <i name="e_fr_energy">   -155.77408585 </i>
    <i name="e_wo_entrp">   -155.76420112 </i>
    <i name="e_0_energy">   -155.76914348 </i>
   </energy>
  </scstep>
  <scstep>
   <time name="dav">   17.35   17.36</time>
   <time name="total">   18.64   18.68</time>
   <energy>
    <i name="e_fr_energy">   -155.77430494 </i>
    <i name="e_wo_entrp">   -155.76444384 </i>
    <i name="e_0_energy">   -155.76937439 </i>
   </energy>
  </scstep>
  <scstep>
   <time name="dav">   17.32   17.32</time>
   <time name="total">   18.61   18.63</time>
   <energy>
    <i name="e_fr_energy">   -155.77433761 </i>
    <i name="e_wo_entrp">   -155.76445375 </i>
    <i name="e_0_energy">   -155.76939568 </i>
   </energy>
  </scstep>
  <scstep>
   <time name="dav">   18.46   18.47</time>
   <time name="total">   19.75   19.77</time>
   <energy>
    <i name="e_fr_energy">   -155.77433714 </i>
    <i name="e_wo_entrp">   -155.76445775 </i>
    <i name="e_0_energy">   -155.76939744 </i>
   </energy>
  </scstep>
  <scstep>
   <time name="dav">   17.19   17.19</time>
   <time name="total">   18.47   18.49</time>
   <energy>
    <i name="e_fr_energy">   -155.77433938 </i>
    <i name="e_wo_entrp">   -155.76444992 </i>
    <i name="e_0_energy">   -155.76939465 </i>
   </energy>
  </scstep>
  <scstep>
   <time name="dav">   12.53   12.53</time>
   <time name="total">   13.82   13.83</time>
   <energy>
    <i name="e_fr_energy">   -155.77434071 </i>
    <i name="e_wo_entrp">   -155.76444978 </i>
    <i name="e_0_energy">   -155.76939525 </i>
   </energy>
  </scstep>
  <scstep>
   <time name="dav">    9.98    9.98</time>
   <time name="total">   10.41   10.43</time>
   <energy>
    <i name="alphaZ">   1197.30728288 </i>
    <i name="ewald"> -17357.92105911 </i>
    <i name="hartreedc">  -7551.68225390 </i>
    <i name="XCdc">   1087.00821545 </i>
    <i name="pawpsdc">  31030.72146638 </i>
    <i name="pawaedc"> -31761.41163315 </i>
    <i name="eentropy">     -0.00989284 </i>
    <i name="bandstr">  -1589.80103115 </i>
    <i name="atom">  24790.01456472 </i>
    <i name="e_fr_energy">   -155.77434072 </i>
    <i name="e_wo_entrp">   -155.76444788 </i>
    <i name="e_0_energy">   -155.76939430 </i>
   </energy>
  </scstep>
  <structure>
   <crystal>
    <varray name="basis" >
     <v>       9.79795897       0.00000000       0.00000000 </v>
     <v>       0.00000000       5.65685425       0.00000000 </v>
     <v>      -3.26598632       0.00000000       9.23760431 </v>
    </varray>
    <i name="volume">    512.00000000 </i>
    <varray name="rec_basis" >
     <v>       0.10206207       0.00000000       0.03608439 </v>
     <v>       0.00000000       0.17677670       0.00000000 </v>
     <v>       0.00000000       0.00000000       0.10825318 </v>
    </varray>
   </crystal>
   <varray name="positions" >
    <v>       0.25000000       0.75000000       0.00000000 </v>
    <v>       0.50000000       0.75000000       0.75000000 </v>
    <v>       0.25000000       0.25000000       0.50000000 </v>
    <v>       0.00000000       0.75000000       0.25000000 </v>
    <v>       0.75000000       0.25000000       0.00000000 </v>
    <v>       0.00000000       0.25000000       0.75000000 </v>
    <v>       0.75000000       0.75000000       0.50000000 </v>
    <v>       0.50000000       0.25000000       0.25000000 </v>
    <v>       0.12500000       0.25000000       0.12500000 </v>
    <v>       0.37500000       0.25000000       0.87500000 </v>
    <v>       0.12500000       0.75000000       0.62500000 </v>
    <v>       0.37500000       0.75000000       0.37500000 </v>
    <v>       0.62500000       0.75000000       0.12500000 </v>
    <v>       0.87500000       0.75000000       0.87500000 </v>
    <v>       0.62500000       0.25000000       0.62500000 </v>
    <v>       0.87500000       0.25000000       0.37500000 </v>
    <v>       0.25000000       0.25000000       0.00000000 </v>
    <v>       0.25000000       0.75000000       0.50000000 </v>
    <v>       0.25000000       0.00000000       0.75000000 </v>
    <v>       0.50000000       0.00000000       0.50000000 </v>
    <v>       0.25000000       0.50000000       0.25000000 </v>
    <v>       0.00000000       0.50000000       0.00000000 </v>
    <v>       0.25000000       0.50000000       0.75000000 </v>
    <v>       0.25000000       0.00000000       0.25000000 </v>
    <v>       0.75000000       0.75000000       0.00000000 </v>
    <v>       0.75000000       0.25000000       0.50000000 </v>
    <v>       0.75000000       0.50000000       0.75000000 </v>
    <v>       0.00000000       0.50000000       0.50000000 </v>
    <v>       0.75000000       0.00000000       0.25000000 </v>
    <v>       0.50000000       0.00000000       0.00000000 </v>
    <v>       0.75000000       0.00000000       0.75000000 </v>
    <v>       0.75000000       0.50000000       0.25000000 </v>
   </varray>
  </structure>
  <varray name="forces" >
   <v>       0.00000000       0.00000000       0.00000000 </v>
   <v>       0.00000000       0.85355982       0.00000000 </v>
   <v>       0.00000000       0.00000000       0.00000000 </v>
   <v>       0.00000000      -0.85355982       0.00000000 </v>
   <v>       0.00000000       0.00000000       0.00000000 </v>
   <v>       0.00000000       0.85355982       0.00000000 </v>
   <v>       0.00000000       0.00000000       0.00000000 </v>
   <v>       0.00000000      -0.85355982       0.00000000 </v>
   <v>       1.43113518       0.28098762      -0.12313677 </v>
   <v>      -1.43113518      -0.28098762       0.12313677 </v>
   <v>       1.43113518      -0.28098762      -0.12313677 </v>
   <v>      -1.43113518       0.28098762       0.12313677 </v>
   <v>       1.43113518       0.28098762      -0.12313677 </v>
   <v>      -1.43113518      -0.28098762       0.12313677 </v>
   <v>       1.43113518      -0.28098762      -0.12313677 </v>
   <v>      -1.43113518       0.28098762       0.12313677 </v>
   <v>       0.00000000       0.00000000       0.00000000 </v>
   <v>       0.00000000       0.00000000       0.00000000 </v>
   <v>      -1.07175267      -0.87736389      -1.33511732 </v>
   <v>       0.00000000       0.00000000       0.00000000 </v>
   <v>       1.07175267       0.87736389       1.33511732 </v>
   <v>       0.00000000       0.00000000       0.00000000 </v>
   <v>       1.07175267      -0.87736389       1.33511732 </v>
   <v>      -1.07175267       0.87736389      -1.33511732 </v>
   <v>       0.00000000       0.00000000       0.00000000 </v>
   <v>       0.00000000       0.00000000       0.00000000 </v>
   <v>      -1.07175267      -0.87736389      -1.33511732 </v>
   <v>       0.00000000       0.00000000       0.00000000 </v>
   <v>       1.07175267       0.87736389       1.33511732 </v>
   <v>       0.00000000       0.00000000       0.00000000 </v>
   <v>       1.07175267      -0.87736389       1.33511732 </v>
   <v>      -1.07175267       0.87736389      -1.33511732 </v>
  </varray>
  <varray name="stress" >
   <v>    -102.24814729       0.00000000      -2.49550415 </v>
   <v>       0.00000000     -81.94574882       0.00000000 </v>
   <v>      -2.49550346       0.00000000     -65.43200409 </v>
  </varray>
  <energy>
   <i name="e_fr_energy">   -155.77434072 </i>
   <i name="e_wo_entrp">   -155.76939430 </i>
   <i name="e_0_energy">     -0.00989284 </i>
  </energy>
  <time name="totalsc">  398.56  399.05</time>
  <eigenvalues>
   <array>
    <dimension dim="1">band</dimension>
    <dimension dim="2">kpoint</dimension>
    <dimension dim="3">spin</dimension>
    <field>eigene</field>
    <field>occ</field>
    <set>
     <set comment="spin 1">
      <set comment="kpoint 1">
       <r>  -31.4157    1.0000 </r>
       <r>  -31.4032    1.0000 </r>
       <r>  -31.4009    1.0000 </r>
       <r>  -31.4006    1.0000 </r>
       <r>  -31.3898    1.0000 </r>
       <r>  -31.3896    1.0000 </r>
       <r>  -31.3866    1.0000 </r>
       <r>  -31.3761    1.0000 </r>
       <r>  -14.9330    1.0000 </r>
       <r>  -14.7577    1.0000 </r>
       <r>  -14.5945    1.0000 </r>
       <r>  -14.5571    1.0000 </r>
       <r>  -14.5570    1.0000 </r>
       <r>  -14.5281    1.0000 </r>
       <r>  -14.3681    1.0000 </r>
       <r>  -14.0466    1.0000 </r>
       <r>  -14.0369    1.0000 </r>
       <r>  -13.9726    1.0000 </r>
       <r>  -13.9720    1.0000 </r>
       <r>  -13.9710    1.0000 </r>
       <r>  -13.9314    1.0000 </r>
       <r>  -13.9284    1.0000 </r>
       <r>  -13.7022    1.0000 </r>
       <r>  -13.6822    1.0000 </r>
       <r>  -13.6324    1.0000 </r>
       <r>  -13.6262    1.0000 </r>
       <r>  -13.5700    1.0000 </r>
       <r>  -13.5214    1.0000 </r>
       <r>  -13.4816    1.0000 </r>
       <r>  -13.4675    1.0000 </r>
       <r>  -13.3800    1.0000 </r>
       <r>  -13.3481    1.0000 </r>
       <r>  -13.3133    1.0000 </r>
       <r>  -13.3080    1.0000 </r>
       <r>  -13.2893    1.0000 </r>
       <r>  -13.2584    1.0000 </r>
       <r>  -13.2111    1.0000 </r>
       <r>  -13.1935    1.0000 </r>
       <r>  -13.1885    1.0000 </r>
       <r>  -13.1308    1.0000 </r>
       <r>  -13.0999    1.0000 </r>
       <r>  -13.0322    1.0000 </r>
       <r>  -12.9133    1.0000 </r>
       <r>  -12.9015    1.0000 </r>
       <r>  -12.8910    1.0000 </r>
       <r>  -12.8176    1.0000 </r>
       <r>  -12.7856    1.0000 </r>
       <r>  -12.6456    1.0000 </r>
       <r>   -2.7542    1.0000 </r>
       <r>   -2.6888    1.0000 </r>
       <r>   -2.3669    1.0000 </r>
       <r>   -2.2433    1.0000 </r>
       <r>   -2.1369    1.0000 </r>
       <r>   -2.0452    1.0000 </r>
       <r>   -1.8730    1.0000 </r>
       <r>   -1.8602    1.0000 </r>
       <r>   -1.8550    1.0000 </r>
       <r>   -1.8475    1.0000 </r>
       <r>   -1.7894    1.0000 </r>
       <r>   -1.7168    1.0000 </r>
       <r>   -1.7002    1.0000 </r>
       <r>   -1.5037    1.0000 </r>
       <r>   -1.5007    1.0000 </r>
       <r>   -1.4893    1.0000 </r>
       <r>   -1.4197    1.0000 </r>
       <r>   -1.2681    1.0000 </r>
       <r>   -1.2222    1.0000 </r>
       <r>   -1.1985    1.0000 </r>
       <r>   -1.1854    1.0000 </r>
       <r>   -1.1646    1.0000 </r>
       <r>   -1.1216    1.0000 </r>
       <r>   -1.0993    1.0000 </r>
       <r>   -1.0957    1.0000 </r>
       <r>   -1.0785    1.0000 </r>
       <r>   -1.0392    1.0000 </r>
       <r>   -0.9196    1.0000 </r>
       <r>   -0.9073    1.0000 </r>
       <r>   -0.8862    1.0000 </r>
       <r>   -0.8685    1.0000 </r>
       <r>   -0.8488    1.0000 </r>
       <r>   -0.8266    1.0000 </r>
       <r>   -0.7588    1.0000 </r>
       <r>   -0.7535    1.0000 </r>
       <r>   -0.5764    1.0000 </r>
       <r>   -0.3978    1.0000 </r>
       <r>   -0.3965    1.0000 </r>
       <r>   -0.3799    1.0000 </r>
       <r>   -0.3695    1.0000 </r>
       <r>   -0.2639    1.0000 </r>
       <r>    0.0213    1.0000 </r>
       <r>    0.2336    1.0000 </r>
       <r>    0.2685    1.0000 </r>
       <r>    0.3469    1.0000 </r>
       <r>    0.4366    1.0000 </r>
       <r>    0.5104    1.0000 </r>
       <r>    0.5536    1.0000 </r>
       <r>    0.5966    1.0000 </r>
       <r>    0.6537    1.0000 </r>
       <r>    0.6637    1.0000 </r>
       <r>    0.7203    1.0000 </r>
       <r>    0.8012    1.0000 </r>
       <r>    0.9178    1.0000 </r>
       <r>    0.9233    1.0000 </r>
       <r>    1.0116    1.0000 </r>
       <r>    1.0326    1.0000 </r>
       <r>    1.0547    1.0000 </r>
       <r>    1.1829    1.0000 </r>
       <r>    1.2016    1.0000 </r>
       <r>    1.2699    1.0000 </r>
       <r>    1.3055    1.0000 </r>
       <r>    1.3386    1.0000 </r>
       <r>    1.3746    1.0000 </r>
       <r>    1.4036    1.0000 </r>
       <r>    1.4072    1.0000 </r>
       <r>    1.4767    1.0000 </r>
       <r>    1.4819    1.0000 </r>
       <r>    1.5112    1.0000 </r>
       <r>    1.5303    1.0000 </r>
       <r>    1.5515    1.0000 </r>
       <r>    1.5534    1.0000 </r>
       <r>    1.6141    1.0000 </r>
       <r>    1.7053    1.0000 </r>
       <r>    1.7439    1.0000 </r>
       <r>    1.7443    1.0000 </r>
       <r>    1.9209    1.0000 </r>
       <r>    1.9950    1.0000 </r>
       <r>    2.0065    1.0000 </r>
       <r>    2.0896    1.0000 </r>
       <r>    2.2456    1.0000 </r>
       <r>    2.3985    1.0000 </r>
       <r>    2.5903    1.0000 </r>
       <r>    2.9192    0.0000 </r>
       <r>    3.0476    0.0000 </r>
       <r>    3.2131    0.0000 </r>
       <r>    3.2700    0.0000 </r>
       <r>    3.2709    0.0000 </r>
       <r>    3.3127    0.0000 </r>
       <r>    3.9768    0.0000 </r>
       <r>    4.3885    0.0000 </r>
       <r>    5.0948    0.0000 </r>
       <r>    5.2347    0.0000 </r>
       <r>    5.2474    0.0000 </r>
       <r>    5.4027    0.0000 </r>
       <r>    6.7721    0.0000 </r>
       <r>    7.0378    0.0000 </r>
       <r>    7.2997    0.0000 </r>
       <r>    7.5573    0.0000 </r>
       <r>    7.6912    0.0000 </r>
       <r>    7.7116    0.0000 </r>
       <r>    7.9494    0.0000 </r>
       <r>    8.0026    0.0000 </r>
       <r>    8.1455    0.0000 </r>
       <r>    8.2309    0.0000 </r>
       <r>    8.4066    0.0000 </r>
       <r>    8.6002    0.0000 </r>
       <r>    8.6686    0.0000 </r>
       <r>    8.7182    0.0000 </r>
       <r>    8.7229    0.0000 </r>
       <r>    8.7403    0.0000 </r>
       <r>    8.8079    0.0000 </r>
       <r>    8.8470    0.0000 </r>
       <r>    9.2902    0.0000 </r>
       <r>    9.3060    0.0000 </r>
       <r>    9.5155    0.0000 </r>
       <r>    9.5698    0.0000 </r>
       <r>    9.6092    0.0000 </r>
       <r>    9.6240    0.0000 </r>
       <r>    9.6731    0.0000 </r>
       <r>    9.7631    0.0000 </r>
       <r>    9.9806    0.0000 </r>
       <r>    9.9970    0.0000 </r>
       <r>   10.0611    0.0000 </r>
       <r>   10.1258    0.0000 </r>
       <r>   10.3782    0.0000 </r>
       <r>   10.4004    0.0000 </r>
       <r>   10.4157    0.0000 </r>
      </set>
      <set comment="kpoint 2">
       <r>  -31.4101    1.0000 </r>
       <r>  -31.4101    1.0000 </r>
       <r>  -31.4021    1.0000 </r>
       <r>  -31.4021    1.0000 </r>
       <r>  -31.3880    1.0000 </r>
       <r>  -31.3880    1.0000 </r>
       <r>  -31.3810    1.0000 </r>
       <r>  -31.3810    1.0000 </r>
       <r>  -14.7835    1.0000 </r>
       <r>  -14.7835    1.0000 </r>
       <r>  -14.6940    1.0000 </r>
       <r>  -14.6940    1.0000 </r>
       <r>  -14.4571    1.0000 </r>
       <r>  -14.4571    1.0000 </r>
       <r>  -14.3247    1.0000 </r>
       <r>  -14.3247    1.0000 </r>
       <r>  -13.9751    1.0000 </r>
       <r>  -13.9751    1.0000 </r>
       <r>  -13.9496    1.0000 </r>
       <r>  -13.9496    1.0000 </r>
       <r>  -13.9028    1.0000 </r>
       <r>  -13.9028    1.0000 </r>
       <r>  -13.8681    1.0000 </r>
       <r>  -13.8681    1.0000 </r>
       <r>  -13.5358    1.0000 </r>
       <r>  -13.5358    1.0000 </r>
       <r>  -13.4939    1.0000 </r>
       <r>  -13.4939    1.0000 </r>
       <r>  -13.3979    1.0000 </r>
       <r>  -13.3979    1.0000 </r>
       <r>  -13.3398    1.0000 </r>
       <r>  -13.3398    1.0000 </r>
       <r>  -13.3032    1.0000 </r>
       <r>  -13.3032    1.0000 </r>
       <r>  -13.2656    1.0000 </r>
       <r>  -13.2656    1.0000 </r>
       <r>  -13.2009    1.0000 </r>
       <r>  -13.2009    1.0000 </r>
       <r>  -13.1434    1.0000 </r>
       <r>  -13.1434    1.0000 </r>
       <r>  -12.9972    1.0000 </r>
       <r>  -12.9972    1.0000 </r>
       <r>  -12.9738    1.0000 </r>
       <r>  -12.9738    1.0000 </r>
       <r>  -12.9167    1.0000 </r>
       <r>  -12.9167    1.0000 </r>
       <r>  -12.7525    1.0000 </r>
       <r>  -12.7525    1.0000 </r>
       <r>   -2.6129    1.0000 </r>
       <r>   -2.6129    1.0000 </r>
       <r>   -2.5083    1.0000 </r>
       <r>   -2.5083    1.0000 </r>
       <r>   -1.9164    1.0000 </r>
       <r>   -1.9164    1.0000 </r>
       <r>   -1.9080    1.0000 </r>
       <r>   -1.9080    1.0000 </r>
       <r>   -1.7896    1.0000 </r>
       <r>   -1.7896    1.0000 </r>
       <r>   -1.7709    1.0000 </r>
       <r>   -1.7709    1.0000 </r>
       <r>   -1.6326    1.0000 </r>
       <r>   -1.6326    1.0000 </r>
       <r>   -1.5144    1.0000 </r>
       <r>   -1.5144    1.0000 </r>
       <r>   -1.3870    1.0000 </r>
       <r>   -1.3870    1.0000 </r>
       <r>   -1.3459    1.0000 </r>
       <r>   -1.3459    1.0000 </r>
       <r>   -1.1462    1.0000 </r>
       <r>   -1.1462    1.0000 </r>
       <r>   -1.1299    1.0000 </r>
       <r>   -1.1299    1.0000 </r>
       <r>   -1.0118    1.0000 </r>
       <r>   -1.0118    1.0000 </r>
       <r>   -0.9972    1.0000 </r>
       <r>   -0.9972    1.0000 </r>
       <r>   -0.9643    1.0000 </r>
       <r>   -0.9643    1.0000 </r>
       <r>   -0.8170    1.0000 </r>
       <r>   -0.8170    1.0000 </r>
       <r>   -0.5788    1.0000 </r>
       <r>   -0.5788    1.0000 </r>
       <r>   -0.5724    1.0000 </r>
       <r>   -0.5724    1.0000 </r>
       <r>   -0.4901    1.0000 </r>
       <r>   -0.4901    1.0000 </r>
       <r>   -0.4616    1.0000 </r>
       <r>   -0.4616    1.0000 </r>
       <r>    0.0172    1.0000 </r>
       <r>    0.0172    1.0000 </r>
       <r>    0.1426    1.0000 </r>
       <r>    0.1426    1.0000 </r>
       <r>    0.4361    1.0000 </r>
       <r>    0.4361    1.0000 </r>
       <r>    0.5001    1.0000 </r>
       <r>    0.5001    1.0000 </r>
       <r>    0.5375    1.0000 </r>
       <r>    0.5375    1.0000 </r>
       <r>    0.7007    1.0000 </r>
       <r>    0.7007    1.0000 </r>
       <r>    0.8502    1.0000 </r>
       <r>    0.8502    1.0000 </r>
       <r>    0.9435    1.0000 </r>
       <r>    0.9435    1.0000 </r>
       <r>    1.1148    1.0000 </r>
       <r>    1.1148    1.0000 </r>
       <r>    1.2194    1.0000 </r>
       <r>    1.2194    1.0000 </r>
       <r>    1.3241    1.0000 </r>
       <r>    1.3241    1.0000 </r>
       <r>    1.4183    1.0000 </r>
       <r>    1.4183    1.0000 </r>
       <r>    1.4300    1.0000 </r>
       <r>    1.4300    1.0000 </r>
       <r>    1.4615    1.0000 </r>
       <r>    1.4615    1.0000 </r>
       <r>    1.4842    1.0000 </r>
       <r>    1.4842    1.0000 </r>
       <r>    1.4861    1.0000 </r>
       <r>    1.4861    1.0000 </r>
       <r>    1.5333    1.0000 </r>
       <r>    1.5333    1.0000 </r>
       <r>    1.7401    1.0000 </r>
       <r>    1.7401    1.0000 </r>
       <r>    2.0306    1.0000 </r>
       <r>    2.0306    1.0000 </r>
       <r>    2.0332    1.0000 </r>
       <r>    2.0332    1.0000 </r>
       <r>    2.3620    1.0000 </r>
       <r>    2.3620    1.0000 </r>
       <r>    2.6997    0.7928 </r>
       <r>    2.6997    0.7928 </r>
       <r>    3.1092    0.0000 </r>
       <r>    3.1092    0.0000 </r>
       <r>    3.1175    0.0000 </r>
       <r>    3.1175    0.0000 </r>
       <r>    3.8261    0.0000 </r>
       <r>    3.8261    0.0000 </r>
       <r>    4.5265    0.0000 </r>
       <r>    4.5265    0.0000 </r>
       <r>    5.2728    0.0000 </r>
       <r>    5.2728    0.0000 </r>
       <r>    5.9578    0.0000 </r>
       <r>    5.9578    0.0000 </r>
       <r>    7.2787    0.0000 </r>
       <r>    7.2787    0.0000 </r>
       <r>    7.6619    0.0000 </r>
       <r>    7.6619    0.0000 </r>
       <r>    8.2312    0.0000 </r>
       <r>    8.2312    0.0000 </r>
       <r>    8.3690    0.0000 </r>
       <r>    8.3690    0.0000 </r>
       <r>    8.4675    0.0000 </r>
       <r>    8.4675    0.0000 </r>
       <r>    8.5885    0.0000 </r>
       <r>    8.5885    0.0000 </r>
       <r>    8.9563    0.0000 </r>
       <r>    8.9563    0.0000 </r>
       <r>    8.9834    0.0000 </r>
       <r>    8.9834    0.0000 </r>
       <r>    9.0804    0.0000 </r>
       <r>    9.0804    0.0000 </r>
       <r>    9.2823    0.0000 </r>
       <r>    9.2823    0.0000 </r>
       <r>    9.4324    0.0000 </r>
       <r>    9.4324    0.0000 </r>
       <r>    9.5785    0.0000 </r>
       <r>    9.5785    0.0000 </r>
       <r>    9.6254    0.0000 </r>
       <r>    9.6254    0.0000 </r>
       <r>    9.9944    0.0000 </r>
       <r>    9.9946    0.0000 </r>
       <r>   10.2480    0.0000 </r>
       <r>   10.2494    0.0000 </r>
       <r>   10.2533    0.0000 </r>
       <r>   10.3213    0.0000 </r>
      </set>
      <set comment="kpoint 3">
       <r>  -31.4119    1.0000 </r>
       <r>  -31.4009    1.0000 </r>
       <r>  -31.4007    1.0000 </r>
       <r>  -31.4005    1.0000 </r>
       <r>  -31.3898    1.0000 </r>
       <r>  -31.3896    1.0000 </r>
       <r>  -31.3890    1.0000 </r>
       <r>  -31.3794    1.0000 </r>
       <r>  -14.8659    1.0000 </r>
       <r>  -14.7440    1.0000 </r>
       <r>  -14.6750    1.0000 </r>
       <r>  -14.6466    1.0000 </r>
       <r>  -14.5956    1.0000 </r>
       <r>  -14.4923    1.0000 </r>
       <r>  -14.3305    1.0000 </r>
       <r>  -14.2115    1.0000 </r>
       <r>  -14.1883    1.0000 </r>
       <r>  -14.0812    1.0000 </r>
       <r>  -14.0261    1.0000 </r>
       <r>  -13.9862    1.0000 </r>
       <r>  -13.9791    1.0000 </r>
       <r>  -13.8750    1.0000 </r>
       <r>  -13.8333    1.0000 </r>
       <r>  -13.7414    1.0000 </r>
       <r>  -13.5897    1.0000 </r>
       <r>  -13.5429    1.0000 </r>
       <r>  -13.4924    1.0000 </r>
       <r>  -13.4631    1.0000 </r>
       <r>  -13.4484    1.0000 </r>
       <r>  -13.4082    1.0000 </r>
       <r>  -13.3619    1.0000 </r>
       <r>  -13.3040    1.0000 </r>
       <r>  -13.2794    1.0000 </r>
       <r>  -13.2735    1.0000 </r>
       <r>  -13.2592    1.0000 </r>
       <r>  -13.2143    1.0000 </r>
       <r>  -13.1643    1.0000 </r>
       <r>  -13.1580    1.0000 </r>
       <r>  -13.1108    1.0000 </r>
       <r>  -13.1047    1.0000 </r>
       <r>  -13.0883    1.0000 </r>
       <r>  -13.0454    1.0000 </r>
       <r>  -12.9234    1.0000 </r>
       <r>  -12.8762    1.0000 </r>
       <r>  -12.8362    1.0000 </r>
       <r>  -12.7707    1.0000 </r>
       <r>  -12.7540    1.0000 </r>
       <r>  -12.6961    1.0000 </r>
       <r>   -2.6778    1.0000 </r>
       <r>   -2.6699    1.0000 </r>
       <r>   -2.3207    1.0000 </r>
       <r>   -2.2008    1.0000 </r>
       <r>   -2.1624    1.0000 </r>
       <r>   -1.9886    1.0000 </r>
       <r>   -1.9119    1.0000 </r>
       <r>   -1.8722    1.0000 </r>
       <r>   -1.8137    1.0000 </r>
       <r>   -1.7953    1.0000 </r>
       <r>   -1.7530    1.0000 </r>
       <r>   -1.7276    1.0000 </r>
       <r>   -1.6792    1.0000 </r>
       <r>   -1.5396    1.0000 </r>
       <r>   -1.5124    1.0000 </r>
       <r>   -1.4706    1.0000 </r>
       <r>   -1.3763    1.0000 </r>
       <r>   -1.3691    1.0000 </r>
       <r>   -1.1942    1.0000 </r>
       <r>   -1.1929    1.0000 </r>
       <r>   -1.1918    1.0000 </r>
       <r>   -1.1809    1.0000 </r>
       <r>   -1.1380    1.0000 </r>
       <r>   -1.1279    1.0000 </r>
       <r>   -1.1041    1.0000 </r>
       <r>   -1.0969    1.0000 </r>
       <r>   -1.0488    1.0000 </r>
       <r>   -0.9971    1.0000 </r>
       <r>   -0.9359    1.0000 </r>
       <r>   -0.9319    1.0000 </r>
       <r>   -0.9234    1.0000 </r>
       <r>   -0.8719    1.0000 </r>
       <r>   -0.7043    1.0000 </r>
       <r>   -0.6874    1.0000 </r>
       <r>   -0.5149    1.0000 </r>
       <r>   -0.5033    1.0000 </r>
       <r>   -0.5020    1.0000 </r>
       <r>   -0.4871    1.0000 </r>
       <r>   -0.4757    1.0000 </r>
       <r>   -0.4697    1.0000 </r>
       <r>   -0.1533    1.0000 </r>
       <r>    0.1006    1.0000 </r>
       <r>    0.2598    1.0000 </r>
       <r>    0.2959    1.0000 </r>
       <r>    0.2978    1.0000 </r>
       <r>    0.3098    1.0000 </r>
       <r>    0.4326    1.0000 </r>
       <r>    0.4369    1.0000 </r>
       <r>    0.5176    1.0000 </r>
       <r>    0.5767    1.0000 </r>
       <r>    0.6856    1.0000 </r>
       <r>    0.7208    1.0000 </r>
       <r>    0.7625    1.0000 </r>
       <r>    0.9084    1.0000 </r>
       <r>    1.0348    1.0000 </r>
       <r>    1.0434    1.0000 </r>
       <r>    1.0504    1.0000 </r>
       <r>    1.0673    1.0000 </r>
       <r>    1.1157    1.0000 </r>
       <r>    1.1915    1.0000 </r>
       <r>    1.1968    1.0000 </r>
       <r>    1.2496    1.0000 </r>
       <r>    1.2875    1.0000 </r>
       <r>    1.3465    1.0000 </r>
       <r>    1.4065    1.0000 </r>
       <r>    1.4068    1.0000 </r>
       <r>    1.4153    1.0000 </r>
       <r>    1.5235    1.0000 </r>
       <r>    1.5461    1.0000 </r>
       <r>    1.5552    1.0000 </r>
       <r>    1.5789    1.0000 </r>
       <r>    1.6042    1.0000 </r>
       <r>    1.6068    1.0000 </r>
       <r>    1.6382    1.0000 </r>
       <r>    1.7190    1.0000 </r>
       <r>    1.7623    1.0000 </r>
       <r>    1.9051    1.0000 </r>
       <r>    1.9307    1.0000 </r>
       <r>    1.9778    1.0000 </r>
       <r>    2.1459    1.0000 </r>
       <r>    2.1715    1.0000 </r>
       <r>    2.3306    1.0000 </r>
       <r>    2.3602    1.0000 </r>
       <r>    2.6085    0.9997 </r>
       <r>    2.9257    0.0000 </r>
       <r>    2.9853    0.0000 </r>
       <r>    3.0120    0.0000 </r>
       <r>    3.1841    0.0000 </r>
       <r>    3.4364    0.0000 </r>
       <r>    4.5496    0.0000 </r>
       <r>    4.8070    0.0000 </r>
       <r>    5.1593    0.0000 </r>
       <r>    5.2753    0.0000 </r>
       <r>    5.4121    0.0000 </r>
       <r>    5.7910    0.0000 </r>
       <r>    6.6530    0.0000 </r>
       <r>    7.0352    0.0000 </r>
       <r>    7.1734    0.0000 </r>
       <r>    7.6875    0.0000 </r>
       <r>    7.7566    0.0000 </r>
       <r>    7.8143    0.0000 </r>
       <r>    7.8878    0.0000 </r>
       <r>    8.0091    0.0000 </r>
       <r>    8.0851    0.0000 </r>
       <r>    8.2130    0.0000 </r>
       <r>    8.3036    0.0000 </r>
       <r>    8.3075    0.0000 </r>
       <r>    8.6086    0.0000 </r>
       <r>    8.6378    0.0000 </r>
       <r>    8.7497    0.0000 </r>
       <r>    8.8285    0.0000 </r>
       <r>    8.9445    0.0000 </r>
       <r>    9.0542    0.0000 </r>
       <r>    9.0972    0.0000 </r>
       <r>    9.2363    0.0000 </r>
       <r>    9.5300    0.0000 </r>
       <r>    9.5668    0.0000 </r>
       <r>    9.6960    0.0000 </r>
       <r>    9.7288    0.0000 </r>
       <r>    9.7682    0.0000 </r>
       <r>    9.8438    0.0000 </r>
       <r>    9.8687    0.0000 </r>
       <r>   10.0833    0.0000 </r>
       <r>   10.1335    0.0000 </r>
       <r>   10.1417    0.0000 </r>
       <r>   10.2395    0.0000 </r>
       <r>   10.2755    0.0000 </r>
       <r>   10.3037    0.0000 </r>
      </set>
      <set comment="kpoint 4">
       <r>  -31.4075    1.0000 </r>
       <r>  -31.4075    1.0000 </r>
       <r>  -31.4007    1.0000 </r>
       <r>  -31.4007    1.0000 </r>
       <r>  -31.3894    1.0000 </r>
       <r>  -31.3894    1.0000 </r>
       <r>  -31.3833    1.0000 </r>
       <r>  -31.3833    1.0000 </r>
       <r>  -14.7791    1.0000 </r>
       <r>  -14.7791    1.0000 </r>
       <r>  -14.6912    1.0000 </r>
       <r>  -14.6912    1.0000 </r>
       <r>  -14.5610    1.0000 </r>
       <r>  -14.5610    1.0000 </r>
       <r>  -14.2499    1.0000 </r>
       <r>  -14.2499    1.0000 </r>
       <r>  -14.1406    1.0000 </r>
       <r>  -14.1406    1.0000 </r>
       <r>  -14.0473    1.0000 </r>
       <r>  -14.0473    1.0000 </r>
       <r>  -13.8879    1.0000 </r>
       <r>  -13.8879    1.0000 </r>
       <r>  -13.7985    1.0000 </r>
       <r>  -13.7985    1.0000 </r>
       <r>  -13.5518    1.0000 </r>
       <r>  -13.5518    1.0000 </r>
       <r>  -13.4820    1.0000 </r>
       <r>  -13.4820    1.0000 </r>
       <r>  -13.4412    1.0000 </r>
       <r>  -13.4412    1.0000 </r>
       <r>  -13.3198    1.0000 </r>
       <r>  -13.3198    1.0000 </r>
       <r>  -13.2628    1.0000 </r>
       <r>  -13.2628    1.0000 </r>
       <r>  -13.2203    1.0000 </r>
       <r>  -13.2203    1.0000 </r>
       <r>  -13.1798    1.0000 </r>
       <r>  -13.1798    1.0000 </r>
       <r>  -13.1296    1.0000 </r>
       <r>  -13.1296    1.0000 </r>
       <r>  -13.0090    1.0000 </r>
       <r>  -13.0090    1.0000 </r>
       <r>  -12.8858    1.0000 </r>
       <r>  -12.8858    1.0000 </r>
       <r>  -12.8389    1.0000 </r>
       <r>  -12.8389    1.0000 </r>
       <r>  -12.7431    1.0000 </r>
       <r>  -12.7431    1.0000 </r>
       <r>   -2.5942    1.0000 </r>
       <r>   -2.5942    1.0000 </r>
       <r>   -2.4422    1.0000 </r>
       <r>   -2.4422    1.0000 </r>
       <r>   -1.9728    1.0000 </r>
       <r>   -1.9728    1.0000 </r>
       <r>   -1.9015    1.0000 </r>
       <r>   -1.9015    1.0000 </r>
       <r>   -1.7994    1.0000 </r>
       <r>   -1.7994    1.0000 </r>
       <r>   -1.7567    1.0000 </r>
       <r>   -1.7567    1.0000 </r>
       <r>   -1.6211    1.0000 </r>
       <r>   -1.6211    1.0000 </r>
       <r>   -1.4997    1.0000 </r>
       <r>   -1.4997    1.0000 </r>
       <r>   -1.3277    1.0000 </r>
       <r>   -1.3277    1.0000 </r>
       <r>   -1.2508    1.0000 </r>
       <r>   -1.2508    1.0000 </r>
       <r>   -1.2007    1.0000 </r>
       <r>   -1.2007    1.0000 </r>
       <r>   -1.1498    1.0000 </r>
       <r>   -1.1498    1.0000 </r>
       <r>   -1.0986    1.0000 </r>
       <r>   -1.0986    1.0000 </r>
       <r>   -1.0648    1.0000 </r>
       <r>   -1.0648    1.0000 </r>
       <r>   -0.8067    1.0000 </r>
       <r>   -0.8067    1.0000 </r>
       <r>   -0.7472    1.0000 </r>
       <r>   -0.7472    1.0000 </r>
       <r>   -0.6598    1.0000 </r>
       <r>   -0.6598    1.0000 </r>
       <r>   -0.6322    1.0000 </r>
       <r>   -0.6322    1.0000 </r>
       <r>   -0.5610    1.0000 </r>
       <r>   -0.5610    1.0000 </r>
       <r>   -0.4213    1.0000 </r>
       <r>   -0.4213    1.0000 </r>
       <r>    0.0485    1.0000 </r>
       <r>    0.0485    1.0000 </r>
       <r>    0.1470    1.0000 </r>
       <r>    0.1470    1.0000 </r>
       <r>    0.2001    1.0000 </r>
       <r>    0.2001    1.0000 </r>
       <r>    0.4954    1.0000 </r>
       <r>    0.4954    1.0000 </r>
       <r>    0.5808    1.0000 </r>
       <r>    0.5808    1.0000 </r>
       <r>    0.7594    1.0000 </r>
       <r>    0.7594    1.0000 </r>
       <r>    0.8971    1.0000 </r>
       <r>    0.8971    1.0000 </r>
       <r>    1.0573    1.0000 </r>
       <r>    1.0573    1.0000 </r>
       <r>    1.0942    1.0000 </r>
       <r>    1.0942    1.0000 </r>
       <r>    1.1734    1.0000 </r>
       <r>    1.1734    1.0000 </r>
       <r>    1.1943    1.0000 </r>
       <r>    1.1943    1.0000 </r>
       <r>    1.2502    1.0000 </r>
       <r>    1.2502    1.0000 </r>
       <r>    1.3432    1.0000 </r>
       <r>    1.3432    1.0000 </r>
       <r>    1.4234    1.0000 </r>
       <r>    1.4234    1.0000 </r>
       <r>    1.5330    1.0000 </r>
       <r>    1.5330    1.0000 </r>
       <r>    1.6225    1.0000 </r>
       <r>    1.6225    1.0000 </r>
       <r>    1.6468    1.0000 </r>
       <r>    1.6468    1.0000 </r>
       <r>    1.6779    1.0000 </r>
       <r>    1.6779    1.0000 </r>
       <r>    1.9130    1.0000 </r>
       <r>    1.9130    1.0000 </r>
       <r>    1.9320    1.0000 </r>
       <r>    1.9320    1.0000 </r>
       <r>    2.3713    1.0000 </r>
       <r>    2.3713    1.0000 </r>
       <r>    2.5197    1.0000 </r>
       <r>    2.5197    1.0000 </r>
       <r>    2.8458    0.0005 </r>
       <r>    2.8458    0.0005 </r>
       <r>    3.1704    0.0000 </r>
       <r>    3.1704    0.0000 </r>
       <r>    4.0463    0.0000 </r>
       <r>    4.0463    0.0000 </r>
       <r>    4.7797    0.0000 </r>
       <r>    4.7797    0.0000 </r>
       <r>    5.4695    0.0000 </r>
       <r>    5.4695    0.0000 </r>
       <r>    6.2754    0.0000 </r>
       <r>    6.2754    0.0000 </r>
       <r>    6.9629    0.0000 </r>
       <r>    6.9629    0.0000 </r>
       <r>    7.7405    0.0000 </r>
       <r>    7.7405    0.0000 </r>
       <r>    7.9135    0.0000 </r>
       <r>    7.9135    0.0000 </r>
       <r>    8.0994    0.0000 </r>
       <r>    8.0994    0.0000 </r>
       <r>    8.2294    0.0000 </r>
       <r>    8.2294    0.0000 </r>
       <r>    8.6441    0.0000 </r>
       <r>    8.6441    0.0000 </r>
       <r>    8.6897    0.0000 </r>
       <r>    8.6897    0.0000 </r>
       <r>    9.1323    0.0000 </r>
       <r>    9.1323    0.0000 </r>
       <r>    9.1867    0.0000 </r>
       <r>    9.1867    0.0000 </r>
       <r>    9.4975    0.0000 </r>
       <r>    9.4975    0.0000 </r>
       <r>    9.5410    0.0000 </r>
       <r>    9.5410    0.0000 </r>
       <r>    9.6688    0.0000 </r>
       <r>    9.6688    0.0000 </r>
       <r>    9.9168    0.0000 </r>
       <r>    9.9186    0.0000 </r>
       <r>    9.9742    0.0000 </r>
       <r>    9.9781    0.0000 </r>
       <r>   10.1169    0.0000 </r>
       <r>   10.1513    0.0000 </r>
       <r>   10.1715    0.0000 </r>
       <r>   10.2386    0.0000 </r>
      </set>
      <set comment="kpoint 5">
       <r>  -31.4035    1.0000 </r>
       <r>  -31.4035    1.0000 </r>
       <r>  -31.4004    1.0000 </r>
       <r>  -31.4004    1.0000 </r>
       <r>  -31.3896    1.0000 </r>
       <r>  -31.3896    1.0000 </r>
       <r>  -31.3870    1.0000 </r>
       <r>  -31.3870    1.0000 </r>
       <r>  -14.8150    1.0000 </r>
       <r>  -14.8150    1.0000 </r>
       <r>  -14.6794    1.0000 </r>
       <r>  -14.6794    1.0000 </r>
       <r>  -14.5159    1.0000 </r>
       <r>  -14.5159    1.0000 </r>
       <r>  -14.3482    1.0000 </r>
       <r>  -14.3482    1.0000 </r>
       <r>  -14.2082    1.0000 </r>
       <r>  -14.2082    1.0000 </r>
       <r>  -14.1026    1.0000 </r>
       <r>  -14.1026    1.0000 </r>
       <r>  -13.8807    1.0000 </r>
       <r>  -13.8807    1.0000 </r>
       <r>  -13.8689    1.0000 </r>
       <r>  -13.8689    1.0000 </r>
       <r>  -13.4973    1.0000 </r>
       <r>  -13.4973    1.0000 </r>
       <r>  -13.4636    1.0000 </r>
       <r>  -13.4636    1.0000 </r>
       <r>  -13.4027    1.0000 </r>
       <r>  -13.4027    1.0000 </r>
       <r>  -13.2920    1.0000 </r>
       <r>  -13.2920    1.0000 </r>
       <r>  -13.2834    1.0000 </r>
       <r>  -13.2834    1.0000 </r>
       <r>  -13.2392    1.0000 </r>
       <r>  -13.2392    1.0000 </r>
       <r>  -13.1931    1.0000 </r>
       <r>  -13.1931    1.0000 </r>
       <r>  -13.0093    1.0000 </r>
       <r>  -13.0093    1.0000 </r>
       <r>  -12.9531    1.0000 </r>
       <r>  -12.9531    1.0000 </r>
       <r>  -12.8700    1.0000 </r>
       <r>  -12.8700    1.0000 </r>
       <r>  -12.8588    1.0000 </r>
       <r>  -12.8588    1.0000 </r>
       <r>  -12.6821    1.0000 </r>
       <r>  -12.6821    1.0000 </r>
       <r>   -2.5233    1.0000 </r>
       <r>   -2.5233    1.0000 </r>
       <r>   -2.4310    1.0000 </r>
       <r>   -2.4310    1.0000 </r>
       <r>   -1.9779    1.0000 </r>
       <r>   -1.9779    1.0000 </r>
       <r>   -1.9254    1.0000 </r>
       <r>   -1.9254    1.0000 </r>
       <r>   -1.8225    1.0000 </r>
       <r>   -1.8225    1.0000 </r>
       <r>   -1.7618    1.0000 </r>
       <r>   -1.7618    1.0000 </r>
       <r>   -1.5504    1.0000 </r>
       <r>   -1.5504    1.0000 </r>
       <r>   -1.4983    1.0000 </r>
       <r>   -1.4983    1.0000 </r>
       <r>   -1.3435    1.0000 </r>
       <r>   -1.3435    1.0000 </r>
       <r>   -1.2224    1.0000 </r>
       <r>   -1.2224    1.0000 </r>
       <r>   -1.1577    1.0000 </r>
       <r>   -1.1577    1.0000 </r>
       <r>   -1.1141    1.0000 </r>
       <r>   -1.1141    1.0000 </r>
       <r>   -1.0920    1.0000 </r>
       <r>   -1.0920    1.0000 </r>
       <r>   -1.0550    1.0000 </r>
       <r>   -1.0550    1.0000 </r>
       <r>   -0.8258    1.0000 </r>
       <r>   -0.8258    1.0000 </r>
       <r>   -0.7939    1.0000 </r>
       <r>   -0.7939    1.0000 </r>
       <r>   -0.7122    1.0000 </r>
       <r>   -0.7122    1.0000 </r>
       <r>   -0.7102    1.0000 </r>
       <r>   -0.7102    1.0000 </r>
       <r>   -0.5124    1.0000 </r>
       <r>   -0.5124    1.0000 </r>
       <r>   -0.4922    1.0000 </r>
       <r>   -0.4922    1.0000 </r>
       <r>    0.0788    1.0000 </r>
       <r>    0.0788    1.0000 </r>
       <r>    0.1555    1.0000 </r>
       <r>    0.1555    1.0000 </r>
       <r>    0.1703    1.0000 </r>
       <r>    0.1703    1.0000 </r>
       <r>    0.4654    1.0000 </r>
       <r>    0.4654    1.0000 </r>
       <r>    0.5184    1.0000 </r>
       <r>    0.5184    1.0000 </r>
       <r>    0.8191    1.0000 </r>
       <r>    0.8191    1.0000 </r>
       <r>    0.9269    1.0000 </r>
       <r>    0.9269    1.0000 </r>
       <r>    1.0154    1.0000 </r>
       <r>    1.0154    1.0000 </r>
       <r>    1.0715    1.0000 </r>
       <r>    1.0715    1.0000 </r>
       <r>    1.1045    1.0000 </r>
       <r>    1.1045    1.0000 </r>
       <r>    1.2129    1.0000 </r>
       <r>    1.2129    1.0000 </r>
       <r>    1.2962    1.0000 </r>
       <r>    1.2962    1.0000 </r>
       <r>    1.3317    1.0000 </r>
       <r>    1.3317    1.0000 </r>
       <r>    1.4394    1.0000 </r>
       <r>    1.4394    1.0000 </r>
       <r>    1.4736    1.0000 </r>
       <r>    1.4736    1.0000 </r>
       <r>    1.5239    1.0000 </r>
       <r>    1.5239    1.0000 </r>
       <r>    1.6623    1.0000 </r>
       <r>    1.6623    1.0000 </r>
       <r>    1.7959    1.0000 </r>
       <r>    1.7959    1.0000 </r>
       <r>    1.7961    1.0000 </r>
       <r>    1.7961    1.0000 </r>
       <r>    1.9347    1.0000 </r>
       <r>    1.9347    1.0000 </r>
       <r>    2.1684    1.0000 </r>
       <r>    2.1684    1.0000 </r>
       <r>    2.3912    1.0000 </r>
       <r>    2.3912    1.0000 </r>
       <r>    2.8762    0.0000 </r>
       <r>    2.8762    0.0000 </r>
       <r>    2.8819    0.0000 </r>
       <r>    2.8819    0.0000 </r>
       <r>    4.3446    0.0000 </r>
       <r>    4.3446    0.0000 </r>
       <r>    5.4511    0.0000 </r>
       <r>    5.4511    0.0000 </r>
       <r>    5.4796    0.0000 </r>
       <r>    5.4796    0.0000 </r>
       <r>    6.5282    0.0000 </r>
       <r>    6.5282    0.0000 </r>
       <r>    6.6880    0.0000 </r>
       <r>    6.6880    0.0000 </r>
       <r>    7.3719    0.0000 </r>
       <r>    7.3719    0.0000 </r>
       <r>    7.8424    0.0000 </r>
       <r>    7.8424    0.0000 </r>
       <r>    7.8687    0.0000 </r>
       <r>    7.8687    0.0000 </r>
       <r>    8.2621    0.0000 </r>
       <r>    8.2621    0.0000 </r>
       <r>    8.4484    0.0000 </r>
       <r>    8.4484    0.0000 </r>
       <r>    8.6728    0.0000 </r>
       <r>    8.6728    0.0000 </r>
       <r>    8.7082    0.0000 </r>
       <r>    8.7082    0.0000 </r>
       <r>    8.9631    0.0000 </r>
       <r>    8.9631    0.0000 </r>
       <r>    9.3466    0.0000 </r>
       <r>    9.3466    0.0000 </r>
       <r>    9.7989    0.0000 </r>
       <r>    9.7989    0.0000 </r>
       <r>    9.8346    0.0000 </r>
       <r>    9.8347    0.0000 </r>
       <r>   10.0540    0.0000 </r>
       <r>   10.0563    0.0000 </r>
       <r>   10.1486    0.0000 </r>
       <r>   10.1570    0.0000 </r>
       <r>   10.1954    0.0000 </r>
       <r>   10.2117    0.0000 </r>
       <r>   10.2158    0.0000 </r>
       <r>   10.3341    0.0000 </r>
      </set>
      <set comment="kpoint 6">
       <r>  -31.4022    1.0000 </r>
       <r>  -31.4022    1.0000 </r>
       <r>  -31.4020    1.0000 </r>
       <r>  -31.4020    1.0000 </r>
       <r>  -31.3883    1.0000 </r>
       <r>  -31.3883    1.0000 </r>
       <r>  -31.3880    1.0000 </r>
       <r>  -31.3880    1.0000 </r>
       <r>  -14.8408    1.0000 </r>
       <r>  -14.8408    1.0000 </r>
       <r>  -14.6388    1.0000 </r>
       <r>  -14.6388    1.0000 </r>
       <r>  -14.5578    1.0000 </r>
       <r>  -14.5578    1.0000 </r>
       <r>  -14.3409    1.0000 </r>
       <r>  -14.3409    1.0000 </r>
       <r>  -14.1800    1.0000 </r>
       <r>  -14.1800    1.0000 </r>
       <r>  -14.0807    1.0000 </r>
       <r>  -14.0807    1.0000 </r>
       <r>  -13.8816    1.0000 </r>
       <r>  -13.8816    1.0000 </r>
       <r>  -13.7680    1.0000 </r>
       <r>  -13.7680    1.0000 </r>
       <r>  -13.6459    1.0000 </r>
       <r>  -13.6459    1.0000 </r>
       <r>  -13.4738    1.0000 </r>
       <r>  -13.4738    1.0000 </r>
       <r>  -13.4643    1.0000 </r>
       <r>  -13.4643    1.0000 </r>
       <r>  -13.2810    1.0000 </r>
       <r>  -13.2810    1.0000 </r>
       <r>  -13.2469    1.0000 </r>
       <r>  -13.2469    1.0000 </r>
       <r>  -13.2166    1.0000 </r>
       <r>  -13.2166    1.0000 </r>
       <r>  -13.1690    1.0000 </r>
       <r>  -13.1690    1.0000 </r>
       <r>  -13.0897    1.0000 </r>
       <r>  -13.0897    1.0000 </r>
       <r>  -12.9763    1.0000 </r>
       <r>  -12.9763    1.0000 </r>
       <r>  -12.8260    1.0000 </r>
       <r>  -12.8260    1.0000 </r>
       <r>  -12.7467    1.0000 </r>
       <r>  -12.7467    1.0000 </r>
       <r>  -12.7371    1.0000 </r>
       <r>  -12.7371    1.0000 </r>
       <r>   -2.5795    1.0000 </r>
       <r>   -2.5795    1.0000 </r>
       <r>   -2.3876    1.0000 </r>
       <r>   -2.3876    1.0000 </r>
       <r>   -2.0165    1.0000 </r>
       <r>   -2.0165    1.0000 </r>
       <r>   -1.8742    1.0000 </r>
       <r>   -1.8742    1.0000 </r>
       <r>   -1.8086    1.0000 </r>
       <r>   -1.8086    1.0000 </r>
       <r>   -1.7227    1.0000 </r>
       <r>   -1.7227    1.0000 </r>
       <r>   -1.7117    1.0000 </r>
       <r>   -1.7117    1.0000 </r>
       <r>   -1.3454    1.0000 </r>
       <r>   -1.3454    1.0000 </r>
       <r>   -1.3273    1.0000 </r>
       <r>   -1.3273    1.0000 </r>
       <r>   -1.2586    1.0000 </r>
       <r>   -1.2586    1.0000 </r>
       <r>   -1.1856    1.0000 </r>
       <r>   -1.1856    1.0000 </r>
       <r>   -1.1582    1.0000 </r>
       <r>   -1.1582    1.0000 </r>
       <r>   -1.0677    1.0000 </r>
       <r>   -1.0677    1.0000 </r>
       <r>   -0.9947    1.0000 </r>
       <r>   -0.9947    1.0000 </r>
       <r>   -0.8579    1.0000 </r>
       <r>   -0.8579    1.0000 </r>
       <r>   -0.8547    1.0000 </r>
       <r>   -0.8547    1.0000 </r>
       <r>   -0.7940    1.0000 </r>
       <r>   -0.7940    1.0000 </r>
       <r>   -0.5906    1.0000 </r>
       <r>   -0.5906    1.0000 </r>
       <r>   -0.5526    1.0000 </r>
       <r>   -0.5526    1.0000 </r>
       <r>   -0.4993    1.0000 </r>
       <r>   -0.4993    1.0000 </r>
       <r>    0.1357    1.0000 </r>
       <r>    0.1357    1.0000 </r>
       <r>    0.1740    1.0000 </r>
       <r>    0.1740    1.0000 </r>
       <r>    0.1900    1.0000 </r>
       <r>    0.1900    1.0000 </r>
       <r>    0.5667    1.0000 </r>
       <r>    0.5667    1.0000 </r>
       <r>    0.6496    1.0000 </r>
       <r>    0.6496    1.0000 </r>
       <r>    0.8067    1.0000 </r>
       <r>    0.8067    1.0000 </r>
       <r>    0.8969    1.0000 </r>
       <r>    0.8969    1.0000 </r>
       <r>    0.9561    1.0000 </r>
       <r>    0.9561    1.0000 </r>
       <r>    1.0596    1.0000 </r>
       <r>    1.0596    1.0000 </r>
       <r>    1.1263    1.0000 </r>
       <r>    1.1263    1.0000 </r>
       <r>    1.1468    1.0000 </r>
       <r>    1.1468    1.0000 </r>
       <r>    1.2252    1.0000 </r>
       <r>    1.2252    1.0000 </r>
       <r>    1.3067    1.0000 </r>
       <r>    1.3067    1.0000 </r>
       <r>    1.4104    1.0000 </r>
       <r>    1.4104    1.0000 </r>
       <r>    1.5093    1.0000 </r>
       <r>    1.5093    1.0000 </r>
       <r>    1.5252    1.0000 </r>
       <r>    1.5252    1.0000 </r>
       <r>    1.6298    1.0000 </r>
       <r>    1.6298    1.0000 </r>
       <r>    1.7122    1.0000 </r>
       <r>    1.7122    1.0000 </r>
       <r>    1.8760    1.0000 </r>
       <r>    1.8760    1.0000 </r>
       <r>    1.9270    1.0000 </r>
       <r>    1.9270    1.0000 </r>
       <r>    2.0881    1.0000 </r>
       <r>    2.0881    1.0000 </r>
       <r>    2.3354    1.0000 </r>
       <r>    2.3354    1.0000 </r>
       <r>    2.7437    0.3337 </r>
       <r>    2.7437    0.3337 </r>
       <r>    3.1651    0.0000 </r>
       <r>    3.1651    0.0000 </r>
       <r>    4.7394    0.0000 </r>
       <r>    4.7394    0.0000 </r>
       <r>    4.9620    0.0000 </r>
       <r>    4.9620    0.0000 </r>
       <r>    5.5914    0.0000 </r>
       <r>    5.5914    0.0000 </r>
       <r>    6.5356    0.0000 </r>
       <r>    6.5356    0.0000 </r>
       <r>    7.0303    0.0000 </r>
       <r>    7.0303    0.0000 </r>
       <r>    7.0474    0.0000 </r>
       <r>    7.0474    0.0000 </r>
       <r>    7.4200    0.0000 </r>
       <r>    7.4200    0.0000 </r>
       <r>    7.7189    0.0000 </r>
       <r>    7.7189    0.0000 </r>
       <r>    8.2523    0.0000 </r>
       <r>    8.2523    0.0000 </r>
       <r>    8.4858    0.0000 </r>
       <r>    8.4858    0.0000 </r>
       <r>    8.6532    0.0000 </r>
       <r>    8.6532    0.0000 </r>
       <r>    9.2186    0.0000 </r>
       <r>    9.2186    0.0000 </r>
       <r>    9.3872    0.0000 </r>
       <r>    9.3872    0.0000 </r>
       <r>    9.4101    0.0000 </r>
       <r>    9.4101    0.0000 </r>
       <r>    9.7899    0.0000 </r>
       <r>    9.7900    0.0000 </r>
       <r>    9.8692    0.0000 </r>
       <r>    9.8692    0.0000 </r>
       <r>    9.9040    0.0000 </r>
       <r>    9.9041    0.0000 </r>
       <r>   10.0188    0.0000 </r>
       <r>   10.0189    0.0000 </r>
       <r>   10.1147    0.0000 </r>
       <r>   10.1168    0.0000 </r>
       <r>   10.1710    0.0000 </r>
       <r>   10.1737    0.0000 </r>
      </set>
      <set comment="kpoint 7">
       <r>  -31.4101    1.0000 </r>
       <r>  -31.4101    1.0000 </r>
       <r>  -31.4022    1.0000 </r>
       <r>  -31.4022    1.0000 </r>
       <r>  -31.3880    1.0000 </r>
       <r>  -31.3880    1.0000 </r>
       <r>  -31.3811    1.0000 </r>
       <r>  -31.3811    1.0000 </r>
       <r>  -14.8344    1.0000 </r>
       <r>  -14.8344    1.0000 </r>
       <r>  -14.6371    1.0000 </r>
       <r>  -14.6371    1.0000 </r>
       <r>  -14.4787    1.0000 </r>
       <r>  -14.4787    1.0000 </r>
       <r>  -14.2253    1.0000 </r>
       <r>  -14.2253    1.0000 </r>
       <r>  -14.0942    1.0000 </r>
       <r>  -14.0942    1.0000 </r>
       <r>  -13.9082    1.0000 </r>
       <r>  -13.9082    1.0000 </r>
       <r>  -13.9056    1.0000 </r>
       <r>  -13.9056    1.0000 </r>
       <r>  -13.8431    1.0000 </r>
       <r>  -13.8431    1.0000 </r>
       <r>  -13.6020    1.0000 </r>
       <r>  -13.6020    1.0000 </r>
       <r>  -13.5187    1.0000 </r>
       <r>  -13.5187    1.0000 </r>
       <r>  -13.4338    1.0000 </r>
       <r>  -13.4338    1.0000 </r>
       <r>  -13.2989    1.0000 </r>
       <r>  -13.2989    1.0000 </r>
       <r>  -13.2659    1.0000 </r>
       <r>  -13.2659    1.0000 </r>
       <r>  -13.2292    1.0000 </r>
       <r>  -13.2292    1.0000 </r>
       <r>  -13.1379    1.0000 </r>
       <r>  -13.1379    1.0000 </r>
       <r>  -13.1223    1.0000 </r>
       <r>  -13.1223    1.0000 </r>
       <r>  -13.1083    1.0000 </r>
       <r>  -13.1083    1.0000 </r>
       <r>  -13.0379    1.0000 </r>
       <r>  -13.0379    1.0000 </r>
       <r>  -12.8508    1.0000 </r>
       <r>  -12.8508    1.0000 </r>
       <r>  -12.7428    1.0000 </r>
       <r>  -12.7428    1.0000 </r>
       <r>   -2.5584    1.0000 </r>
       <r>   -2.5584    1.0000 </r>
       <r>   -2.5563    1.0000 </r>
       <r>   -2.5563    1.0000 </r>
       <r>   -1.9518    1.0000 </r>
       <r>   -1.9518    1.0000 </r>
       <r>   -1.8653    1.0000 </r>
       <r>   -1.8653    1.0000 </r>
       <r>   -1.7970    1.0000 </r>
       <r>   -1.7970    1.0000 </r>
       <r>   -1.7595    1.0000 </r>
       <r>   -1.7595    1.0000 </r>
       <r>   -1.6617    1.0000 </r>
       <r>   -1.6617    1.0000 </r>
       <r>   -1.4808    1.0000 </r>
       <r>   -1.4808    1.0000 </r>
       <r>   -1.4290    1.0000 </r>
       <r>   -1.4290    1.0000 </r>
       <r>   -1.2613    1.0000 </r>
       <r>   -1.2613    1.0000 </r>
       <r>   -1.1994    1.0000 </r>
       <r>   -1.1994    1.0000 </r>
       <r>   -1.1200    1.0000 </r>
       <r>   -1.1200    1.0000 </r>
       <r>   -1.1083    1.0000 </r>
       <r>   -1.1083    1.0000 </r>
       <r>   -1.1043    1.0000 </r>
       <r>   -1.1043    1.0000 </r>
       <r>   -0.9218    1.0000 </r>
       <r>   -0.9218    1.0000 </r>
       <r>   -0.5830    1.0000 </r>
       <r>   -0.5830    1.0000 </r>
       <r>   -0.5788    1.0000 </r>
       <r>   -0.5788    1.0000 </r>
       <r>   -0.5776    1.0000 </r>
       <r>   -0.5776    1.0000 </r>
       <r>   -0.5291    1.0000 </r>
       <r>   -0.5291    1.0000 </r>
       <r>   -0.5033    1.0000 </r>
       <r>   -0.5033    1.0000 </r>
       <r>   -0.0582    1.0000 </r>
       <r>   -0.0582    1.0000 </r>
       <r>    0.2779    1.0000 </r>
       <r>    0.2779    1.0000 </r>
       <r>    0.3761    1.0000 </r>
       <r>    0.3761    1.0000 </r>
       <r>    0.4103    1.0000 </r>
       <r>    0.4103    1.0000 </r>
       <r>    0.5217    1.0000 </r>
       <r>    0.5217    1.0000 </r>
       <r>    0.7173    1.0000 </r>
       <r>    0.7173    1.0000 </r>
       <r>    0.8929    1.0000 </r>
       <r>    0.8929    1.0000 </r>
       <r>    0.9616    1.0000 </r>
       <r>    0.9616    1.0000 </r>
       <r>    1.1080    1.0000 </r>
       <r>    1.1080    1.0000 </r>
       <r>    1.2459    1.0000 </r>
       <r>    1.2459    1.0000 </r>
       <r>    1.3189    1.0000 </r>
       <r>    1.3189    1.0000 </r>
       <r>    1.3544    1.0000 </r>
       <r>    1.3544    1.0000 </r>
       <r>    1.4153    1.0000 </r>
       <r>    1.4153    1.0000 </r>
       <r>    1.4553    1.0000 </r>
       <r>    1.4553    1.0000 </r>
       <r>    1.4883    1.0000 </r>
       <r>    1.4883    1.0000 </r>
       <r>    1.5669    1.0000 </r>
       <r>    1.5669    1.0000 </r>
       <r>    1.6836    1.0000 </r>
       <r>    1.6836    1.0000 </r>
       <r>    1.7460    1.0000 </r>
       <r>    1.7460    1.0000 </r>
       <r>    1.9539    1.0000 </r>
       <r>    1.9539    1.0000 </r>
       <r>    1.9995    1.0000 </r>
       <r>    1.9995    1.0000 </r>
       <r>    2.4286    1.0000 </r>
       <r>    2.4286    1.0000 </r>
       <r>    2.5982    0.9999 </r>
       <r>    2.5982    0.9999 </r>
       <r>    2.8862    0.0000 </r>
       <r>    2.8862    0.0000 </r>
       <r>    3.2081    0.0000 </r>
       <r>    3.2081    0.0000 </r>
       <r>    3.9904    0.0000 </r>
       <r>    3.9904    0.0000 </r>
       <r>    4.6060    0.0000 </r>
       <r>    4.6060    0.0000 </r>
       <r>    5.1770    0.0000 </r>
       <r>    5.1770    0.0000 </r>
       <r>    6.0671    0.0000 </r>
       <r>    6.0671    0.0000 </r>
       <r>    7.5770    0.0000 </r>
       <r>    7.5770    0.0000 </r>
       <r>    7.6157    0.0000 </r>
       <r>    7.6157    0.0000 </r>
       <r>    7.9321    0.0000 </r>
       <r>    7.9321    0.0000 </r>
       <r>    8.0753    0.0000 </r>
       <r>    8.0753    0.0000 </r>
       <r>    8.3079    0.0000 </r>
       <r>    8.3079    0.0000 </r>
       <r>    8.6455    0.0000 </r>
       <r>    8.6455    0.0000 </r>
       <r>    8.7789    0.0000 </r>
       <r>    8.7789    0.0000 </r>
       <r>    8.8220    0.0000 </r>
       <r>    8.8220    0.0000 </r>
       <r>    9.1190    0.0000 </r>
       <r>    9.1190    0.0000 </r>
       <r>    9.1634    0.0000 </r>
       <r>    9.1634    0.0000 </r>
       <r>    9.4956    0.0000 </r>
       <r>    9.4956    0.0000 </r>
       <r>    9.5054    0.0000 </r>
       <r>    9.5054    0.0000 </r>
       <r>    9.9472    0.0000 </r>
       <r>    9.9472    0.0000 </r>
       <r>   10.1590    0.0000 </r>
       <r>   10.1601    0.0000 </r>
       <r>   10.1887    0.0000 </r>
       <r>   10.1918    0.0000 </r>
       <r>   10.3291    0.0000 </r>
       <r>   10.3503    0.0000 </r>
      </set>
      <set comment="kpoint 8">
       <r>  -31.4092    1.0000 </r>
       <r>  -31.4092    1.0000 </r>
       <r>  -31.4036    1.0000 </r>
       <r>  -31.4036    1.0000 </r>
       <r>  -31.3868    1.0000 </r>
       <r>  -31.3868    1.0000 </r>
       <r>  -31.3816    1.0000 </r>
       <r>  -31.3816    1.0000 </r>
       <r>  -14.7661    1.0000 </r>
       <r>  -14.7661    1.0000 </r>
       <r>  -14.6968    1.0000 </r>
       <r>  -14.6968    1.0000 </r>
       <r>  -14.5066    1.0000 </r>
       <r>  -14.5066    1.0000 </r>
       <r>  -14.2374    1.0000 </r>
       <r>  -14.2374    1.0000 </r>
       <r>  -14.0682    1.0000 </r>
       <r>  -14.0682    1.0000 </r>
       <r>  -13.9779    1.0000 </r>
       <r>  -13.9779    1.0000 </r>
       <r>  -13.8771    1.0000 </r>
       <r>  -13.8771    1.0000 </r>
       <r>  -13.8661    1.0000 </r>
       <r>  -13.8661    1.0000 </r>
       <r>  -13.4975    1.0000 </r>
       <r>  -13.4975    1.0000 </r>
       <r>  -13.4262    1.0000 </r>
       <r>  -13.4262    1.0000 </r>
       <r>  -13.4251    1.0000 </r>
       <r>  -13.4251    1.0000 </r>
       <r>  -13.3726    1.0000 </r>
       <r>  -13.3726    1.0000 </r>
       <r>  -13.3213    1.0000 </r>
       <r>  -13.3213    1.0000 </r>
       <r>  -13.2457    1.0000 </r>
       <r>  -13.2457    1.0000 </r>
       <r>  -13.2364    1.0000 </r>
       <r>  -13.2364    1.0000 </r>
       <r>  -13.1164    1.0000 </r>
       <r>  -13.1164    1.0000 </r>
       <r>  -12.9667    1.0000 </r>
       <r>  -12.9667    1.0000 </r>
       <r>  -12.9510    1.0000 </r>
       <r>  -12.9510    1.0000 </r>
       <r>  -12.8716    1.0000 </r>
       <r>  -12.8716    1.0000 </r>
       <r>  -12.8497    1.0000 </r>
       <r>  -12.8497    1.0000 </r>
       <r>   -2.7370    1.0000 </r>
       <r>   -2.7370    1.0000 </r>
       <r>   -2.2182    1.0000 </r>
       <r>   -2.2182    1.0000 </r>
       <r>   -2.1356    1.0000 </r>
       <r>   -2.1356    1.0000 </r>
       <r>   -1.8742    1.0000 </r>
       <r>   -1.8742    1.0000 </r>
       <r>   -1.8214    1.0000 </r>
       <r>   -1.8214    1.0000 </r>
       <r>   -1.7117    1.0000 </r>
       <r>   -1.7117    1.0000 </r>
       <r>   -1.6506    1.0000 </r>
       <r>   -1.6506    1.0000 </r>
       <r>   -1.4831    1.0000 </r>
       <r>   -1.4831    1.0000 </r>
       <r>   -1.3385    1.0000 </r>
       <r>   -1.3385    1.0000 </r>
       <r>   -1.2685    1.0000 </r>
       <r>   -1.2685    1.0000 </r>
       <r>   -1.1737    1.0000 </r>
       <r>   -1.1737    1.0000 </r>
       <r>   -1.1431    1.0000 </r>
       <r>   -1.1431    1.0000 </r>
       <r>   -1.1237    1.0000 </r>
       <r>   -1.1237    1.0000 </r>
       <r>   -1.0961    1.0000 </r>
       <r>   -1.0961    1.0000 </r>
       <r>   -0.8820    1.0000 </r>
       <r>   -0.8820    1.0000 </r>
       <r>   -0.7459    1.0000 </r>
       <r>   -0.7459    1.0000 </r>
       <r>   -0.6917    1.0000 </r>
       <r>   -0.6917    1.0000 </r>
       <r>   -0.5133    1.0000 </r>
       <r>   -0.5133    1.0000 </r>
       <r>   -0.4810    1.0000 </r>
       <r>   -0.4810    1.0000 </r>
       <r>   -0.3767    1.0000 </r>
       <r>   -0.3767    1.0000 </r>
       <r>    0.0438    1.0000 </r>
[...]
       <r>     5.0226     1.8297   139.5584 </r>
       <r>     5.1761     1.4170   139.7759 </r>
       <r>     5.3296     3.5870   140.3265 </r>
       <r>     5.4831     4.3798   140.9989 </r>
       <r>     5.6366     4.2969   141.6585 </r>
       <r>     5.7901     3.3861   142.1783 </r>
       <r>     5.9436     2.9268   142.6276 </r>
       <r>     6.0972     4.2864   143.2857 </r>
       <r>     6.2507     0.5690   143.3730 </r>
       <r>     6.4042     1.2344   143.5625 </r>
       <r>     6.5577     1.2507   143.7545 </r>
       <r>     6.7112     1.7750   144.0270 </r>
       <r>     6.8647     0.6411   144.1254 </r>
       <r>     7.0182     2.4587   144.5029 </r>
       <r>     7.1717     3.2233   144.9977 </r>
       <r>     7.3253     1.6034   145.2438 </r>
       <r>     7.4788     5.4064   146.0738 </r>
       <r>     7.6323     6.7080   147.1035 </r>
       <r>     7.7858     8.5030   148.4089 </r>
       <r>     7.9393     9.1266   149.8099 </r>
       <r>     8.0928     8.6333   151.1352 </r>
       <r>     8.2463     8.5498   152.4477 </r>
       <r>     8.3998    11.7761   154.2555 </r>
       <r>     8.5534     5.2817   155.0663 </r>
       <r>     8.7069    11.6795   156.8593 </r>
       <r>     8.8604     8.7468   158.2020 </r>
       <r>     9.0139     8.4492   159.4991 </r>
       <r>     9.1674    10.5572   161.1197 </r>
       <r>     9.3209    10.9827   162.8057 </r>
       <r>     9.4744     6.6602   163.8281 </r>
       <r>     9.6279    12.3376   165.7221 </r>
       <r>     9.7815    12.5322   167.6459 </r>
       <r>     9.9350    14.5740   169.8832 </r>
       <r>    10.0885    12.8908   171.8621 </r>
       <r>    10.2420    17.8804   174.6070 </r>
       <r>    10.3955     7.6361   175.7792 </r>
       <r>    10.5490     1.4376   175.9999 </r>
       <r>    10.7025     0.0006   176.0000 </r>
       <r>    10.8560     0.0000   176.0000 </r>
       <r>    11.0096     0.0000   176.0000 </r>
       <r>    11.1631     0.0000   176.0000 </r>
       <r>    11.3166     0.0000   176.0000 </r>
       <r>    11.4701     0.0000   176.0000 </r>
       <r>    11.6236     0.0000   176.0000 </r>
       <r>    11.7771     0.0000   176.0000 </r>
       <r>    11.9306     0.0000   176.0000 </r>
       <r>    12.0841     0.0000   176.0000 </r>
       <r>    12.2376     0.0000   176.0000 </r>
       <r>    12.3912     0.0000   176.0000 </r>
       <r>    12.5447     0.0000   176.0000 </r>
      </set>
      <set comment="spin 2">
       <r>   -33.5090     0.0000     0.0000 </r>
       <r>   -33.3555     0.0000     0.0000 </r>
       <r>   -33.2020     0.0000     0.0000 </r>
       <r>   -33.0485     0.0000     0.0000 </r>
       <r>   -32.8950     0.0000     0.0000 </r>
       <r>   -32.7415     0.0000     0.0000 </r>
       <r>   -32.5880     0.0000     0.0000 </r>
       <r>   -32.4345     0.0000     0.0000 </r>
       <r>   -32.2809     0.0000     0.0000 </r>
       <r>   -32.1274     0.0000     0.0000 </r>
       <r>   -31.9739     0.0000     0.0000 </r>
       <r>   -31.8204     0.0000     0.0000 </r>
       <r>   -31.6669     0.0000     0.0000 </r>
       <r>   -31.5134     0.0319     0.0049 </r>
       <r>   -31.3599    43.3714     6.6630 </r>
       <r>   -31.2064     8.7097     8.0000 </r>
       <r>   -31.0528     0.0000     8.0000 </r>
       <r>   -30.8993     0.0000     8.0000 </r>
       <r>   -30.7458     0.0000     8.0000 </r>
       <r>   -30.5923     0.0000     8.0000 </r>
       <r>   -30.4388     0.0000     8.0000 </r>
       <r>   -30.2853     0.0000     8.0000 </r>
       <r>   -30.1318     0.0000     8.0000 </r>
       <r>   -29.9783     0.0000     8.0000 </r>
       <r>   -29.8247     0.0000     8.0000 </r>
       <r>   -29.6712     0.0000     8.0000 </r>
       <r>   -29.5177     0.0000     8.0000 </r>
       <r>   -29.3642     0.0000     8.0000 </r>
       <r>   -29.2107     0.0000     8.0000 </r>
       <r>   -29.0572     0.0000     8.0000 </r>
       <r>   -28.9037     0.0000     8.0000 </r>
       <r>   -28.7502     0.0000     8.0000 </r>
       <r>   -28.5966     0.0000     8.0000 </r>
       <r>   -28.4431     0.0000     8.0000 </r>
       <r>   -28.2896     0.0000     8.0000 </r>
       <r>   -28.1361     0.0000     8.0000 </r>
       <r>   -27.9826     0.0000     8.0000 </r>
       <r>   -27.8291     0.0000     8.0000 </r>
       <r>   -27.6756     0.0000     8.0000 </r>
       <r>   -27.5221     0.0000     8.0000 </r>
       <r>   -27.3685     0.0000     8.0000 </r>
       <r>   -27.2150     0.0000     8.0000 </r>
       <r>   -27.0615     0.0000     8.0000 </r>
       <r>   -26.9080     0.0000     8.0000 </r>
       <r>   -26.7545     0.0000     8.0000 </r>
       <r>   -26.6010     0.0000     8.0000 </r>
       <r>   -26.4475     0.0000     8.0000 </r>
       <r>   -26.2940     0.0000     8.0000 </r>
       <r>   -26.1404     0.0000     8.0000 </r>
       <r>   -25.9869     0.0000     8.0000 </r>
       <r>   -25.8334     0.0000     8.0000 </r>
       <r>   -25.6799     0.0000     8.0000 </r>
       <r>   -25.5264     0.0000     8.0000 </r>
       <r>   -25.3729     0.0000     8.0000 </r>
       <r>   -25.2194     0.0000     8.0000 </r>
       <r>   -25.0659     0.0000     8.0000 </r>
       <r>   -24.9123     0.0000     8.0000 </r>
       <r>   -24.7588     0.0000     8.0000 </r>
       <r>   -24.6053     0.0000     8.0000 </r>
       <r>   -24.4518     0.0000     8.0000 </r>
       <r>   -24.2983     0.0000     8.0000 </r>
       <r>   -24.1448     0.0000     8.0000 </r>
       <r>   -23.9913     0.0000     8.0000 </r>
       <r>   -23.8378     0.0000     8.0000 </r>
       <r>   -23.6842     0.0000     8.0000 </r>
       <r>   -23.5307     0.0000     8.0000 </r>
       <r>   -23.3772     0.0000     8.0000 </r>
       <r>   -23.2237     0.0000     8.0000 </r>
       <r>   -23.0702     0.0000     8.0000 </r>
       <r>   -22.9167     0.0000     8.0000 </r>
       <r>   -22.7632     0.0000     8.0000 </r>
       <r>   -22.6097     0.0000     8.0000 </r>
       <r>   -22.4561     0.0000     8.0000 </r>
       <r>   -22.3026     0.0000     8.0000 </r>
       <r>   -22.1491     0.0000     8.0000 </r>
       <r>   -21.9956     0.0000     8.0000 </r>
       <r>   -21.8421     0.0000     8.0000 </r>
       <r>   -21.6886     0.0000     8.0000 </r>
       <r>   -21.5351     0.0000     8.0000 </r>
       <r>   -21.3816     0.0000     8.0000 </r>
       <r>   -21.2280     0.0000     8.0000 </r>
       <r>   -21.0745     0.0000     8.0000 </r>
       <r>   -20.9210     0.0000     8.0000 </r>
       <r>   -20.7675     0.0000     8.0000 </r>
       <r>   -20.6140     0.0000     8.0000 </r>
       <r>   -20.4605     0.0000     8.0000 </r>
       <r>   -20.3070     0.0000     8.0000 </r>
       <r>   -20.1535     0.0000     8.0000 </r>
       <r>   -19.9999     0.0000     8.0000 </r>
       <r>   -19.8464     0.0000     8.0000 </r>
       <r>   -19.6929     0.0000     8.0000 </r>
       <r>   -19.5394     0.0000     8.0000 </r>
       <r>   -19.3859     0.0000     8.0000 </r>
       <r>   -19.2324     0.0000     8.0000 </r>
       <r>   -19.0789     0.0000     8.0000 </r>
       <r>   -18.9254     0.0000     8.0000 </r>
       <r>   -18.7718     0.0000     8.0000 </r>
       <r>   -18.6183     0.0000     8.0000 </r>
       <r>   -18.4648     0.0000     8.0000 </r>
       <r>   -18.3113     0.0000     8.0000 </r>
       <r>   -18.1578     0.0000     8.0000 </r>
       <r>   -18.0043     0.0000     8.0000 </r>
       <r>   -17.8508     0.0000     8.0000 </r>
       <r>   -17.6973     0.0000     8.0000 </r>
       <r>   -17.5438     0.0000     8.0000 </r>
       <r>   -17.3902     0.0000     8.0000 </r>
       <r>   -17.2367     0.0000     8.0000 </r>
       <r>   -17.0832     0.0000     8.0000 </r>
       <r>   -16.9297     0.0000     8.0000 </r>
       <r>   -16.7762     0.0000     8.0000 </r>
       <r>   -16.6227     0.0000     8.0000 </r>
       <r>   -16.4692     0.0000     8.0000 </r>
       <r>   -16.3157     0.0000     8.0000 </r>
       <r>   -16.1621     0.0000     8.0000 </r>
       <r>   -16.0086     0.0000     8.0000 </r>
       <r>   -15.8551     0.0000     8.0000 </r>
       <r>   -15.7016     0.0000     8.0000 </r>
       <r>   -15.5481     0.0000     8.0000 </r>
       <r>   -15.3946     0.0000     8.0000 </r>
       <r>   -15.2411     0.0000     8.0000 </r>
       <r>   -15.0876     0.0000     8.0000 </r>
       <r>   -14.9340     0.3276     8.0503 </r>
       <r>   -14.7805     9.1607     9.4566 </r>
       <r>   -14.6270    14.6662    11.7080 </r>
       <r>   -14.4735    11.6421    13.4952 </r>
       <r>   -14.3200     7.0279    14.5741 </r>
       <r>   -14.1665    11.4886    16.3377 </r>
       <r>   -14.0130    17.2975    18.9931 </r>
       <r>   -13.8595    22.2571    22.4098 </r>
       <r>   -13.7059     9.7096    23.9004 </r>
       <r>   -13.5524     8.6126    25.2225 </r>
       <r>   -13.3989    28.2642    29.5614 </r>
       <r>   -13.2454    31.5951    34.4117 </r>
       <r>   -13.0919    31.2749    39.2128 </r>
       <r>   -12.9384    20.4597    42.3536 </r>
       <r>   -12.7849    23.0315    45.8892 </r>
       <r>   -12.6314    13.2021    47.9159 </r>
       <r>   -12.4778     0.5479    48.0000 </r>
       <r>   -12.3243     0.0000    48.0000 </r>
       <r>   -12.1708     0.0000    48.0000 </r>
       <r>   -12.0173     0.0000    48.0000 </r>
       <r>   -11.8638     0.0000    48.0000 </r>
       <r>   -11.7103     0.0000    48.0000 </r>
       <r>   -11.5568     0.0000    48.0000 </r>
       <r>   -11.4033     0.0000    48.0000 </r>
       <r>   -11.2497     0.0000    48.0000 </r>
       <r>   -11.0962     0.0000    48.0000 </r>
       <r>   -10.9427     0.0000    48.0000 </r>
       <r>   -10.7892     0.0000    48.0000 </r>
       <r>   -10.6357     0.0000    48.0000 </r>
       <r>   -10.4822     0.0000    48.0000 </r>
       <r>   -10.3287     0.0000    48.0000 </r>
       <r>   -10.1752     0.0000    48.0000 </r>
       <r>   -10.0216     0.0000    48.0000 </r>
       <r>    -9.8681     0.0000    48.0000 </r>
       <r>    -9.7146     0.0000    48.0000 </r>
       <r>    -9.5611     0.0000    48.0000 </r>
       <r>    -9.4076     0.0000    48.0000 </r>
       <r>    -9.2541     0.0000    48.0000 </r>
       <r>    -9.1006     0.0000    48.0000 </r>
       <r>    -8.9471     0.0000    48.0000 </r>
       <r>    -8.7935     0.0000    48.0000 </r>
       <r>    -8.6400     0.0000    48.0000 </r>
       <r>    -8.4865     0.0000    48.0000 </r>
       <r>    -8.3330     0.0000    48.0000 </r>
       <r>    -8.1795     0.0000    48.0000 </r>
       <r>    -8.0260     0.0000    48.0000 </r>
       <r>    -7.8725     0.0000    48.0000 </r>
       <r>    -7.7190     0.0000    48.0000 </r>
       <r>    -7.5654     0.0000    48.0000 </r>
       <r>    -7.4119     0.0000    48.0000 </r>
       <r>    -7.2584     0.0000    48.0000 </r>
       <r>    -7.1049     0.0000    48.0000 </r>
       <r>    -6.9514     0.0000    48.0000 </r>
       <r>    -6.7979     0.0000    48.0000 </r>
       <r>    -6.6444     0.0000    48.0000 </r>
       <r>    -6.4909     0.0000    48.0000 </r>
       <r>    -6.3373     0.0000    48.0000 </r>
       <r>    -6.1838     0.0000    48.0000 </r>
       <r>    -6.0303     0.0000    48.0000 </r>
       <r>    -5.8768     0.0000    48.0000 </r>
       <r>    -5.7233     0.0000    48.0000 </r>
       <r>    -5.5698     0.0000    48.0000 </r>
       <r>    -5.4163     0.0000    48.0000 </r>
       <r>    -5.2628     0.0000    48.0000 </r>
       <r>    -5.1092     0.0000    48.0000 </r>
       <r>    -4.9557     0.0000    48.0000 </r>
       <r>    -4.8022     0.0000    48.0000 </r>
       <r>    -4.6487     0.0000    48.0000 </r>
       <r>    -4.4952     0.0000    48.0000 </r>
       <r>    -4.3417     0.0000    48.0000 </r>
       <r>    -4.1882     0.0000    48.0000 </r>
       <r>    -4.0347     0.0000    48.0000 </r>
       <r>    -3.8811     0.0000    48.0000 </r>
       <r>    -3.7276     0.0000    48.0000 </r>
       <r>    -3.5741     0.0000    48.0000 </r>
       <r>    -3.4206     0.0000    48.0000 </r>
       <r>    -3.2671     0.0000    48.0000 </r>
       <r>    -3.1136     0.0000    48.0000 </r>
       <r>    -2.9601     0.0000    48.0000 </r>
       <r>    -2.8066     0.0492    48.0076 </r>
       <r>    -2.6531     4.2792    48.6645 </r>
       <r>    -2.4995    10.2804    50.2426 </r>
       <r>    -2.3460     6.7394    51.2772 </r>
       <r>    -2.1925     4.2980    51.9370 </r>
       <r>    -2.0390     5.2446    52.7421 </r>
       <r>    -1.8855    15.5899    55.1354 </r>
       <r>    -1.7320    28.1596    59.4582 </r>
       <r>    -1.5785    13.6516    61.5539 </r>
       <r>    -1.4250    15.9827    64.0074 </r>
       <r>    -1.2714    15.5440    66.3936 </r>
       <r>    -1.1179    31.4797    71.2261 </r>
       <r>    -0.9644    31.0632    75.9947 </r>
       <r>    -0.8109    19.5632    78.9979 </r>
       <r>    -0.6574    18.7606    81.8779 </r>
       <r>    -0.5039    21.6970    85.2087 </r>
       <r>    -0.3504    17.4736    87.8911 </r>
       <r>    -0.1969     1.1936    88.0743 </r>
       <r>    -0.0433     1.4022    88.2896 </r>
       <r>     0.1102    11.2904    90.0228 </r>
       <r>     0.2637    16.3852    92.5381 </r>
       <r>     0.4172    12.1540    94.4039 </r>
       <r>     0.5707    15.7295    96.8186 </r>
       <r>     0.7242    14.5319    99.0494 </r>
       <r>     0.8777    11.6627   100.8398 </r>
       <r>     1.0312    18.5946   103.6943 </r>
       <r>     1.1848    24.9948   107.5313 </r>
       <r>     1.3383    27.0154   111.6785 </r>
       <r>     1.4918    34.0472   116.9052 </r>
       <r>     1.6453    25.1739   120.7697 </r>
       <r>     1.7988    20.2993   123.8859 </r>
       <r>     1.9523    16.1242   126.3611 </r>
       <r>     2.1058     9.1952   127.7727 </r>
       <r>     2.2593     7.6907   128.9533 </r>
       <r>     2.4129     8.4670   130.2531 </r>
       <r>     2.5664     7.4870   131.4025 </r>
       <r>     2.7199     3.6750   131.9666 </r>
       <r>     2.8734     5.8307   132.8617 </r>
       <r>     3.0269     9.2480   134.2814 </r>
       <r>     3.1804     4.8001   135.0183 </r>
       <r>     3.3339     6.1853   135.9678 </r>
       <r>     3.4874     1.3704   136.1782 </r>
       <r>     3.6410     0.0613   136.1876 </r>
       <r>     3.7945     0.8437   136.3171 </r>
       <r>     3.9480     1.2551   136.5098 </r>
       <r>     4.1015     5.4215   137.3420 </r>
       <r>     4.2550     0.3198   137.3911 </r>
       <r>     4.4085     1.7848   137.6651 </r>
       <r>     4.5620     2.1102   137.9890 </r>
       <r>     4.7155     2.9832   138.4470 </r>
       <r>     4.8691     5.4067   139.2770 </r>
       <r>     5.0226     1.8326   139.5583 </r>
       <r>     5.1761     1.4151   139.7756 </r>
       <r>     5.3296     3.5877   140.3263 </r>
       <r>     5.4831     4.3769   140.9982 </r>
       <r>     5.6366     4.2977   141.6580 </r>
       <r>     5.7901     3.3872   142.1780 </r>
       <r>     5.9436     2.9270   142.6273 </r>
       <r>     6.0972     4.2878   143.2855 </r>
       <r>     6.2507     0.5684   143.3728 </r>
       <r>     6.4042     1.2359   143.5625 </r>
       <r>     6.5577     1.2493   143.7543 </r>
       <r>     6.7112     1.7754   144.0268 </r>
       <r>     6.8647     0.6422   144.1254 </r>
       <r>     7.0182     2.4553   144.5023 </r>
       <r>     7.1717     3.2258   144.9975 </r>
       <r>     7.3253     1.6032   145.2436 </r>
       <r>     7.4788     5.4042   146.0732 </r>
       <r>     7.6323     6.7077   147.1030 </r>
       <r>     7.7858     8.5044   148.4085 </r>
       <r>     7.9393     9.1249   149.8093 </r>
       <r>     8.0928     8.6320   151.1344 </r>
       <r>     8.2463     8.5502   152.4470 </r>
       <r>     8.3998    11.7775   154.2549 </r>
       <r>     8.5534     5.2836   155.0661 </r>
       <r>     8.7069    11.6772   156.8586 </r>
       <r>     8.8604     8.7480   158.2016 </r>
       <r>     9.0139     8.4495   159.4987 </r>
       <r>     9.1674    10.5548   161.1190 </r>
       <r>     9.3209    10.9841   162.8052 </r>
       <r>     9.4744     6.6611   163.8277 </r>
       <r>     9.6279    12.3370   165.7216 </r>
       <r>     9.7815    12.5314   167.6453 </r>
       <r>     9.9350    14.5951   169.8859 </r>
       <r>    10.0885    13.0216   171.8848 </r>
       <r>    10.2420    18.2430   174.6854 </r>
       <r>    10.3955     7.0035   175.7605 </r>
       <r>    10.5490     1.5588   175.9998 </r>
       <r>    10.7025     0.0014   176.0000 </r>
       <r>    10.8560     0.0000   176.0000 </r>
       <r>    11.0096     0.0000   176.0000 </r>
       <r>    11.1631     0.0000   176.0000 </r>
       <r>    11.3166     0.0000   176.0000 </r>
       <r>    11.4701     0.0000   176.0000 </r>
       <r>    11.6236     0.0000   176.0000 </r>
       <r>    11.7771     0.0000   176.0000 </r>
       <r>    11.9306     0.0000   176.0000 </r>
       <r>    12.0841     0.0000   176.0000 </r>
       <r>    12.2376     0.0000   176.0000 </r>
       <r>    12.3912     0.0000   176.0000 </r>
       <r>    12.5447     0.0000   176.0000 </r>
      </set>
     </set>
    </array>
   </total>
  </dos>
 </calculation>
 <structure name="finalpos" >
  <crystal>
   <varray name="basis" >
    <v>       9.79795897       0.00000000       0.00000000 </v>
    <v>       0.00000000       5.65685425       0.00000000 </v>
    <v>      -3.26598632       0.00000000       9.23760431 </v>
   </varray>
   <i name="volume">    512.00000000 </i>
   <varray name="rec_basis" >
    <v>       0.10206207       0.00000000       0.03608439 </v>
    <v>       0.00000000       0.17677670       0.00000000 </v>
    <v>       0.00000000       0.00000000       0.10825318 </v>
   </varray>
  </crystal>
  <varray name="positions" >
   <v>       0.25000000       0.75000000       0.00000000 </v>
   <v>       0.50000000       0.75000000       0.75000000 </v>
   <v>       0.25000000       0.25000000       0.50000000 </v>
   <v>       0.00000000       0.75000000       0.25000000 </v>
   <v>       0.75000000       0.25000000       0.00000000 </v>
   <v>       0.00000000       0.25000000       0.75000000 </v>
   <v>       0.75000000       0.75000000       0.50000000 </v>
   <v>       0.50000000       0.25000000       0.25000000 </v>
   <v>       0.12500000       0.25000000       0.12500000 </v>
   <v>       0.37500000       0.25000000       0.87500000 </v>
   <v>       0.12500000       0.75000000       0.62500000 </v>
   <v>       0.37500000       0.75000000       0.37500000 </v>
   <v>       0.62500000       0.75000000       0.12500000 </v>
   <v>       0.87500000       0.75000000       0.87500000 </v>
   <v>       0.62500000       0.25000000       0.62500000 </v>
   <v>       0.87500000       0.25000000       0.37500000 </v>
   <v>       0.25000000       0.25000000       0.00000000 </v>
   <v>       0.25000000       0.75000000       0.50000000 </v>
   <v>       0.25000000       0.00000000       0.75000000 </v>
   <v>       0.50000000       0.00000000       0.50000000 </v>
   <v>       0.25000000       0.50000000       0.25000000 </v>
   <v>       0.00000000       0.50000000       0.00000000 </v>
   <v>       0.25000000       0.50000000       0.75000000 </v>
   <v>       0.25000000       0.00000000       0.25000000 </v>
   <v>       0.75000000       0.75000000       0.00000000 </v>
   <v>       0.75000000       0.25000000       0.50000000 </v>
   <v>       0.75000000       0.50000000       0.75000000 </v>
   <v>       0.00000000       0.50000000       0.50000000 </v>
   <v>       0.75000000       0.00000000       0.25000000 </v>
   <v>       0.50000000       0.00000000       0.00000000 </v>
   <v>       0.75000000       0.00000000       0.75000000 </v>
   <v>       0.75000000       0.50000000       0.25000000 </v>
  </varray>
 </structure>
</modeling>
