<?xml version="1.0" encoding="ISO-8859-1"?>
<modeling>
 <generator>
  <i name="program" type="string">vasp </i>
  <i name="version" type="string">5.3.5  </i>
  <i name="subversion" type="string">31Mar14 (build Jun 20 2014 13:15:13) complex                          parallel </i>
  <i name="platform" type="string">LinuxIFC </i>
  <i name="date" type="string">2025 12 16 </i>
  <i name="time" type="string">17:58:00 </i>
 </generator>
 <incar>
  <i type="string" name="PREC">accurate</i>
  <i type="int" name="IALGO">    68</i>
  <i type="logical" name="ADDGRID"> T  </i>
  <i type="int" name="NELM">   100</i>
  <i type="int" name="NELMIN">     4</i>
  <i type="int" name="IBRION">     2</i>
  <i name="EDIFF">      0.00000100</i>
  <i name="EDIFFG">     -0.02000000</i>
  <i type="int" name="NSW">    30</i>
  <i type="int" name="ISIF">     3</i>
  <i name="ENCUT">    600.00000000</i>
  <i type="logical" name="LREAL"> F  </i>
  <i type="int" name="ISMEAR">     0</i>
  <i name="SIGMA">      0.10000000</i>
  <i type="logical" name="LWAVE"> F  </i>
  <i type="logical" name="LCHARG"> F  </i>
  <i type="int" name="NELM">   100</i>
 </incar>
 <kpoints>
  <generation param="Auto">
   <i name="subdivisionlength">     20.00000000 </i>
   <v type="int" name="divisions">       4        6        2 </v>
   <v name="usershift">      0.00000000       0.00000000       0.00000000 </v>
   <v name="genvec1">      0.25000000       0.00000000       0.00000000 </v>
   <v name="genvec2">      0.00000000       0.16666667       0.00000000 </v>
   <v name="genvec3">      0.00000000       0.00000000       0.50000000 </v>
   <v name="shift">      0.00000000       0.00000000       0.00000000 </v>
  </generation>
  <varray name="kpointlist" >
   <v>       0.00000000       0.00000000       0.00000000 </v>
   <v>       0.25000000       0.00000000       0.00000000 </v>
   <v>       0.50000000       0.00000000       0.00000000 </v>
   <v>       0.00000000       0.16666667       0.00000000 </v>
   <v>       0.25000000       0.16666667       0.00000000 </v>
   <v>       0.50000000       0.16666667       0.00000000 </v>
   <v>       0.00000000       0.33333333       0.00000000 </v>
   <v>       0.25000000       0.33333333       0.00000000 </v>
   <v>       0.50000000       0.33333333       0.00000000 </v>
   <v>       0.00000000       0.50000000       0.00000000 </v>
   <v>       0.25000000       0.50000000       0.00000000 </v>
   <v>       0.50000000       0.50000000       0.00000000 </v>
   <v>       0.00000000       0.00000000       0.50000000 </v>
   <v>       0.25000000       0.00000000       0.50000000 </v>
   <v>       0.50000000       0.00000000       0.50000000 </v>
   <v>       0.00000000       0.16666667       0.50000000 </v>
   <v>       0.25000000       0.16666667       0.50000000 </v>
   <v>       0.50000000       0.16666667       0.50000000 </v>
   <v>       0.00000000       0.33333333       0.50000000 </v>
   <v>       0.25000000       0.33333333       0.50000000 </v>
   <v>       0.50000000       0.33333333       0.50000000 </v>
   <v>       0.00000000       0.50000000       0.50000000 </v>
   <v>       0.25000000       0.50000000       0.50000000 </v>
   <v>       0.50000000       0.50000000       0.50000000 </v>
  </varray>
  <varray name="weights" >
   <v>       0.02083333 </v>
   <v>       0.04166667 </v>
   <v>       0.02083333 </v>
   <v>       0.04166667 </v>
   <v>       0.08333333 </v>
   <v>       0.04166667 </v>
   <v>       0.04166667 </v>
   <v>       0.08333333 </v>
   <v>       0.04166667 </v>
   <v>       0.02083333 </v>
   <v>       0.04166667 </v>
   <v>       0.02083333 </v>
   <v>       0.02083333 </v>
   <v>       0.04166667 </v>
   <v>       0.02083333 </v>
   <v>       0.04166667 </v>
   <v>       0.08333333 </v>
   <v>       0.04166667 </v>
   <v>       0.04166667 </v>
   <v>       0.08333333 </v>
   <v>       0.04166667 </v>
   <v>       0.02083333 </v>
   <v>       0.04166667 </v>
   <v>       0.02083333 </v>
  </varray>
 </kpoints>
 <parameters>
  <separator name="general" >
   <i type="string" name="SYSTEM">unknown system</i>
   <i type="logical" name="LCOMPAT"> F  </i>
  </separator>
  <separator name="electronic" >
   <i type="string" name="PREC">accura</i>
   <i name="ENMAX">    600.00000000</i>
   <i name="ENAUG">    644.87300000</i>
   <i name="EDIFF">      0.00000100</i>
   <i type="int" name="IALGO">    68</i>
   <i type="int" name="IWAVPR">    11</i>
   <i type="int" name="NBANDS">    44</i>
   <i name="NELECT">     64.00000000</i>
   <i type="int" name="TURBO">     0</i>
   <i type="int" name="IRESTART">     0</i>
   <i type="int" name="NREBOOT">     0</i>
   <i type="int" name="NMIN">     0</i>
   <i name="EREF">      0.00000000</i>
   <separator name="electronic smearing" >
    <i type="int" name="ISMEAR">     0</i>
    <i name="SIGMA">      0.10000000</i>
    <i name="KSPACING">      0.50000000</i>
    <i type="logical" name="KGAMMA"> T  </i>
   </separator>
   <separator name="electronic projectors" >
    <i type="logical" name="LREAL"> F  </i>
    <v name="ROPT">      0.00000000      0.00000000      0.00000000      0.00000000</v>
    <i type="int" name="LMAXPAW">  -100</i>
    <i type="int" name="LMAXMIX">     2</i>
    <i type="logical" name="NLSPLINE"> F  </i>
   </separator>
   <separator name="electronic startup" >
    <i type="int" name="ISTART">     0</i>
    <i type="int" name="ICHARG">     2</i>
    <i type="int" name="INIWAV">     1</i>
   </separator>
   <separator name="electronic spin" >
    <i type="int" name="ISPIN">     1</i>
    <i type="logical" name="LNONCOLLINEAR"> F  </i>
    <v name="MAGMOM">      1.00000000      1.00000000      1.00000000      1.00000000      1.00000000      1.00000000      1.00000000      1.00000000      1.00000000      1.00000000      1.00000000      1.00000000      1.00000000      1.00000000      1.00000000      1.00000000</v>
    <i name="NUPDOWN">     -1.00000000</i>
    <i type="logical" name="LSORBIT"> F  </i>
    <v name="SAXIS">      0.00000000      0.00000000      1.00000000</v>
    <i type="logical" name="LSPIRAL"> F  </i>
    <v name="QSPIRAL">      0.00000000      0.00000000      0.00000000</v>
    <i type="logical" name="LZEROZ"> F  </i>
   </separator>
   <separator name="electronic exchange-correlation" >
    <i type="logical" name="LASPH"> F  </i>
    <i type="logical" name="LMETAGGA"> F  </i>
   </separator>
   <separator name="electronic convergence" >
    <i type="int" name="NELM">   100</i>
    <i type="int" name="NELMDL">     0</i>
    <i type="int" name="NELMIN">     4</i>
    <i name="ENINI">    600.00000000</i>
    <separator name="electronic convergence detail" >
     <i type="logical" name="LDIAG"> T  </i>
     <i type="logical" name="LSUBROT"> F  </i>
     <i name="WEIMIN">      0.00100000</i>
     <i name="EBREAK">      0.00000001</i>
     <i name="DEPER">      0.30000000</i>
     <i type="int" name="NRMM">     4</i>
     <i name="TIME">      0.40000000</i>
    </separator>
   </separator>
   <separator name="electronic mixer" >
    <i name="AMIX">      0.40000000</i>
    <i name="BMIX">      1.00000000</i>
    <i name="AMIN">      0.10000000</i>
    <i name="AMIX_MAG">      1.60000000</i>
    <i name="BMIX_MAG">      1.00000000</i>
    <separator name="electronic mixer details" >
     <i type="int" name="IMIX">     4</i>
     <i type="int" name="MAXMIX">   -45</i>
     <i name="WC">    100.00000000</i>
     <i type="int" name="INIMIX">     1</i>
     <i type="int" name="MIXPRE">     1</i>
     <i type="int" name="MREMOVE">     5</i>
    </separator>
   </separator>
   <separator name="electronic dipolcorrection" >
    <i type="logical" name="LDIPOL"> F  </i>
    <i type="logical" name="LMONO"> F  </i>
    <i type="int" name="IDIPOL">     0</i>
    <i name="EPSILON">      1.00000000</i>
    <v name="DIPOL">   -100.00000000   -100.00000000   -100.00000000</v>
    <i name="EFIELD">      0.00000000</i>
   </separator>
  </separator>
  <separator name="grids" >
   <i type="int" name="NGX">    40</i>
   <i type="int" name="NGY">    28</i>
   <i type="int" name="NGZ">    90</i>
   <i type="int" name="NGXF">    80</i>
   <i type="int" name="NGYF">    56</i>
   <i type="int" name="NGZF">   180</i>
   <i type="logical" name="ADDGRID"> T  </i>
  </separator>
  <separator name="ionic" >
   <i type="int" name="NSW">    30</i>
   <i type="int" name="IBRION">     2</i>
   <i type="int" name="ISIF">     3</i>
   <i name="PSTRESS">      0.00000000</i>
   <i name="EDIFFG">     -0.02000000</i>
   <i type="int" name="NFREE">     1</i>
   <i name="POTIM">      0.50000000</i>
   <i name="SMASS">     -3.00000000</i>
   <i name="SCALEE">      1.00000000</i>
  </separator>
  <separator name="ionic md" >
   <i name="TEBEG">      0.00010000</i>
   <i name="TEEND">      0.00010000</i>
   <i type="int" name="NBLOCK">     1</i>
   <i type="int" name="KBLOCK">    30</i>
   <i type="int" name="NPACO">   256</i>
   <i name="APACO">     16.00000000</i>
  </separator>
  <separator name="symmetry" >
   <i type="int" name="ISYM">     2</i>
   <i name="SYMPREC">      0.00001000</i>
  </separator>
  <separator name="dos" >
   <i type="logical" name="LORBIT"> F  </i>
   <v name="RWIGS">     -1.00000000     -1.00000000     -1.00000000     -1.00000000</v>
   <i type="int" name="NEDOS">   301</i>
   <i name="EMIN">     10.00000000</i>
   <i name="EMAX">    -10.00000000</i>
   <i name="EFERMI">      0.00000000</i>
  </separator>
  <separator name="writing" >
   <i type="int" name="NWRITE">     2</i>
   <i type="logical" name="LWAVE"> F  </i>
   <i type="logical" name="LCHARG"> F  </i>
   <i type="logical" name="LPARD"> F  </i>
   <i type="logical" name="LVTOT"> F  </i>
   <i type="logical" name="LVHAR"> F  </i>
   <i type="logical" name="LELF"> F  </i>
   <i type="logical" name="LOPTICS"> F  </i>
   <v name="STM">      0.00000000      0.00000000      0.00000000      0.00000000      0.00000000      0.00000000      0.00000000</v>
  </separator>
  <separator name="performance" >
   <i type="int" name="NPAR">     4</i>
   <i type="int" name="NSIM">     4</i>
   <i type="int" name="NBLK">    -1</i>
   <i type="logical" name="LPLANE"> T  </i>
   <i type="logical" name="LSCALAPACK"> T  </i>
   <i type="logical" name="LSCAAWARE"> F  </i>
   <i type="logical" name="LSCALU"> F  </i>
   <i type="logical" name="LASYNC"> F  </i>
   <i type="logical" name="LORBITALREAL"> F  </i>
  </separator>
  <separator name="miscellaneous" >
   <i type="int" name="IDIOT">     3</i>
   <i type="logical" name="LMUSIC"> F  </i>
   <v name="POMASS">     28.08500000     26.98100000     12.01100000     14.00100000</v>
   <v name="DARWINR">      0.00000000      0.00000000      0.00000000      0.00000000</v>
   <v name="DARWINV">      1.00000000      1.00000000      1.00000000      1.00000000</v>
   <i type="logical" name="LCORR"> T  </i>
  </separator>
  <i type="logical" name="GGA_COMPAT"> T  </i>
  <i type="logical" name="LBERRY"> F  </i>
  <i type="int" name="ICORELEVEL">     0</i>
  <i type="logical" name="LDAU"> F  </i>
  <i type="int" name="I_CONSTRAINED_M">     0</i>
  <separator name="electronic exchange-correlation" >
   <i type="string" name="GGA">--</i>
   <i type="int" name="VOSKOWN">     0</i>
   <i type="logical" name="LHFCALC"> F  </i>
   <i type="string" name="PRECFOCK"></i>
   <i type="logical" name="LSYMGRAD"> F  </i>
   <i type="logical" name="LHFONE"> F  </i>
   <i type="logical" name="LRHFCALC"> F  </i>
   <i type="logical" name="LTHOMAS"> F  </i>
   <i type="logical" name="LMODELHF"> F  </i>
   <i name="ENCUT4O">     -1.00000000</i>
   <i type="int" name="EXXOEP">     0</i>
   <i type="int" name="FOURORBIT">     0</i>
   <i name="AEXX">      0.00000000</i>
   <i name="HFALPHA">      0.00000000</i>
   <i name="MCALPHA">      0.00000000</i>
   <i name="ALDAX">      1.00000000</i>
   <i name="AGGAX">      1.00000000</i>
   <i name="ALDAC">      1.00000000</i>
   <i name="AGGAC">      1.00000000</i>
   <i type="int" name="NKREDX">     1</i>
   <i type="int" name="NKREDY">     1</i>
   <i type="int" name="NKREDZ">     1</i>
   <i type="logical" name="SHIFTRED"> F  </i>
   <i type="logical" name="ODDONLY"> F  </i>
   <i type="logical" name="EVENONLY"> F  </i>
   <i type="int" name="LMAXFOCK">     0</i>
   <i type="int" name="NMAXFOCKAE">     0</i>
   <i type="logical" name="LFOCKAEDFT"> F  </i>
   <i name="HFSCREEN">      0.00000000</i>
   <i name="HFSCREENC">      0.00000000</i>
   <i type="int" name="NBANDSGWLOW">     0</i>
  </separator>
  <separator name="vdW DFT" >
   <i type="logical" name="LUSE_VDW"> F  </i>
   <i name="Zab_VDW">     -0.84910000</i>
   <i name="PARAM1">      0.12340000</i>
   <i name="PARAM2">      1.00000000</i>
   <i name="PARAM3">      0.00000000</i>
  </separator>
  <separator name="model GW" >
   <i type="int" name="MODEL_GW">     0</i>
   <i name="MODEL_EPS0">      6.36455148</i>
   <i name="MODEL_ALPHA">      1.00000000</i>
  </separator>
  <separator name="linear response parameters" >
   <i type="logical" name="LEPSILON"> F  </i>
   <i type="logical" name="LRPA"> F  </i>
   <i type="logical" name="LNABLA"> F  </i>
   <i type="logical" name="LVEL"> F  </i>
   <i type="int" name="KINTER">     0</i>
   <i name="CSHIFT">      0.10000000</i>
   <i name="OMEGAMAX">     -1.00000000</i>
   <i name="DEG_THRESHOLD">      0.00200000</i>
  </separator>
  <separator name="orbital magnetization" >
   <i type="logical" name="NUCIND"> F  </i>
   <v name="MAGPOS">      0.00000000      0.00000000      0.00000000</v>
   <i type="logical" name="LNICSALL"> T  </i>
   <i type="logical" name="ORBITALMAG"> F  </i>
   <i type="logical" name="LMAGBLOCH"> F  </i>
   <i type="logical" name="LCHIMAG"> F  </i>
   <i type="logical" name="LGAUGE"> T  </i>
   <i type="int" name="MAGATOM">     0</i>
   <v name="MAGDIPOL">      0.00000000      0.00000000      0.00000000</v>
   <v name="AVECCONST">      0.00000000      0.00000000      0.00000000</v>
  </separator>
  <separator name="response functions" >
   <i type="logical" name="LADDER"> F  </i>
   <i type="logical" name="LFXC"> F  </i>
   <i type="logical" name="LHARTREE"> T  </i>
   <i type="int" name="IBSE">     0</i>
   <i type="logical" name="LTCTE"> F  </i>
   <i type="logical" name="LTETE"> F  </i>
   <i type="logical" name="LTRIPLET"> F  </i>
   <i type="logical" name="LFXCEPS"> F  </i>
   <i type="logical" name="LFXHEG"> F  </i>
   <i type="logical" name="L2ORDER"> F  </i>
   <i type="logical" name="LUSEW"> F  </i>
   <i name="ENCUTGW">     -2.00000000</i>
   <i name="ENCUTGWSOFT">     -2.00000000</i>
   <i name="ENCUTLF">     -1.00000000</i>
   <i type="int" name="LMAXMP2">    -1</i>
   <i name="SCISSOR">      0.00000000</i>
   <i type="int" name="NOMEGA">     0</i>
   <i type="int" name="NOMEGAR">     0</i>
   <i type="int" name="NBANDSGW">    -1</i>
   <i type="int" name="NBANDSO">    -1</i>
   <i type="int" name="NBANDSV">    -1</i>
   <i type="int" name="NELM">   100</i>
   <i type="int" name="DIM">     3</i>
   <i type="int" name="ANTIRES">     0</i>
   <i name="OMEGAMAX">    -30.00000000</i>
   <i name="OMEGAMIN">    -30.00000000</i>
   <i name="OMEGATL">   -200.00000000</i>
   <i type="int" name="OMEGAGRID">     0</i>
   <i name="CSHIFT">     -0.10000000</i>
   <i type="logical" name="SELFENERGY"> F  </i>
   <i type="logical" name="LSPECTRAL"> F  </i>
   <i type="logical" name="ODDONLYGW"> F  </i>
   <i type="logical" name="EVENONLYGW"> F  </i>
   <i type="int" name="NKREDLFX">     1</i>
   <i type="int" name="NKREDLFY">     1</i>
   <i type="int" name="NKREDLFZ">     1</i>
   <i type="int" name="MAXMEM">  1800</i>
   <i type="int" name="TELESCOPE">     0</i>
   <i type="int" name="TAUPAR">     1</i>
  </separator>
  <separator name="External order field" >
   <i name="OFIELD_KAPPA">      0.00000000</i>
   <v name="OFIELD_K">      0.00000000      0.00000000      0.00000000</v>
   <i name="OFIELD_Q6_NEAR">      0.00000000</i>
   <i name="OFIELD_Q6_FAR">      0.00000000</i>
   <i name="OFIELD_A">      0.00000000</i>
  </separator>
 </parameters>
 <atominfo>
  <atoms>      16 </atoms>
  <types>       4 </types>
  <array name="atoms" >
   <dimension dim="1">ion</dimension>
   <field type="string">element</field>
   <field type="int">atomtype</field>
   <set>
    <rc><c>Si</c><c>   1</c></rc>
    <rc><c>Si</c><c>   1</c></rc>
    <rc><c>Si</c><c>   1</c></rc>
    <rc><c>Si</c><c>   1</c></rc>
    <rc><c>Al</c><c>   2</c></rc>
    <rc><c>Al</c><c>   2</c></rc>
    <rc><c>Al</c><c>   2</c></rc>
    <rc><c>Al</c><c>   2</c></rc>
    <rc><c>C </c><c>   3</c></rc>
    <rc><c>C </c><c>   3</c></rc>
    <rc><c>C </c><c>   3</c></rc>
    <rc><c>C </c><c>   3</c></rc>
    <rc><c>N </c><c>   4</c></rc>
    <rc><c>N </c><c>   4</c></rc>
    <rc><c>N </c><c>   4</c></rc>
    <rc><c>N </c><c>   4</c></rc>
   </set>
  </array>
  <array name="atomtypes" >
   <dimension dim="1">type</dimension>
   <field type="int">atomspertype</field>
   <field type="string">element</field>
   <field>mass</field>
   <field>valence</field>
   <field type="string">pseudopotential</field>
   <set>
    <rc><c>   4</c><c>Si</c><c>     28.08500000</c><c>      4.00000000</c><c>  PAW_PBE Si 05Jan2001                  </c></rc>
    <rc><c>   4</c><c>Al</c><c>     26.98100000</c><c>      3.00000000</c><c>  PAW_PBE Al 04Jan2001                  </c></rc>
    <rc><c>   4</c><c>C </c><c>     12.01100000</c><c>      4.00000000</c><c>  PAW_PBE C 08Apr2002                   </c></rc>
    <rc><c>   4</c><c>N </c><c>     14.00100000</c><c>      5.00000000</c><c>  PAW_PBE N_s 07Sep2000                 </c></rc>
   </set>
  </array>
 </atominfo>
 <structure name="initialpos" >
  <crystal>
   <varray name="basis" >
    <v>       5.05686831       0.00000000      -0.01161523 </v>
    <v>       0.00000000       3.10700673       0.00000000 </v>
    <v>      -0.02477499       0.00000000      10.80226896 </v>
   </varray>
   <i name="volume">    169.72137287 </i>
   <varray name="rec_basis" >
    <v>       0.19775189       0.00000000       0.00045354 </v>
    <v>       0.00000000       0.32185318       0.00000000 </v>
    <v>       0.00021263       0.00000000       0.09257363 </v>
   </varray>
  </crystal>
  <varray name="positions" >
   <v>       0.99579406       0.00000000       0.32826958 </v>
   <v>       0.00230572       0.50000000       0.08433403 </v>
   <v>       0.49832127       0.00000000       0.66806792 </v>
   <v>       0.51632877       0.00000000       0.16727676 </v>
   <v>       0.98955587       0.00000000       0.83416560 </v>
   <v>       0.00392844       0.50000000       0.58385344 </v>
   <v>       0.49455777       0.50000000       0.91652423 </v>
   <v>       0.50919311       0.50000000       0.41584815 </v>
   <v>       0.61129445       0.50000000       0.59480834 </v>
   <v>       0.63718004       0.00000000       0.32794507 </v>
   <v>       0.63401623       0.50000000       0.08440055 </v>
   <v>       0.13618960       0.00000000       0.16470939 </v>
   <v>       0.60759024       0.00000000       0.82766655 </v>
   <v>       0.11003946       0.50000000       0.92162083 </v>
   <v>       0.13706771       0.00000000       0.67071114 </v>
   <v>       0.11663727       0.50000000       0.40979844 </v>
  </varray>
 </structure>
 <calculation>
  <scstep>
   <time name="dav">    0.53    0.53</time>
   <time name="total">    0.58    0.59</time>
   <energy>
    <i name="alphaZ">     64.08500963 </i>
    <i name="ewald">  -2285.21648589 </i>
    <i name="hartreedc">   -347.07878578 </i>
    <i name="XCdc">     -5.43383818 </i>
    <i name="pawpsdc">   1871.13760811 </i>
    <i name="pawaedc">  -1679.96522576 </i>
    <i name="eentropy">     -0.01686130 </i>
    <i name="bandstr">    443.41937303 </i>
    <i name="atom">   2273.20978491 </i>
    <i name="e_fr_energy">    334.14057878 </i>
    <i name="e_wo_entrp">    334.15744008 </i>
    <i name="e_0_energy">    334.14900943 </i>
   </energy>
  </scstep>
  <scstep>
   <time name="dav">    0.60    0.60</time>
   <time name="total">    0.60    0.61</time>
   <energy>
    <i name="e_fr_energy">   -103.00538714 </i>
    <i name="e_wo_entrp">   -103.00538714 </i>
    <i name="e_0_energy">   -103.00538714 </i>
   </energy>
  </scstep>
  <scstep>
   <time name="dav">    0.65    0.65</time>
   <time name="total">    0.65    0.66</time>
   <energy>
    <i name="e_fr_energy">   -134.74306667 </i>
    <i name="e_wo_entrp">   -134.74306667 </i>
    <i name="e_0_energy">   -134.74306667 </i>
   </energy>
  </scstep>
  <scstep>
   <time name="dav">    0.62    0.62</time>
   <time name="total">    0.62    0.63</time>
   <energy>
    <i name="e_fr_energy">   -135.54246419 </i>
    <i name="e_wo_entrp">   -135.54246419 </i>
    <i name="e_0_energy">   -135.54246419 </i>
   </energy>
  </scstep>
  <scstep>
   <time name="dav">    0.61    0.61</time>
   <time name="total">    0.68    0.69</time>
   <energy>
    <i name="e_fr_energy">   -135.56868891 </i>
    <i name="e_wo_entrp">   -135.56868891 </i>
    <i name="e_0_energy">   -135.56868891 </i>
   </energy>
  </scstep>
  <scstep>
   <time name="diag">    0.13    0.13</time>
   <time name="diis">    0.32    0.32</time>
   <time name="orth">    0.02    0.02</time>
   <time name="total">    0.58    0.59</time>
   <energy>
    <i name="e_fr_energy">   -118.35871337 </i>
    <i name="e_wo_entrp">   -118.35871337 </i>
    <i name="e_0_energy">   -118.35871337 </i>
   </energy>
  </scstep>
  <scstep>
   <time name="diag">    0.13    0.13</time>
   <time name="diis">    0.35    0.35</time>
   <time name="orth">    0.02    0.02</time>
   <time name="total">    0.61    0.62</time>
   <energy>
    <i name="e_fr_energy">   -118.27860342 </i>
    <i name="e_wo_entrp">   -118.27860342 </i>
    <i name="e_0_energy">   -118.27860342 </i>
   </energy>
  </scstep>
  <scstep>
   <time name="diag">    0.13    0.13</time>
   <time name="diis">    0.32    0.32</time>
   <time name="orth">    0.02    0.02</time>
   <time name="total">    0.58    0.59</time>
   <energy>
    <i name="e_fr_energy">   -119.09542177 </i>
    <i name="e_wo_entrp">   -119.09542177 </i>
    <i name="e_0_energy">   -119.09542177 </i>
   </energy>
  </scstep>
  <scstep>
   <time name="diag">    0.13    0.13</time>
   <time name="diis">    0.32    0.32</time>
   <time name="orth">    0.02    0.02</time>
   <time name="total">    0.57    0.59</time>
   <energy>
    <i name="e_fr_energy">   -118.17042007 </i>
    <i name="e_wo_entrp">   -118.17042007 </i>
    <i name="e_0_energy">   -118.17042007 </i>
   </energy>
  </scstep>
  <scstep>
   <time name="diag">    0.14    0.14</time>
   <time name="diis">    0.35    0.35</time>
   <time name="orth">    0.02    0.02</time>
   <time name="total">    0.62    0.64</time>
   <energy>
    <i name="e_fr_energy">   -118.17251812 </i>
    <i name="e_wo_entrp">   -118.17251812 </i>
    <i name="e_0_energy">   -118.17251812 </i>
   </energy>
  </scstep>
  <scstep>
   <time name="diag">    0.13    0.13</time>
   <time name="diis">    0.33    0.33</time>
   <time name="orth">    0.02    0.02</time>
   <time name="total">    0.59    0.60</time>
   <energy>
    <i name="e_fr_energy">   -118.17509067 </i>
    <i name="e_wo_entrp">   -118.17509067 </i>
    <i name="e_0_energy">   -118.17509067 </i>
   </energy>
  </scstep>
  <scstep>
   <time name="diag">    0.13    0.13</time>
   <time name="diis">    0.32    0.32</time>
   <time name="orth">    0.02    0.02</time>
   <time name="total">    0.57    0.59</time>
   <energy>
    <i name="e_fr_energy">   -118.17501416 </i>
    <i name="e_wo_entrp">   -118.17501416 </i>
    <i name="e_0_energy">   -118.17501416 </i>
   </energy>
  </scstep>
  <scstep>
   <time name="diag">    0.13    0.13</time>
   <time name="diis">    0.32    0.32</time>
   <time name="orth">    0.02    0.02</time>
   <time name="total">    0.58    0.59</time>
   <energy>
    <i name="e_fr_energy">   -118.17510961 </i>
    <i name="e_wo_entrp">   -118.17510961 </i>
    <i name="e_0_energy">   -118.17510961 </i>
   </energy>
  </scstep>
  <scstep>
   <time name="diag">    0.13    0.13</time>
   <time name="diis">    0.32    0.32</time>
   <time name="orth">    0.02    0.02</time>
   <time name="total">    0.57    0.59</time>
   <energy>
    <i name="e_fr_energy">   -118.17506171 </i>
    <i name="e_wo_entrp">   -118.17506171 </i>
    <i name="e_0_energy">   -118.17506171 </i>
   </energy>
  </scstep>
  <scstep>
   <time name="diag">    0.13    0.13</time>
   <time name="diis">    0.32    0.32</time>
   <time name="orth">    0.02    0.02</time>
   <time name="total">    0.57    0.59</time>
   <energy>
    <i name="e_fr_energy">   -118.17506046 </i>
    <i name="e_wo_entrp">   -118.17506046 </i>
    <i name="e_0_energy">   -118.17506046 </i>
   </energy>
  </scstep>
  <scstep>
   <time name="diag">    0.13    0.13</time>
   <time name="diis">    0.22    0.22</time>
   <time name="orth">    0.02    0.02</time>
   <time name="total">    0.41    0.42</time>
   <energy>
    <i name="alphaZ">     64.08500963 </i>
    <i name="ewald">  -2285.21648589 </i>
    <i name="hartreedc">   -458.97270396 </i>
    <i name="XCdc">      4.30718749 </i>
    <i name="pawpsdc">  10164.37184488 </i>
    <i name="pawaedc">  -9977.49098283 </i>
    <i name="eentropy">      0.00000000 </i>
    <i name="bandstr">     97.53128527 </i>
    <i name="atom">   2273.20978491 </i>
    <i name="e_fr_energy">   -118.17506050 </i>
    <i name="e_wo_entrp">   -118.17506050 </i>
    <i name="e_0_energy">   -118.17506050 </i>
   </energy>
  </scstep>
  <structure>
   <crystal>
    <varray name="basis" >
     <v>       5.05686831       0.00000000      -0.01161523 </v>
     <v>       0.00000000       3.10700673       0.00000000 </v>
     <v>      -0.02477499       0.00000000      10.80226896 </v>
    </varray>
    <i name="volume">    169.72137287 </i>
    <varray name="rec_basis" >
     <v>       0.19775189       0.00000000       0.00045354 </v>
     <v>       0.00000000       0.32185318       0.00000000 </v>
     <v>       0.00021263       0.00000000       0.09257363 </v>
    </varray>
   </crystal>
   <varray name="positions" >
    <v>       0.99579406       0.00000000       0.32826958 </v>
    <v>       0.00230572       0.50000000       0.08433403 </v>
    <v>       0.49832127       0.00000000       0.66806792 </v>
    <v>       0.51632877       0.00000000       0.16727676 </v>
    <v>       0.98955587       0.00000000       0.83416560 </v>
    <v>       0.00392844       0.50000000       0.58385344 </v>
    <v>       0.49455777       0.50000000       0.91652423 </v>
    <v>       0.50919311       0.50000000       0.41584815 </v>
    <v>       0.61129445       0.50000000       0.59480834 </v>
    <v>       0.63718004       0.00000000       0.32794507 </v>
    <v>       0.63401623       0.50000000       0.08440055 </v>
    <v>       0.13618960       0.00000000       0.16470939 </v>
    <v>       0.60759024       0.00000000       0.82766655 </v>
    <v>       0.11003946       0.50000000       0.92162083 </v>
    <v>       0.13706771       0.00000000       0.67071114 </v>
    <v>       0.11663727       0.50000000       0.40979844 </v>
   </varray>
  </structure>
  <varray name="forces" >
   <v>      -0.00089029       0.00000000       0.00434873 </v>
   <v>       0.00212147       0.00000000       0.00943266 </v>
   <v>       0.01498244       0.00000000       0.00071694 </v>
   <v>       0.00227835       0.00000000       0.01378751 </v>
   <v>      -0.00291170       0.00000000      -0.00813639 </v>
   <v>       0.00405548       0.00000000      -0.00836446 </v>
   <v>       0.00030736       0.00000000      -0.01017317 </v>
   <v>      -0.00519368       0.00000000       0.01317664 </v>
   <v>      -0.01473357       0.00000000       0.00144351 </v>
   <v>       0.00127396       0.00000000      -0.00791173 </v>
   <v>      -0.00309755       0.00000000      -0.00179777 </v>
   <v>      -0.00158817       0.00000000       0.00954219 </v>
   <v>      -0.01047863       0.00000000      -0.00435935 </v>
   <v>       0.01336181       0.00000000       0.00358407 </v>
   <v>      -0.01106268       0.00000000      -0.00232118 </v>
   <v>       0.01157542       0.00000000      -0.01296820 </v>
  </varray>
  <varray name="stress" >
   <v>       0.16977888       0.00000000      -0.05524516 </v>
   <v>       0.00000000       0.01673925       0.00000000 </v>
   <v>      -0.05524537       0.00000000      -0.35494232 </v>
  </varray>
  <energy>
   <i name="e_fr_energy">   -118.17506050 </i>
   <i name="e_wo_entrp">   -118.17506050 </i>
   <i name="e_0_energy">      0.00000000 </i>
  </energy>
  <time name="totalsc">   10.59   10.84</time>
  <eigenvalues>
   <array>
    <dimension dim="1">band</dimension>
    <dimension dim="2">kpoint</dimension>
    <dimension dim="3">spin</dimension>
    <field>eigene</field>
    <field>occ</field>
    <set>
     <set comment="spin 1">
      <set comment="kpoint 1">
       <r>   -8.9740    1.0000 </r>
       <r>   -8.2729    1.0000 </r>
       <r>   -7.8105    1.0000 </r>
       <r>   -7.0857    1.0000 </r>
       <r>   -5.8278    1.0000 </r>
       <r>   -3.7938    1.0000 </r>
       <r>   -3.0796    1.0000 </r>
       <r>   -2.8857    1.0000 </r>
       <r>   -0.3338    1.0000 </r>
       <r>    0.2781    1.0000 </r>
       <r>    0.5209    1.0000 </r>
       <r>    1.1774    1.0000 </r>
       <r>    1.7372    1.0000 </r>
       <r>    2.4418    1.0000 </r>
       <r>    2.7315    1.0000 </r>
       <r>    3.0043    1.0000 </r>
       <r>    3.9208    1.0000 </r>
       <r>    4.2614    1.0000 </r>
       <r>    4.2899    1.0000 </r>
       <r>    4.5536    1.0000 </r>
       <r>    4.9092    1.0000 </r>
       <r>    5.0504    1.0000 </r>
       <r>    5.4879    1.0000 </r>
       <r>    5.6716    1.0000 </r>
       <r>    5.8331    1.0000 </r>
       <r>    5.9562    1.0000 </r>
       <r>    6.7467    1.0000 </r>
       <r>    6.8249    1.0000 </r>
       <r>    7.4324    1.0000 </r>
       <r>    7.4741    1.0000 </r>
       <r>    7.5904    1.0000 </r>
       <r>    8.4486    1.0000 </r>
       <r>   10.6526    0.0000 </r>
       <r>   11.2092    0.0000 </r>
       <r>   11.9768    0.0000 </r>
       <r>   11.9901    0.0000 </r>
       <r>   12.7567    0.0000 </r>
       <r>   13.1807    0.0000 </r>
       <r>   13.5461    0.0000 </r>
       <r>   13.9065    0.0000 </r>
       <r>   14.3839    0.0000 </r>
       <r>   14.6385    0.0000 </r>
       <r>   15.2068    0.0000 </r>
       <r>   15.2599    0.0000 </r>
      </set>
      <set comment="kpoint 2">
       <r>   -8.7796    1.0000 </r>
       <r>   -8.2003    1.0000 </r>
       <r>   -7.7659    1.0000 </r>
       <r>   -7.3267    1.0000 </r>
       <r>   -5.6615    1.0000 </r>
       <r>   -4.1513    1.0000 </r>
       <r>   -3.9226    1.0000 </r>
       <r>   -2.9995    1.0000 </r>
       <r>    0.0455    1.0000 </r>
       <r>    0.7270    1.0000 </r>
       <r>    1.0534    1.0000 </r>
       <r>    1.3259    1.0000 </r>
       <r>    1.7278    1.0000 </r>
       <r>    2.8097    1.0000 </r>
       <r>    3.0834    1.0000 </r>
       <r>    3.4780    1.0000 </r>
       <r>    3.9051    1.0000 </r>
       <r>    3.9881    1.0000 </r>
       <r>    4.4129    1.0000 </r>
       <r>    4.4730    1.0000 </r>
       <r>    4.9802    1.0000 </r>
       <r>    5.1612    1.0000 </r>
       <r>    5.3569    1.0000 </r>
       <r>    5.6856    1.0000 </r>
       <r>    5.9556    1.0000 </r>
       <r>    6.0015    1.0000 </r>
       <r>    6.4024    1.0000 </r>
       <r>    6.5512    1.0000 </r>
       <r>    6.6696    1.0000 </r>
       <r>    7.0723    1.0000 </r>
       <r>    7.5731    1.0000 </r>
       <r>    8.3614    1.0000 </r>
       <r>   10.5303    0.0000 </r>
       <r>   11.5133    0.0000 </r>
       <r>   11.6563    0.0000 </r>
       <r>   11.8673    0.0000 </r>
       <r>   12.8479    0.0000 </r>
       <r>   13.1001    0.0000 </r>
       <r>   13.2883    0.0000 </r>
       <r>   14.1500    0.0000 </r>
       <r>   14.5042    0.0000 </r>
       <r>   14.8006    0.0000 </r>
       <r>   15.1475    0.0000 </r>
       <r>   15.6283    0.0000 </r>
      </set>
      <set comment="kpoint 3">
       <r>   -8.4334    1.0000 </r>
       <r>   -8.0763    1.0000 </r>
       <r>   -8.0105    1.0000 </r>
       <r>   -7.4696    1.0000 </r>
       <r>   -5.2198    1.0000 </r>
       <r>   -4.8640    1.0000 </r>
       <r>   -4.4341    1.0000 </r>
       <r>   -3.0848    1.0000 </r>
       <r>   -0.0681    1.0000 </r>
       <r>    0.4807    1.0000 </r>
       <r>    1.8533    1.0000 </r>
       <r>    2.3377    1.0000 </r>
       <r>    2.4340    1.0000 </r>
       <r>    2.7975    1.0000 </r>
       <r>    3.3278    1.0000 </r>
       <r>    3.5910    1.0000 </r>
       <r>    4.0534    1.0000 </r>
       <r>    4.0860    1.0000 </r>
       <r>    4.5490    1.0000 </r>
       <r>    4.7010    1.0000 </r>
       <r>    4.8366    1.0000 </r>
       <r>    5.0871    1.0000 </r>
       <r>    5.2839    1.0000 </r>
       <r>    5.3767    1.0000 </r>
       <r>    5.5235    1.0000 </r>
       <r>    5.7264    1.0000 </r>
       <r>    6.1950    1.0000 </r>
       <r>    6.3592    1.0000 </r>
       <r>    6.4324    1.0000 </r>
       <r>    6.5256    1.0000 </r>
       <r>    7.4931    1.0000 </r>
       <r>    8.2771    1.0000 </r>
       <r>   10.4498    0.0000 </r>
       <r>   11.5519    0.0000 </r>
       <r>   11.8900    0.0000 </r>
       <r>   12.3488    0.0000 </r>
       <r>   12.3709    0.0000 </r>
       <r>   13.0360    0.0000 </r>
       <r>   13.2596    0.0000 </r>
       <r>   14.0223    0.0000 </r>
       <r>   14.2030    0.0000 </r>
       <r>   14.4561    0.0000 </r>
       <r>   14.8865    0.0000 </r>
       <r>   15.4324    0.0000 </r>
      </set>
      <set comment="kpoint 4">
       <r>   -8.7324    1.0000 </r>
       <r>   -8.0333    1.0000 </r>
       <r>   -7.6318    1.0000 </r>
       <r>   -6.9601    1.0000 </r>
       <r>   -5.5661    1.0000 </r>
       <r>   -3.5681    1.0000 </r>
       <r>   -2.8285    1.0000 </r>
       <r>   -2.7616    1.0000 </r>
       <r>   -0.0375    1.0000 </r>
       <r>    0.5118    1.0000 </r>
       <r>    0.7817    1.0000 </r>
       <r>    1.4216    1.0000 </r>
       <r>    1.8524    1.0000 </r>
       <r>    2.3414    1.0000 </r>
       <r>    2.6583    1.0000 </r>
       <r>    2.8921    1.0000 </r>
       <r>    2.9385    1.0000 </r>
       <r>    3.3001    1.0000 </r>
       <r>    3.5917    1.0000 </r>
       <r>    4.2798    1.0000 </r>
       <r>    4.4638    1.0000 </r>
       <r>    4.6596    1.0000 </r>
       <r>    4.7612    1.0000 </r>
       <r>    5.3216    1.0000 </r>
       <r>    5.4042    1.0000 </r>
       <r>    5.7965    1.0000 </r>
       <r>    5.9680    1.0000 </r>
       <r>    6.3203    1.0000 </r>
       <r>    6.5785    1.0000 </r>
       <r>    7.1708    1.0000 </r>
       <r>    7.3637    1.0000 </r>
       <r>    7.5097    1.0000 </r>
       <r>   11.3778    0.0000 </r>
       <r>   11.8961    0.0000 </r>
       <r>   12.7984    0.0000 </r>
       <r>   12.9475    0.0000 </r>
       <r>   13.3208    0.0000 </r>
       <r>   13.6111    0.0000 </r>
       <r>   13.7906    0.0000 </r>
       <r>   13.9213    0.0000 </r>
       <r>   14.3811    0.0000 </r>
       <r>   14.6135    0.0000 </r>
       <r>   15.3742    0.0000 </r>
       <r>   15.5305    0.0000 </r>
      </set>
      <set comment="kpoint 5">
       <r>   -8.5458    1.0000 </r>
       <r>   -7.9688    1.0000 </r>
       <r>   -7.5996    1.0000 </r>
       <r>   -7.1767    1.0000 </r>
       <r>   -5.3866    1.0000 </r>
       <r>   -3.8847    1.0000 </r>
       <r>   -3.6410    1.0000 </r>
       <r>   -2.8329    1.0000 </r>
       <r>    0.3315    1.0000 </r>
       <r>    0.8721    1.0000 </r>
       <r>    1.1410    1.0000 </r>
       <r>    1.3975    1.0000 </r>
       <r>    1.8132    1.0000 </r>
       <r>    2.5719    1.0000 </r>
       <r>    2.7520    1.0000 </r>
       <r>    3.0086    1.0000 </r>
       <r>    3.2240    1.0000 </r>
       <r>    3.5671    1.0000 </r>
       <r>    4.0374    1.0000 </r>
       <r>    4.2896    1.0000 </r>
       <r>    4.3786    1.0000 </r>
       <r>    4.5880    1.0000 </r>
       <r>    4.8381    1.0000 </r>
       <r>    5.0726    1.0000 </r>
       <r>    5.4044    1.0000 </r>
       <r>    5.6873    1.0000 </r>
       <r>    5.8125    1.0000 </r>
       <r>    6.2107    1.0000 </r>
       <r>    6.3805    1.0000 </r>
       <r>    6.7497    1.0000 </r>
       <r>    7.3175    1.0000 </r>
       <r>    7.4479    1.0000 </r>
       <r>   11.4265    0.0000 </r>
       <r>   12.2971    0.0000 </r>
       <r>   12.6814    0.0000 </r>
       <r>   12.9023    0.0000 </r>
       <r>   13.1435    0.0000 </r>
       <r>   13.4736    0.0000 </r>
       <r>   13.6906    0.0000 </r>
       <r>   14.0119    0.0000 </r>
       <r>   14.4578    0.0000 </r>
       <r>   14.5999    0.0000 </r>
       <r>   14.8334    0.0000 </r>
       <r>   15.2474    0.0000 </r>
      </set>
      <set comment="kpoint 6">
       <r>   -8.2099    1.0000 </r>
       <r>   -7.8738    1.0000 </r>
       <r>   -7.8169    1.0000 </r>
       <r>   -7.3156    1.0000 </r>
       <r>   -4.9065    1.0000 </r>
       <r>   -4.6023    1.0000 </r>
       <r>   -4.1296    1.0000 </r>
       <r>   -2.8795    1.0000 </r>
       <r>    0.1619    1.0000 </r>
       <r>    0.6985    1.0000 </r>
       <r>    1.5722    1.0000 </r>
       <r>    2.0910    1.0000 </r>
       <r>    2.3247    1.0000 </r>
       <r>    2.5749    1.0000 </r>
       <r>    2.8163    1.0000 </r>
       <r>    3.3338    1.0000 </r>
       <r>    3.4340    1.0000 </r>
       <r>    3.7074    1.0000 </r>
       <r>    4.0652    1.0000 </r>
       <r>    4.3056    1.0000 </r>
       <r>    4.5119    1.0000 </r>
       <r>    4.6740    1.0000 </r>
       <r>    4.9115    1.0000 </r>
       <r>    5.1200    1.0000 </r>
       <r>    5.3746    1.0000 </r>
       <r>    5.5085    1.0000 </r>
       <r>    5.7720    1.0000 </r>
       <r>    5.8969    1.0000 </r>
       <r>    5.9787    1.0000 </r>
       <r>    6.3042    1.0000 </r>
       <r>    7.1318    1.0000 </r>
       <r>    7.3539    1.0000 </r>
       <r>   11.5080    0.0000 </r>
       <r>   12.2661    0.0000 </r>
       <r>   12.5435    0.0000 </r>
       <r>   12.7868    0.0000 </r>
       <r>   13.1576    0.0000 </r>
       <r>   13.5209    0.0000 </r>
       <r>   13.6079    0.0000 </r>
       <r>   14.0356    0.0000 </r>
       <r>   14.4161    0.0000 </r>
       <r>   14.5708    0.0000 </r>
       <r>   14.7056    0.0000 </r>
       <r>   15.0887    0.0000 </r>
      </set>
      <set comment="kpoint 7">
       <r>   -8.1189    1.0000 </r>
       <r>   -7.4417    1.0000 </r>
       <r>   -7.2902    1.0000 </r>
       <r>   -6.7005    1.0000 </r>
       <r>   -4.8623    1.0000 </r>
       <r>   -3.0325    1.0000 </r>
       <r>   -2.7180    1.0000 </r>
       <r>   -2.2563    1.0000 </r>
       <r>    0.3270    1.0000 </r>
       <r>    0.6675    1.0000 </r>
       <r>    0.9110    1.0000 </r>
       <r>    1.2568    1.0000 </r>
       <r>    1.6919    1.0000 </r>
       <r>    1.8665    1.0000 </r>
       <r>    2.0718    1.0000 </r>
       <r>    2.4581    1.0000 </r>
       <r>    2.6711    1.0000 </r>
       <r>    2.7661    1.0000 </r>
       <r>    2.9970    1.0000 </r>
       <r>    3.3562    1.0000 </r>
       <r>    3.6154    1.0000 </r>
       <r>    4.0277    1.0000 </r>
       <r>    4.1573    1.0000 </r>
       <r>    4.3759    1.0000 </r>
       <r>    4.5289    1.0000 </r>
       <r>    5.0959    1.0000 </r>
       <r>    5.2158    1.0000 </r>
       <r>    5.6796    1.0000 </r>
       <r>    5.8780    1.0000 </r>
       <r>    6.4858    1.0000 </r>
       <r>    6.8185    1.0000 </r>
       <r>    6.8412    1.0000 </r>
       <r>   10.7547    0.0000 </r>
       <r>   11.7875    0.0000 </r>
       <r>   12.0066    0.0000 </r>
       <r>   12.3471    0.0000 </r>
       <r>   12.7329    0.0000 </r>
       <r>   13.3243    0.0000 </r>
       <r>   13.4999    0.0000 </r>
       <r>   14.4073    0.0000 </r>
       <r>   14.4808    0.0000 </r>
       <r>   15.0626    0.0000 </r>
       <r>   15.2653    0.0000 </r>
       <r>   15.5999    0.0000 </r>
      </set>
      <set comment="kpoint 8">
       <r>   -7.9605    1.0000 </r>
       <r>   -7.4022    1.0000 </r>
       <r>   -7.2755    1.0000 </r>
       <r>   -6.8548    1.0000 </r>
       <r>   -4.6498    1.0000 </r>
       <r>   -3.1902    1.0000 </r>
       <r>   -2.9870    1.0000 </r>
       <r>   -2.5617    1.0000 </r>
       <r>    0.2865    1.0000 </r>
       <r>    0.3429    1.0000 </r>
       <r>    0.8807    1.0000 </r>
       <r>    1.3517    1.0000 </r>
       <r>    1.5069    1.0000 </r>
       <r>    1.7786    1.0000 </r>
       <r>    2.0789    1.0000 </r>
       <r>    2.2586    1.0000 </r>
       <r>    2.8952    1.0000 </r>
       <r>    2.9737    1.0000 </r>
       <r>    3.2427    1.0000 </r>
       <r>    3.4139    1.0000 </r>
       <r>    3.8778    1.0000 </r>
       <r>    4.1093    1.0000 </r>
       <r>    4.3199    1.0000 </r>
       <r>    4.5317    1.0000 </r>
       <r>    4.9801    1.0000 </r>
       <r>    5.0518    1.0000 </r>
       <r>    5.4274    1.0000 </r>
       <r>    5.7591    1.0000 </r>
       <r>    6.2289    1.0000 </r>
       <r>    6.5296    1.0000 </r>
       <r>    6.6714    1.0000 </r>
       <r>    6.8796    1.0000 </r>
       <r>   11.3680    0.0000 </r>
       <r>   11.7113    0.0000 </r>
       <r>   11.7511    0.0000 </r>
       <r>   12.1867    0.0000 </r>
       <r>   12.7035    0.0000 </r>
       <r>   13.1862    0.0000 </r>
       <r>   13.4384    0.0000 </r>
       <r>   14.0601    0.0000 </r>
       <r>   14.3435    0.0000 </r>
       <r>   14.5350    0.0000 </r>
       <r>   14.9125    0.0000 </r>
       <r>   14.9834    0.0000 </r>
      </set>
      <set comment="kpoint 9">
       <r>   -7.6725    1.0000 </r>
       <r>   -7.4279    1.0000 </r>
       <r>   -7.3329    1.0000 </r>
       <r>   -7.0005    1.0000 </r>
       <r>   -4.0928    1.0000 </r>
       <r>   -3.8942    1.0000 </r>
       <r>   -3.2896    1.0000 </r>
       <r>   -2.5224    1.0000 </r>
       <r>    0.0131    1.0000 </r>
       <r>    0.5952    1.0000 </r>
       <r>    0.6564    1.0000 </r>
       <r>    1.3119    1.0000 </r>
       <r>    1.3533    1.0000 </r>
       <r>    1.5969    1.0000 </r>
       <r>    1.8179    1.0000 </r>
       <r>    2.1080    1.0000 </r>
       <r>    2.5936    1.0000 </r>
       <r>    3.0698    1.0000 </r>
       <r>    3.9771    1.0000 </r>
       <r>    4.0631    1.0000 </r>
       <r>    4.1904    1.0000 </r>
       <r>    4.4453    1.0000 </r>
       <r>    4.4922    1.0000 </r>
       <r>    4.6950    1.0000 </r>
       <r>    4.9366    1.0000 </r>
       <r>    5.4819    1.0000 </r>
       <r>    5.7068    1.0000 </r>
       <r>    6.0162    1.0000 </r>
       <r>    6.0526    1.0000 </r>
       <r>    6.2536    1.0000 </r>
       <r>    6.6718    1.0000 </r>
       <r>    6.7636    1.0000 </r>
       <r>   11.3285    0.0000 </r>
       <r>   11.7557    0.0000 </r>
       <r>   11.9536    0.0000 </r>
       <r>   12.6542    0.0000 </r>
       <r>   12.6672    0.0000 </r>
       <r>   13.0213    0.0000 </r>
       <r>   13.3318    0.0000 </r>
       <r>   13.4519    0.0000 </r>
       <r>   13.5375    0.0000 </r>
       <r>   14.0505    0.0000 </r>
       <r>   14.1953    0.0000 </r>
       <r>   15.1551    0.0000 </r>
      </set>
      <set comment="kpoint 10">
       <r>   -7.6303    1.0000 </r>
       <r>   -7.2531    1.0000 </r>
       <r>   -7.0226    1.0000 </r>
       <r>   -6.5744    1.0000 </r>
       <r>   -4.2718    1.0000 </r>
       <r>   -3.0070    1.0000 </r>
       <r>   -2.6651    1.0000 </r>
       <r>   -2.1209    1.0000 </r>
       <r>   -0.0923    1.0000 </r>
       <r>    0.4811    1.0000 </r>
       <r>    0.7227    1.0000 </r>
       <r>    1.5403    1.0000 </r>
       <r>    1.7621    1.0000 </r>
       <r>    1.8449    1.0000 </r>
       <r>    2.0181    1.0000 </r>
       <r>    2.1606    1.0000 </r>
       <r>    2.2252    1.0000 </r>
       <r>    2.7343    1.0000 </r>
       <r>    2.7769    1.0000 </r>
       <r>    3.0590    1.0000 </r>
       <r>    3.4365    1.0000 </r>
       <r>    3.9461    1.0000 </r>
       <r>    4.0731    1.0000 </r>
       <r>    4.2059    1.0000 </r>
       <r>    4.3689    1.0000 </r>
       <r>    4.6910    1.0000 </r>
       <r>    4.7968    1.0000 </r>
       <r>    5.2347    1.0000 </r>
       <r>    5.3685    1.0000 </r>
       <r>    5.7752    1.0000 </r>
       <r>    6.4781    1.0000 </r>
       <r>    7.0840    1.0000 </r>
       <r>   11.0333    0.0000 </r>
       <r>   11.2428    0.0000 </r>
       <r>   11.4196    0.0000 </r>
       <r>   11.8295    0.0000 </r>
       <r>   11.9310    0.0000 </r>
       <r>   12.3047    0.0000 </r>
       <r>   13.9392    0.0000 </r>
       <r>   14.3145    0.0000 </r>
       <r>   14.4343    0.0000 </r>
       <r>   14.7707    0.0000 </r>
       <r>   15.3091    0.0000 </r>
       <r>   15.5375    0.0000 </r>
      </set>
      <set comment="kpoint 11">
       <r>   -7.5077    1.0000 </r>
       <r>   -7.2206    1.0000 </r>
       <r>   -7.0010    1.0000 </r>
       <r>   -6.6983    1.0000 </r>
       <r>   -4.0348    1.0000 </r>
       <r>   -2.9568    1.0000 </r>
       <r>   -2.6051    1.0000 </r>
       <r>   -2.3430    1.0000 </r>
       <r>   -0.5019    1.0000 </r>
       <r>    0.0926    1.0000 </r>
       <r>    0.1819    1.0000 </r>
       <r>    1.1461    1.0000 </r>
       <r>    1.3496    1.0000 </r>
       <r>    1.4181    1.0000 </r>
       <r>    1.5252    1.0000 </r>
       <r>    2.2173    1.0000 </r>
       <r>    2.6599    1.0000 </r>
       <r>    2.9281    1.0000 </r>
       <r>    3.1036    1.0000 </r>
       <r>    3.6558    1.0000 </r>
       <r>    3.8062    1.0000 </r>
       <r>    4.1010    1.0000 </r>
       <r>    4.2403    1.0000 </r>
       <r>    4.5593    1.0000 </r>
       <r>    4.6027    1.0000 </r>
       <r>    4.7928    1.0000 </r>
       <r>    5.1822    1.0000 </r>
       <r>    5.6605    1.0000 </r>
       <r>    5.9363    1.0000 </r>
       <r>    6.3257    1.0000 </r>
       <r>    6.3962    1.0000 </r>
       <r>    6.9642    1.0000 </r>
       <r>   10.8577    0.0000 </r>
       <r>   10.9977    0.0000 </r>
       <r>   11.2574    0.0000 </r>
       <r>   12.1061    0.0000 </r>
       <r>   12.1338    0.0000 </r>
       <r>   12.4606    0.0000 </r>
       <r>   13.3430    0.0000 </r>
       <r>   13.8836    0.0000 </r>
       <r>   14.3510    0.0000 </r>
       <r>   14.4753    0.0000 </r>
       <r>   14.7917    0.0000 </r>
       <r>   15.3095    0.0000 </r>
      </set>
      <set comment="kpoint 12">
       <r>   -7.3186    1.0000 </r>
       <r>   -7.1872    1.0000 </r>
       <r>   -6.9790    1.0000 </r>
       <r>   -6.8903    1.0000 </r>
       <r>   -3.6109    1.0000 </r>
       <r>   -2.9203    1.0000 </r>
       <r>   -2.8545    1.0000 </r>
       <r>   -2.5213    1.0000 </r>
       <r>   -0.4688    1.0000 </r>
       <r>   -0.2780    1.0000 </r>
       <r>   -0.1793    1.0000 </r>
       <r>    0.8404    1.0000 </r>
       <r>    0.9306    1.0000 </r>
       <r>    0.9586    1.0000 </r>
       <r>    1.1723    1.0000 </r>
       <r>    2.1839    1.0000 </r>
       <r>    2.7655    1.0000 </r>
       <r>    2.9451    1.0000 </r>
       <r>    3.3394    1.0000 </r>
       <r>    3.8301    1.0000 </r>
       <r>    4.2020    1.0000 </r>
       <r>    4.3246    1.0000 </r>
       <r>    4.6957    1.0000 </r>
       <r>    4.7397    1.0000 </r>
       <r>    5.1738    1.0000 </r>
       <r>    5.4299    1.0000 </r>
       <r>    5.8501    1.0000 </r>
       <r>    5.9255    1.0000 </r>
       <r>    6.1138    1.0000 </r>
       <r>    6.1890    1.0000 </r>
       <r>    6.6888    1.0000 </r>
       <r>    6.8566    1.0000 </r>
       <r>   10.7526    0.0000 </r>
       <r>   11.0008    0.0000 </r>
       <r>   11.1207    0.0000 </r>
       <r>   12.1989    0.0000 </r>
       <r>   12.3656    0.0000 </r>
       <r>   12.6007    0.0000 </r>
       <r>   13.0916    0.0000 </r>
       <r>   13.2347    0.0000 </r>
       <r>   13.3820    0.0000 </r>
       <r>   14.1296    0.0000 </r>
       <r>   14.3011    0.0000 </r>
       <r>   14.5982    0.0000 </r>
      </set>
      <set comment="kpoint 13">
       <r>   -8.9434    1.0000 </r>
       <r>   -8.4019    1.0000 </r>
       <r>   -7.6512    1.0000 </r>
       <r>   -7.1230    1.0000 </r>
       <r>   -5.8672    1.0000 </r>
       <r>   -3.8351    1.0000 </r>
       <r>   -2.9852    1.0000 </r>
       <r>   -2.9002    1.0000 </r>
       <r>   -0.2457    1.0000 </r>
       <r>    0.0432    1.0000 </r>
       <r>    0.7298    1.0000 </r>
       <r>    1.1508    1.0000 </r>
       <r>    1.9096    1.0000 </r>
       <r>    2.0902    1.0000 </r>
       <r>    2.5242    1.0000 </r>
       <r>    3.1258    1.0000 </r>
       <r>    3.9584    1.0000 </r>
       <r>    4.2078    1.0000 </r>
       <r>    4.2476    1.0000 </r>
       <r>    4.9283    1.0000 </r>
       <r>    4.9958    1.0000 </r>
       <r>    5.1062    1.0000 </r>
       <r>    5.4568    1.0000 </r>
       <r>    5.6400    1.0000 </r>
       <r>    5.8221    1.0000 </r>
       <r>    6.2660    1.0000 </r>
       <r>    6.7600    1.0000 </r>
       <r>    6.8128    1.0000 </r>
       <r>    6.8639    1.0000 </r>
       <r>    7.4469    1.0000 </r>
       <r>    7.5091    1.0000 </r>
       <r>    8.4440    1.0000 </r>
       <r>   10.8408    0.0000 </r>
       <r>   11.4908    0.0000 </r>
       <r>   11.7134    0.0000 </r>
       <r>   12.1559    0.0000 </r>
       <r>   12.5886    0.0000 </r>
       <r>   12.8221    0.0000 </r>
       <r>   13.6944    0.0000 </r>
       <r>   13.8862    0.0000 </r>
       <r>   14.7710    0.0000 </r>
       <r>   15.0080    0.0000 </r>
       <r>   15.3061    0.0000 </r>
       <r>   15.4499    0.0000 </r>
      </set>
      <set comment="kpoint 14">
       <r>   -8.7461    1.0000 </r>
       <r>   -8.3109    1.0000 </r>
       <r>   -7.6671    1.0000 </r>
       <r>   -7.3246    1.0000 </r>
       <r>   -5.6966    1.0000 </r>
       <r>   -4.2679    1.0000 </r>
       <r>   -3.7179    1.0000 </r>
       <r>   -3.1025    1.0000 </r>
       <r>    0.3129    1.0000 </r>
       <r>    0.5828    1.0000 </r>
       <r>    1.0172    1.0000 </r>
       <r>    1.3384    1.0000 </r>
       <r>    1.8858    1.0000 </r>
       <r>    2.2489    1.0000 </r>
       <r>    2.9675    1.0000 </r>
       <r>    3.4635    1.0000 </r>
       <r>    4.0084    1.0000 </r>
       <r>    4.3579    1.0000 </r>
       <r>    4.3599    1.0000 </r>
       <r>    4.6706    1.0000 </r>
       <r>    5.0313    1.0000 </r>
       <r>    5.2308    1.0000 </r>
       <r>    5.3561    1.0000 </r>
       <r>    5.6891    1.0000 </r>
       <r>    5.9394    1.0000 </r>
       <r>    6.1072    1.0000 </r>
       <r>    6.1589    1.0000 </r>
       <r>    6.6494    1.0000 </r>
       <r>    6.7293    1.0000 </r>
       <r>    7.0968    1.0000 </r>
       <r>    7.1379    1.0000 </r>
       <r>    8.3520    1.0000 </r>
       <r>   10.6711    0.0000 </r>
       <r>   11.3463    0.0000 </r>
       <r>   11.6335    0.0000 </r>
       <r>   12.2872    0.0000 </r>
       <r>   12.4273    0.0000 </r>
       <r>   13.1189    0.0000 </r>
       <r>   13.7631    0.0000 </r>
       <r>   14.0653    0.0000 </r>
       <r>   14.5792    0.0000 </r>
       <r>   14.7599    0.0000 </r>
       <r>   15.0893    0.0000 </r>
       <r>   15.6816    0.0000 </r>
      </set>
      <set comment="kpoint 15">
       <r>   -8.3818    1.0000 </r>
       <r>   -8.1675    1.0000 </r>
       <r>   -8.0185    1.0000 </r>
       <r>   -7.4062    1.0000 </r>
       <r>   -5.2833    1.0000 </r>
       <r>   -4.8925    1.0000 </r>
       <r>   -4.2490    1.0000 </r>
       <r>   -3.2823    1.0000 </r>
       <r>    0.3191    1.0000 </r>
       <r>    0.9203    1.0000 </r>
       <r>    1.1428    1.0000 </r>
       <r>    1.5162    1.0000 </r>
       <r>    2.7936    1.0000 </r>
       <r>    2.9616    1.0000 </r>
       <r>    3.5190    1.0000 </r>
       <r>    3.6989    1.0000 </r>
       <r>    4.0599    1.0000 </r>
       <r>    4.0961    1.0000 </r>
       <r>    4.5931    1.0000 </r>
       <r>    4.6706    1.0000 </r>
       <r>    4.8437    1.0000 </r>
       <r>    4.9864    1.0000 </r>
       <r>    5.3128    1.0000 </r>
       <r>    5.4214    1.0000 </r>
       <r>    5.5435    1.0000 </r>
       <r>    5.9709    1.0000 </r>
       <r>    6.2953    1.0000 </r>
       <r>    6.3185    1.0000 </r>
       <r>    6.3940    1.0000 </r>
       <r>    6.6022    1.0000 </r>
       <r>    6.9732    1.0000 </r>
       <r>    8.2622    1.0000 </r>
       <r>   10.6348    0.0000 </r>
       <r>   11.3968    0.0000 </r>
       <r>   11.5660    0.0000 </r>
       <r>   12.2667    0.0000 </r>
       <r>   12.9252    0.0000 </r>
       <r>   13.4026    0.0000 </r>
       <r>   13.6852    0.0000 </r>
       <r>   14.1202    0.0000 </r>
       <r>   14.1950    0.0000 </r>
       <r>   14.3488    0.0000 </r>
       <r>   14.5427    0.0000 </r>
       <r>   15.2552    0.0000 </r>
      </set>
      <set comment="kpoint 16">
       <r>   -8.7074    1.0000 </r>
       <r>   -8.1479    1.0000 </r>
       <r>   -7.4971    1.0000 </r>
       <r>   -6.9875    1.0000 </r>
       <r>   -5.5950    1.0000 </r>
       <r>   -3.5935    1.0000 </r>
       <r>   -2.8059    1.0000 </r>
       <r>   -2.7353    1.0000 </r>
       <r>    0.0441    1.0000 </r>
       <r>    0.3121    1.0000 </r>
       <r>    0.9741    1.0000 </r>
       <r>    1.3740    1.0000 </r>
       <r>    2.0748    1.0000 </r>
       <r>    2.2620    1.0000 </r>
       <r>    2.4059    1.0000 </r>
       <r>    2.5558    1.0000 </r>
       <r>    2.9421    1.0000 </r>
       <r>    3.6973    1.0000 </r>
       <r>    3.8490    1.0000 </r>
       <r>    3.8888    1.0000 </r>
       <r>    4.4262    1.0000 </r>
       <r>    4.7950    1.0000 </r>
       <r>    4.9913    1.0000 </r>
       <r>    5.2732    1.0000 </r>
       <r>    5.5413    1.0000 </r>
       <r>    5.5655    1.0000 </r>
       <r>    5.8670    1.0000 </r>
       <r>    6.2959    1.0000 </r>
       <r>    6.6301    1.0000 </r>
       <r>    7.2058    1.0000 </r>
       <r>    7.3299    1.0000 </r>
       <r>    7.5869    1.0000 </r>
       <r>   11.7572    0.0000 </r>
       <r>   11.9490    0.0000 </r>
       <r>   12.1031    0.0000 </r>
       <r>   12.5826    0.0000 </r>
       <r>   13.3354    0.0000 </r>
       <r>   13.3845    0.0000 </r>
       <r>   13.5716    0.0000 </r>
       <r>   14.4749    0.0000 </r>
       <r>   14.7736    0.0000 </r>
       <r>   14.9116    0.0000 </r>
       <r>   15.0970    0.0000 </r>
       <r>   15.3758    0.0000 </r>
      </set>
      <set comment="kpoint 17">
       <r>   -8.5188    1.0000 </r>
       <r>   -8.0659    1.0000 </r>
       <r>   -7.5151    1.0000 </r>
       <r>   -7.1746    1.0000 </r>
       <r>   -5.4118    1.0000 </r>
       <r>   -3.9739    1.0000 </r>
       <r>   -3.4753    1.0000 </r>
       <r>   -2.9203    1.0000 </r>
       <r>    0.4752    1.0000 </r>
       <r>    0.7976    1.0000 </r>
       <r>    1.1571    1.0000 </r>
       <r>    1.4550    1.0000 </r>
       <r>    1.8487    1.0000 </r>
       <r>    2.1981    1.0000 </r>
       <r>    2.7270    1.0000 </r>
       <r>    3.0444    1.0000 </r>
       <r>    3.5406    1.0000 </r>
       <r>    3.6907    1.0000 </r>
       <r>    3.7721    1.0000 </r>
       <r>    4.1069    1.0000 </r>
       <r>    4.4041    1.0000 </r>
       <r>    4.6367    1.0000 </r>
       <r>    4.9105    1.0000 </r>
       <r>    5.2084    1.0000 </r>
       <r>    5.3504    1.0000 </r>
       <r>    5.5848    1.0000 </r>
       <r>    5.8276    1.0000 </r>
       <r>    6.2461    1.0000 </r>
       <r>    6.4195    1.0000 </r>
       <r>    6.8182    1.0000 </r>
       <r>    7.2635    1.0000 </r>
       <r>    7.4960    1.0000 </r>
       <r>   11.6923    0.0000 </r>
       <r>   12.0120    0.0000 </r>
       <r>   12.2934    0.0000 </r>
       <r>   12.9549    0.0000 </r>
       <r>   13.1885    0.0000 </r>
       <r>   13.3596    0.0000 </r>
       <r>   13.8149    0.0000 </r>
       <r>   14.0600    0.0000 </r>
       <r>   14.2522    0.0000 </r>
       <r>   14.4598    0.0000 </r>
       <r>   14.8210    0.0000 </r>
       <r>   15.3433    0.0000 </r>
      </set>
      <set comment="kpoint 18">
       <r>   -8.1675    1.0000 </r>
       <r>   -7.9451    1.0000 </r>
       <r>   -7.8288    1.0000 </r>
       <r>   -7.2639    1.0000 </r>
       <r>   -4.9620    1.0000 </r>
       <r>   -4.6235    1.0000 </r>
       <r>   -3.9623    1.0000 </r>
       <r>   -3.0479    1.0000 </r>
       <r>    0.3924    1.0000 </r>
       <r>    1.0441    1.0000 </r>
       <r>    1.2187    1.0000 </r>
       <r>    1.5716    1.0000 </r>
       <r>    2.4466    1.0000 </r>
       <r>    2.7727    1.0000 </r>
       <r>    2.8836    1.0000 </r>
       <r>    3.3860    1.0000 </r>
       <r>    3.5281    1.0000 </r>
       <r>    3.6810    1.0000 </r>
       <r>    3.7332    1.0000 </r>
       <r>    4.4060    1.0000 </r>
       <r>    4.6017    1.0000 </r>
       <r>    4.6951    1.0000 </r>
       <r>    4.7627    1.0000 </r>
       <r>    5.0279    1.0000 </r>
       <r>    5.3662    1.0000 </r>
       <r>    5.5892    1.0000 </r>
       <r>    5.8460    1.0000 </r>
       <r>    5.9112    1.0000 </r>
       <r>    6.0674    1.0000 </r>
       <r>    6.3682    1.0000 </r>
       <r>    7.0992    1.0000 </r>
       <r>    7.3583    1.0000 </r>
       <r>   11.6398    0.0000 </r>
       <r>   12.1587    0.0000 </r>
       <r>   12.3919    0.0000 </r>
       <r>   12.7125    0.0000 </r>
       <r>   13.1715    0.0000 </r>
       <r>   13.4181    0.0000 </r>
       <r>   13.5984    0.0000 </r>
       <r>   13.8544    0.0000 </r>
       <r>   14.2721    0.0000 </r>
       <r>   14.7181    0.0000 </r>
       <r>   14.8286    0.0000 </r>
       <r>   15.0472    0.0000 </r>
      </set>
      <set comment="kpoint 19">
       <r>   -8.1079    1.0000 </r>
       <r>   -7.5212    1.0000 </r>
       <r>   -7.2119    1.0000 </r>
       <r>   -6.7067    1.0000 </r>
       <r>   -4.8649    1.0000 </r>
       <r>   -3.0179    1.0000 </r>
       <r>   -2.7429    1.0000 </r>
       <r>   -2.2624    1.0000 </r>
       <r>    0.4367    1.0000 </r>
       <r>    0.5858    1.0000 </r>
       <r>    0.8990    1.0000 </r>
       <r>    1.4171    1.0000 </r>
       <r>    1.6256    1.0000 </r>
       <r>    1.8363    1.0000 </r>
       <r>    1.9714    1.0000 </r>
       <r>    2.2691    1.0000 </r>
       <r>    2.7554    1.0000 </r>
       <r>    3.0002    1.0000 </r>
       <r>    3.0455    1.0000 </r>
       <r>    3.2588    1.0000 </r>
       <r>    3.5226    1.0000 </r>
       <r>    3.9412    1.0000 </r>
       <r>    4.3329    1.0000 </r>
       <r>    4.5540    1.0000 </r>
       <r>    4.7133    1.0000 </r>
       <r>    4.8389    1.0000 </r>
       <r>    5.0427    1.0000 </r>
       <r>    5.3774    1.0000 </r>
       <r>    6.0355    1.0000 </r>
       <r>    6.4027    1.0000 </r>
       <r>    6.8532    1.0000 </r>
       <r>    7.1188    1.0000 </r>
       <r>   11.1202    0.0000 </r>
       <r>   11.4417    0.0000 </r>
       <r>   11.7590    0.0000 </r>
       <r>   12.3904    0.0000 </r>
       <r>   12.9360    0.0000 </r>
       <r>   13.1893    0.0000 </r>
       <r>   13.6794    0.0000 </r>
       <r>   13.9520    0.0000 </r>
       <r>   14.1766    0.0000 </r>
       <r>   14.9654    0.0000 </r>
       <r>   15.3557    0.0000 </r>
       <r>   15.8268    0.0000 </r>
      </set>
      <set comment="kpoint 20">
       <r>   -7.9491    1.0000 </r>
       <r>   -7.4680    1.0000 </r>
       <r>   -7.2197    1.0000 </r>
       <r>   -6.8534    1.0000 </r>
       <r>   -4.6531    1.0000 </r>
       <r>   -3.2013    1.0000 </r>
       <r>   -2.9471    1.0000 </r>
       <r>   -2.5972    1.0000 </r>
       <r>    0.2107    1.0000 </r>
       <r>    0.4825    1.0000 </r>
       <r>    0.7950    1.0000 </r>
       <r>    1.2810    1.0000 </r>
       <r>    1.5421    1.0000 </r>
       <r>    1.6578    1.0000 </r>
       <r>    2.3599    1.0000 </r>
       <r>    2.5490    1.0000 </r>
       <r>    2.7207    1.0000 </r>
       <r>    2.9209    1.0000 </r>
       <r>    3.0913    1.0000 </r>
       <r>    3.5097    1.0000 </r>
       <r>    3.7568    1.0000 </r>
       <r>    4.1044    1.0000 </r>
       <r>    4.3712    1.0000 </r>
       <r>    4.5776    1.0000 </r>
       <r>    4.7753    1.0000 </r>
       <r>    5.0750    1.0000 </r>
       <r>    5.2691    1.0000 </r>
       <r>    5.8369    1.0000 </r>
       <r>    6.2549    1.0000 </r>
       <r>    6.5202    1.0000 </r>
       <r>    6.7941    1.0000 </r>
       <r>    6.9902    1.0000 </r>
       <r>   11.4138    0.0000 </r>
       <r>   11.7174    0.0000 </r>
       <r>   11.8630    0.0000 </r>
       <r>   12.0802    0.0000 </r>
       <r>   12.7040    0.0000 </r>
       <r>   12.9541    0.0000 </r>
       <r>   13.6375    0.0000 </r>
       <r>   13.7742    0.0000 </r>
       <r>   14.2176    0.0000 </r>
       <r>   14.4887    0.0000 </r>
       <r>   14.8648    0.0000 </r>
       <r>   14.9715    0.0000 </r>
      </set>
      <set comment="kpoint 21">
       <r>   -7.6562    1.0000 </r>
       <r>   -7.4380    1.0000 </r>
       <r>   -7.3591    1.0000 </r>
       <r>   -6.9788    1.0000 </r>
       <r>   -4.1087    1.0000 </r>
       <r>   -3.9087    1.0000 </r>
       <r>   -3.2055    1.0000 </r>
       <r>   -2.5790    1.0000 </r>
       <r>   -0.0597    1.0000 </r>
       <r>    0.5772    1.0000 </r>
       <r>    0.7256    1.0000 </r>
       <r>    1.1090    1.0000 </r>
       <r>    1.3330    1.0000 </r>
       <r>    1.6720    1.0000 </r>
       <r>    1.9148    1.0000 </r>
       <r>    2.5713    1.0000 </r>
       <r>    2.7998    1.0000 </r>
       <r>    3.0848    1.0000 </r>
       <r>    3.1639    1.0000 </r>
       <r>    3.9335    1.0000 </r>
       <r>    4.2132    1.0000 </r>
       <r>    4.4454    1.0000 </r>
       <r>    4.6149    1.0000 </r>
       <r>    4.6365    1.0000 </r>
       <r>    4.9805    1.0000 </r>
       <r>    5.4566    1.0000 </r>
       <r>    5.7284    1.0000 </r>
       <r>    5.9936    1.0000 </r>
       <r>    6.0912    1.0000 </r>
       <r>    6.3523    1.0000 </r>
       <r>    6.6962    1.0000 </r>
       <r>    6.9109    1.0000 </r>
       <r>   11.4712    0.0000 </r>
       <r>   11.9535    0.0000 </r>
       <r>   12.0580    0.0000 </r>
       <r>   12.2494    0.0000 </r>
       <r>   12.5265    0.0000 </r>
       <r>   12.6000    0.0000 </r>
       <r>   13.0576    0.0000 </r>
       <r>   13.1604    0.0000 </r>
       <r>   13.9566    0.0000 </r>
       <r>   14.3540    0.0000 </r>
       <r>   14.6703    0.0000 </r>
       <r>   14.9428    0.0000 </r>
      </set>
      <set comment="kpoint 22">
       <r>   -7.6301    1.0000 </r>
       <r>   -7.2514    1.0000 </r>
       <r>   -7.0247    1.0000 </r>
       <r>   -6.5750    1.0000 </r>
       <r>   -4.2726    1.0000 </r>
       <r>   -3.0016    1.0000 </r>
       <r>   -2.6670    1.0000 </r>
       <r>   -2.1082    1.0000 </r>
       <r>   -0.0307    1.0000 </r>
       <r>    0.3016    1.0000 </r>
       <r>    0.7082    1.0000 </r>
       <r>    1.5634    1.0000 </r>
       <r>    1.5917    1.0000 </r>
       <r>    1.9531    1.0000 </r>
       <r>    2.0958    1.0000 </r>
       <r>    2.0970    1.0000 </r>
       <r>    2.5063    1.0000 </r>
       <r>    2.6312    1.0000 </r>
       <r>    3.0955    1.0000 </r>
       <r>    3.2070    1.0000 </r>
       <r>    3.3512    1.0000 </r>
       <r>    3.6585    1.0000 </r>
       <r>    3.8978    1.0000 </r>
       <r>    3.9944    1.0000 </r>
       <r>    4.2662    1.0000 </r>
       <r>    4.8634    1.0000 </r>
       <r>    4.8832    1.0000 </r>
       <r>    5.3373    1.0000 </r>
       <r>    5.4669    1.0000 </r>
       <r>    6.1483    1.0000 </r>
       <r>    6.2666    1.0000 </r>
       <r>    6.5718    1.0000 </r>
       <r>   11.4218    0.0000 </r>
       <r>   11.5725    0.0000 </r>
       <r>   11.7584    0.0000 </r>
       <r>   12.0066    0.0000 </r>
       <r>   12.1876    0.0000 </r>
       <r>   12.6947    0.0000 </r>
       <r>   12.6967    0.0000 </r>
       <r>   13.0212    0.0000 </r>
       <r>   14.3858    0.0000 </r>
       <r>   15.1308    0.0000 </r>
       <r>   15.2378    0.0000 </r>
       <r>   15.3204    0.0000 </r>
      </set>
      <set comment="kpoint 23">
       <r>   -7.5076    1.0000 </r>
       <r>   -7.2192    1.0000 </r>
       <r>   -7.0027    1.0000 </r>
       <r>   -6.6985    1.0000 </r>
       <r>   -4.0370    1.0000 </r>
       <r>   -2.9544    1.0000 </r>
       <r>   -2.6049    1.0000 </r>
       <r>   -2.3366    1.0000 </r>
       <r>   -0.4125    1.0000 </r>
       <r>   -0.0341    1.0000 </r>
       <r>    0.1998    1.0000 </r>
       <r>    1.1636    1.0000 </r>
       <r>    1.2068    1.0000 </r>
       <r>    1.3445    1.0000 </r>
       <r>    1.5498    1.0000 </r>
       <r>    2.3419    1.0000 </r>
       <r>    2.7400    1.0000 </r>
       <r>    3.1454    1.0000 </r>
       <r>    3.1663    1.0000 </r>
       <r>    3.4180    1.0000 </r>
       <r>    3.9149    1.0000 </r>
       <r>    4.0398    1.0000 </r>
       <r>    4.1465    1.0000 </r>
       <r>    4.5077    1.0000 </r>
       <r>    4.6557    1.0000 </r>
       <r>    4.8201    1.0000 </r>
       <r>    5.3560    1.0000 </r>
       <r>    5.7240    1.0000 </r>
       <r>    5.8675    1.0000 </r>
       <r>    6.2648    1.0000 </r>
       <r>    6.3206    1.0000 </r>
       <r>    6.6345    1.0000 </r>
       <r>   11.2699    0.0000 </r>
       <r>   11.2711    0.0000 </r>
       <r>   11.6684    0.0000 </r>
       <r>   11.7584    0.0000 </r>
       <r>   12.2630    0.0000 </r>
       <r>   12.6794    0.0000 </r>
       <r>   12.9468    0.0000 </r>
       <r>   13.4857    0.0000 </r>
       <r>   14.2785    0.0000 </r>
       <r>   14.6303    0.0000 </r>
       <r>   14.9570    0.0000 </r>
       <r>   15.1674    0.0000 </r>
      </set>
      <set comment="kpoint 24">
       <r>   -7.3185    1.0000 </r>
       <r>   -7.1862    1.0000 </r>
       <r>   -6.9802    1.0000 </r>
       <r>   -6.8902    1.0000 </r>
       <r>   -3.6131    1.0000 </r>
       <r>   -2.9099    1.0000 </r>
       <r>   -2.8585    1.0000 </r>
       <r>   -2.5374    1.0000 </r>
       <r>   -0.3907    1.0000 </r>
       <r>   -0.1967    1.0000 </r>
       <r>   -0.1164    1.0000 </r>
       <r>    0.6230    1.0000 </r>
       <r>    0.8254    1.0000 </r>
       <r>    0.9038    1.0000 </r>
       <r>    1.1324    1.0000 </r>
       <r>    1.8981    1.0000 </r>
       <r>    3.3056    1.0000 </r>
       <r>    3.3649    1.0000 </r>
       <r>    3.6945    1.0000 </r>
       <r>    3.7485    1.0000 </r>
       <r>    4.0472    1.0000 </r>
       <r>    4.2233    1.0000 </r>
       <r>    4.2275    1.0000 </r>
       <r>    4.9178    1.0000 </r>
       <r>    5.0823    1.0000 </r>
       <r>    5.1756    1.0000 </r>
       <r>    5.9439    1.0000 </r>
       <r>    5.9597    1.0000 </r>
       <r>    6.0498    1.0000 </r>
       <r>    6.1834    1.0000 </r>
       <r>    6.6092    1.0000 </r>
       <r>    6.8191    1.0000 </r>
       <r>   11.2544    0.0000 </r>
       <r>   11.3393    0.0000 </r>
       <r>   11.7261    0.0000 </r>
       <r>   11.7805    0.0000 </r>
       <r>   12.1035    0.0000 </r>
       <r>   12.2635    0.0000 </r>
       <r>   12.4993    0.0000 </r>
       <r>   13.0483    0.0000 </r>
       <r>   13.6909    0.0000 </r>
       <r>   14.1276    0.0000 </r>
       <r>   14.3365    0.0000 </r>
       <r>   14.4224    0.0000 </r>
      </set>
     </set>
    </set>
   </array>
  </eigenvalues>
  <separator name="orbital magnetization" >
   <v name="MAGDIPOLOUT">      0.00000000      0.00000000      0.00000000</v>
  </separator>
  <dos>
   <i name="efermi">      8.88540623 </i>
   <total>
    <array>
     <dimension dim="1">gridpoints</dimension>
     <dimension dim="2">spin</dimension>
     <field>energy</field>
     <field>total</field>
     <field>integrated</field>
     <set>
      <set comment="spin 1">
       <r>   -10.2140     0.0000     0.0000 </r>
       <r>   -10.1231     0.0000     0.0000 </r>
       <r>   -10.0321     0.0000     0.0000 </r>
       <r>    -9.9412     0.0000     0.0000 </r>
       <r>    -9.8502     0.0000     0.0000 </r>
       <r>    -9.7593     0.0000     0.0000 </r>
       <r>    -9.6684     0.0000     0.0000 </r>
       <r>    -9.5774     0.0000     0.0000 </r>
       <r>    -9.4865     0.0000     0.0000 </r>
       <r>    -9.3956     0.0000     0.0000 </r>
       <r>    -9.3046     0.0000     0.0000 </r>
       <r>    -9.2137     0.0002     0.0000 </r>
       <r>    -9.1228     0.0105     0.0010 </r>
       <r>    -9.0318     0.1325     0.0130 </r>
       <r>    -8.9409     0.4188     0.0511 </r>
       <r>    -8.8500     0.5692     0.1029 </r>
       <r>    -8.7590     1.2776     0.2190 </r>
       <r>    -8.6681     1.6748     0.3713 </r>
       <r>    -8.5771     1.4377     0.5021 </r>
       <r>    -8.4862     1.9644     0.6807 </r>
       <r>    -8.3953     1.5547     0.8221 </r>
       <r>    -8.3043     1.3092     0.9411 </r>
       <r>    -8.2134     2.0199     1.1248 </r>
       <r>    -8.1225     3.3755     1.4318 </r>
       <r>    -8.0315     4.2907     1.8220 </r>
       <r>    -7.9406     4.7927     2.2578 </r>
       <r>    -7.8497     3.7122     2.5954 </r>
       <r>    -7.7587     2.5238     2.8249 </r>
       <r>    -7.6678     2.9009     3.0887 </r>
       <r>    -7.5768     4.2595     3.4760 </r>
       <r>    -7.4859     5.5525     3.9809 </r>
       <r>    -7.3950     6.3213     4.5558 </r>
       <r>    -7.3040     6.6016     5.1561 </r>
       <r>    -7.2131     7.3539     5.8248 </r>
       <r>    -7.1222     5.6631     6.3398 </r>
       <r>    -7.0312     3.7079     6.6770 </r>
       <r>    -6.9403     4.2370     7.0623 </r>
       <r>    -6.8494     3.6153     7.3910 </r>
       <r>    -6.7584     2.5271     7.6208 </r>
       <r>    -6.6675     2.1581     7.8171 </r>
       <r>    -6.5766     1.3990     7.9443 </r>
       <r>    -6.4856     0.5128     7.9910 </r>
       <r>    -6.3947     0.0945     7.9995 </r>
       <r>    -6.3037     0.0050     8.0000 </r>
       <r>    -6.2128     0.0001     8.0000 </r>
       <r>    -6.1219     0.0001     8.0000 </r>
       <r>    -6.0309     0.0056     8.0005 </r>
       <r>    -5.9400     0.0899     8.0087 </r>
       <r>    -5.8491     0.3730     8.0426 </r>
       <r>    -5.7581     0.6130     8.0984 </r>
       <r>    -5.6672     1.0747     8.1961 </r>
       <r>    -5.5763     1.4327     8.3264 </r>
       <r>    -5.4853     1.2382     8.4390 </r>
       <r>    -5.3944     1.7064     8.5941 </r>
       <r>    -5.3034     1.6113     8.7407 </r>
       <r>    -5.2125     0.7191     8.8061 </r>
       <r>    -5.1216     0.2695     8.8306 </r>
       <r>    -5.0306     0.2495     8.8533 </r>
       <r>    -4.9397     1.0846     8.9519 </r>
       <r>    -4.8488     1.9722     9.1312 </r>
       <r>    -4.7578     1.4032     9.2588 </r>
       <r>    -4.6669     1.8251     9.4248 </r>
       <r>    -4.5760     2.5079     9.6529 </r>
       <r>    -4.4850     1.0770     9.7508 </r>
       <r>    -4.3941     0.3985     9.7870 </r>
       <r>    -4.3032     0.7494     9.8552 </r>
       <r>    -4.2122     1.4841     9.9901 </r>
       <r>    -4.1213     2.1366    10.1844 </r>
       <r>    -4.0303     2.9051    10.4486 </r>
       <r>    -3.9394     3.5760    10.7738 </r>
       <r>    -3.8485     3.4121    11.0841 </r>
       <r>    -3.7575     1.8903    11.2560 </r>
       <r>    -3.6666     1.6918    11.4098 </r>
       <r>    -3.5757     2.3951    11.6276 </r>
       <r>    -3.4847     1.9444    11.8044 </r>
       <r>    -3.3938     1.0999    11.9045 </r>
       <r>    -3.3029     1.0076    11.9961 </r>
       <r>    -3.2119     2.3385    12.2087 </r>
       <r>    -3.1210     3.2103    12.5007 </r>
       <r>    -3.0300     4.3414    12.8955 </r>
       <r>    -2.9391     6.5756    13.4934 </r>
       <r>    -2.8482     6.3415    14.0701 </r>
       <r>    -2.7572     4.6284    14.4910 </r>
       <r>    -2.6663     3.6026    14.8186 </r>
       <r>    -2.5754     4.0777    15.1894 </r>
       <r>    -2.4844     3.3354    15.4927 </r>
       <r>    -2.3935     1.3772    15.6179 </r>
       <r>    -2.3026     1.4016    15.7454 </r>
       <r>    -2.2116     1.4395    15.8763 </r>
       <r>    -2.1207     0.8231    15.9511 </r>
       <r>    -2.0298     0.4299    15.9902 </r>
       <r>    -1.9388     0.1014    15.9994 </r>
       <r>    -1.8479     0.0060    16.0000 </r>
       <r>    -1.7569     0.0001    16.0000 </r>
       <r>    -1.6660     0.0000    16.0000 </r>
       <r>    -1.5751     0.0000    16.0000 </r>
       <r>    -1.4841     0.0000    16.0000 </r>
       <r>    -1.3932     0.0000    16.0000 </r>
       <r>    -1.3023     0.0000    16.0000 </r>
       <r>    -1.2113     0.0000    16.0000 </r>
       <r>    -1.1204     0.0000    16.0000 </r>
       <r>    -1.0295     0.0000    16.0000 </r>
       <r>    -0.9385     0.0000    16.0000 </r>
       <r>    -0.8476     0.0000    16.0000 </r>
       <r>    -0.7566     0.0002    16.0000 </r>
       <r>    -0.6657     0.0107    16.0010 </r>
       <r>    -0.5748     0.1708    16.0165 </r>
       <r>    -0.4838     0.7545    16.0851 </r>
       <r>    -0.3929     1.2254    16.1966 </r>
       <r>    -0.3020     1.1077    16.2973 </r>
       <r>    -0.2110     1.0547    16.3932 </r>
       <r>    -0.1201     1.5135    16.5308 </r>
       <r>    -0.0292     2.7635    16.7821 </r>
       <r>     0.0618     3.2925    17.0815 </r>
       <r>     0.1527     2.9543    17.3502 </r>
       <r>     0.2436     3.9159    17.7063 </r>
       <r>     0.3346     5.5399    18.2101 </r>
       <r>     0.4255     5.2130    18.6841 </r>
       <r>     0.5165     4.6749    19.1092 </r>
       <r>     0.6074     4.3960    19.5090 </r>
       <r>     0.6983     4.3503    19.9046 </r>
       <r>     0.7893     5.1268    20.3708 </r>
       <r>     0.8802     5.6377    20.8834 </r>
       <r>     0.9711     4.7260    21.3132 </r>
       <r>     1.0621     3.7446    21.6537 </r>
       <r>     1.1530     5.1179    22.1191 </r>
       <r>     1.2439     5.9150    22.6570 </r>
       <r>     1.3349     6.6706    23.2636 </r>
       <r>     1.4258     7.5398    23.9493 </r>
       <r>     1.5167     6.6286    24.5520 </r>
       <r>     1.6077     6.1739    25.1135 </r>
       <r>     1.6986     4.9860    25.5669 </r>
       <r>     1.7896     5.1157    26.0321 </r>
       <r>     1.8805     6.1610    26.5923 </r>
       <r>     1.9714     4.5144    27.0028 </r>
       <r>     2.0624     3.7479    27.3437 </r>
       <r>     2.1533     4.6654    27.7679 </r>
       <r>     2.2442     5.0392    28.2262 </r>
       <r>     2.3352     5.2450    28.7031 </r>
       <r>     2.4261     4.4614    29.1088 </r>
       <r>     2.5170     4.2630    29.4965 </r>
       <r>     2.6080     5.3513    29.9831 </r>
       <r>     2.6989     6.3142    30.5573 </r>
       <r>     2.7899     7.8560    31.2717 </r>
       <r>     2.8808     7.2822    31.9339 </r>
       <r>     2.9717     8.0324    32.6643 </r>
       <r>     3.0627     8.6003    33.4464 </r>
       <r>     3.1536     7.0038    34.0833 </r>
       <r>     3.2445     5.2599    34.5616 </r>
       <r>     3.3355     4.9599    35.0127 </r>
       <r>     3.4264     5.4831    35.5113 </r>
       <r>     3.5173     6.1643    36.0718 </r>
       <r>     3.6083     6.1633    36.6323 </r>
       <r>     3.6992     6.0720    37.1845 </r>
       <r>     3.7901     6.1073    37.7398 </r>
       <r>     3.8811     5.6669    38.2552 </r>
       <r>     3.9720     6.6660    38.8613 </r>
       <r>     4.0630     8.3474    39.6204 </r>
       <r>     4.1539     8.6228    40.4045 </r>
       <r>     4.2448     7.3308    41.0712 </r>
       <r>     4.3358     8.4801    41.8423 </r>
       <r>     4.4267     9.6097    42.7162 </r>
       <r>     4.5176     9.0514    43.5393 </r>
       <r>     4.6086     9.6841    44.4199 </r>
       <r>     4.6995     9.4358    45.2780 </r>
       <r>     4.7904     7.9719    46.0029 </r>
       <r>     4.8814     7.2355    46.6609 </r>
       <r>     4.9723     7.3917    47.3330 </r>
       <r>     5.0633     8.3025    48.0880 </r>
       <r>     5.1542     7.3190    48.7536 </r>
       <r>     5.2451     6.2261    49.3198 </r>
       <r>     5.3361     7.3660    49.9896 </r>
       <r>     5.4270     8.6436    50.7756 </r>
       <r>     5.5179     6.7866    51.3928 </r>
       <r>     5.6089     5.3457    51.8789 </r>
       <r>     5.6998     6.3694    52.4581 </r>
       <r>     5.7907     8.0786    53.1927 </r>
       <r>     5.8817     8.8325    53.9959 </r>
       <r>     5.9726     8.1072    54.7331 </r>
       <r>     6.0635     6.4805    55.3225 </r>
       <r>     6.1545     5.2982    55.8043 </r>
       <r>     6.2454     7.1423    56.4537 </r>
       <r>     6.3364     8.8449    57.2581 </r>
       <r>     6.4273     7.7553    57.9633 </r>
       <r>     6.5182     5.9799    58.5071 </r>
       <r>     6.6092     5.7316    59.0283 </r>
       <r>     6.7001     6.4325    59.6132 </r>
       <r>     6.7910     7.1313    60.2617 </r>
       <r>     6.8820     6.7002    60.8710 </r>
       <r>     6.9729     4.3921    61.2704 </r>
       <r>     7.0638     3.3907    61.5788 </r>
       <r>     7.1548     3.7804    61.9225 </r>
       <r>     7.2457     3.3894    62.2308 </r>
       <r>     7.3367     3.6781    62.5652 </r>
       <r>     7.4276     4.1022    62.9383 </r>
       <r>     7.5185     4.0993    63.3110 </r>
       <r>     7.6095     2.8365    63.5690 </r>
       <r>     7.7004     0.9544    63.6558 </r>
       <r>     7.7913     0.1161    63.6663 </r>
       <r>     7.8823     0.0038    63.6667 </r>
       <r>     7.9732     0.0000    63.6667 </r>
       <r>     8.0641     0.0018    63.6668 </r>
       <r>     8.1551     0.0514    63.6715 </r>
       <r>     8.2460     0.3962    63.7075 </r>
       <r>     8.3369     1.0806    63.8058 </r>
       <r>     8.4279     1.2827    63.9224 </r>
       <r>     8.5188     0.6926    63.9854 </r>
       <r>     8.6098     0.1504    63.9991 </r>
       <r>     8.7007     0.0097    64.0000 </r>
       <r>     8.7916     0.0001    64.0000 </r>
       <r>     8.8826     0.0000    64.0000 </r>
       <r>     8.9735     0.0000    64.0000 </r>
       <r>     9.0644     0.0000    64.0000 </r>
       <r>     9.1554     0.0000    64.0000 </r>
       <r>     9.2463     0.0000    64.0000 </r>
       <r>     9.3372     0.0000    64.0000 </r>
       <r>     9.4282     0.0000    64.0000 </r>
       <r>     9.5191     0.0000    64.0000 </r>
       <r>     9.6101     0.0000    64.0000 </r>
       <r>     9.7010     0.0000    64.0000 </r>
       <r>     9.7919     0.0000    64.0000 </r>
       <r>     9.8829     0.0000    64.0000 </r>
       <r>     9.9738     0.0000    64.0000 </r>
       <r>    10.0647     0.0000    64.0000 </r>
       <r>    10.1557     0.0000    64.0000 </r>
       <r>    10.2466     0.0010    64.0001 </r>
       <r>    10.3375     0.0277    64.0026 </r>
       <r>    10.4285     0.2162    64.0223 </r>
       <r>    10.5194     0.5933    64.0762 </r>
       <r>    10.6103     0.9143    64.1594 </r>
       <r>    10.7013     1.2856    64.2763 </r>
       <r>    10.7922     1.3599    64.3999 </r>
       <r>    10.8832     1.1337    64.5030 </r>
       <r>    10.9741     0.9835    64.5925 </r>
       <r>    11.0650     1.2017    64.7017 </r>
       <r>    11.1560     1.3610    64.8255 </r>
       <r>    11.2469     2.2725    65.0322 </r>
       <r>    11.3378     4.1861    65.4128 </r>
       <r>    11.4288     5.7723    65.9377 </r>
       <r>    11.5197     4.9347    66.3865 </r>
       <r>    11.6106     3.8181    66.7337 </r>
       <r>    11.7016     6.0525    67.2841 </r>
       <r>    11.7925     7.5933    67.9746 </r>
       <r>    11.8835     5.6021    68.4840 </r>
       <r>    11.9744     4.9700    68.9360 </r>
       <r>    12.0653     5.2590    69.4142 </r>
       <r>    12.1563     5.2817    69.8945 </r>
       <r>    12.2472     5.6360    70.4070 </r>
       <r>    12.3381     6.0756    70.9595 </r>
       <r>    12.4291     4.4950    71.3683 </r>
       <r>    12.5200     3.1173    71.6517 </r>
       <r>    12.6109     3.8952    72.0059 </r>
       <r>    12.7019     6.0806    72.5589 </r>
       <r>    12.7928     5.6796    73.0754 </r>
       <r>    12.8837     4.2582    73.4626 </r>
       <r>    12.9747     5.2413    73.9392 </r>
       <r>    13.0656     5.1293    74.4056 </r>
       <r>    13.1566     5.8518    74.9378 </r>
       <r>    13.2475     6.1108    75.4935 </r>
       <r>    13.3384     5.5079    75.9943 </r>
       <r>    13.4294     6.1417    76.5528 </r>
       <r>    13.5203     5.8262    77.0827 </r>
       <r>    13.6112     5.2056    77.5560 </r>
       <r>    13.7022     5.0401    78.0144 </r>
       <r>    13.7931     4.6384    78.4362 </r>
       <r>    13.8840     4.2458    78.8223 </r>
       <r>    13.9750     4.4312    79.2252 </r>
       <r>    14.0659     5.5168    79.7269 </r>
       <r>    14.1569     5.3790    80.2160 </r>
       <r>    14.2478     5.2942    80.6975 </r>
       <r>    14.3387     6.0444    81.2471 </r>
       <r>    14.4297     7.4328    81.9230 </r>
       <r>    14.5206     8.1520    82.6643 </r>
       <r>    14.6115     6.5461    83.2596 </r>
       <r>    14.7025     4.8224    83.6981 </r>
       <r>    14.7934     5.3292    84.1828 </r>
       <r>    14.8843     6.6645    84.7888 </r>
       <r>    14.9753     6.4869    85.3787 </r>
       <r>    15.0662     5.3456    85.8648 </r>
       <r>    15.1571     4.4070    86.2655 </r>
       <r>    15.2481     4.3326    86.6595 </r>
       <r>    15.3390     4.7944    87.0955 </r>
       <r>    15.4300     3.6303    87.4256 </r>
       <r>    15.5209     1.8811    87.5967 </r>
       <r>    15.6118     1.6214    87.7441 </r>
       <r>    15.7028     1.3710    87.8688 </r>
       <r>    15.7937     0.7559    87.9376 </r>
       <r>    15.8846     0.4954    87.9826 </r>
       <r>    15.9756     0.1751    87.9985 </r>
       <r>    16.0665     0.0159    88.0000 </r>
       <r>    16.1574     0.0003    88.0000 </r>
       <r>    16.2484     0.0000    88.0000 </r>
       <r>    16.3393     0.0000    88.0000 </r>
       <r>    16.4303     0.0000    88.0000 </r>
       <r>    16.5212     0.0000    88.0000 </r>
       <r>    16.6121     0.0000    88.0000 </r>
       <r>    16.7031     0.0000    88.0000 </r>
       <r>    16.7940     0.0000    88.0000 </r>
       <r>    16.8849     0.0000    88.0000 </r>
       <r>    16.9759     0.0000    88.0000 </r>
       <r>    17.0668     0.0000    88.0000 </r>
      </set>
     </set>
    </array>
   </total>
  </dos>
 </calculation>
 <structure name="finalpos" >
  <crystal>
   <varray name="basis" >
    <v>       5.05686831       0.00000000      -0.01161523 </v>
    <v>       0.00000000       3.10700673       0.00000000 </v>
    <v>      -0.02477499       0.00000000      10.80226896 </v>
   </varray>
   <i name="volume">    169.72137287 </i>
   <varray name="rec_basis" >
    <v>       0.19775189       0.00000000       0.00045354 </v>
    <v>       0.00000000       0.32185318       0.00000000 </v>
    <v>       0.00021263       0.00000000       0.09257363 </v>
   </varray>
  </crystal>
  <varray name="positions" >
   <v>       0.99579406       0.00000000       0.32826958 </v>
   <v>       0.00230572       0.50000000       0.08433403 </v>
   <v>       0.49832127       0.00000000       0.66806792 </v>
   <v>       0.51632877       0.00000000       0.16727676 </v>
   <v>       0.98955587       0.00000000       0.83416560 </v>
   <v>       0.00392844       0.50000000       0.58385344 </v>
   <v>       0.49455777       0.50000000       0.91652423 </v>
   <v>       0.50919311       0.50000000       0.41584815 </v>
   <v>       0.61129445       0.50000000       0.59480834 </v>
   <v>       0.63718004       0.00000000       0.32794507 </v>
   <v>       0.63401623       0.50000000       0.08440055 </v>
   <v>       0.13618960       0.00000000       0.16470939 </v>
   <v>       0.60759024       0.00000000       0.82766655 </v>
   <v>       0.11003946       0.50000000       0.92162083 </v>
   <v>       0.13706771       0.00000000       0.67071114 </v>
   <v>       0.11663727       0.50000000       0.40979844 </v>
  </varray>
 </structure>
</modeling>
