<?xml version="1.0" encoding="ISO-8859-1"?>
<modeling>
 <generator>
  <i name="program" type="string">vasp </i>
  <i name="version" type="string">5.3.5  </i>
  <i name="subversion" type="string">31Mar14 (build Jun 20 2014 13:15:13) complex                          parallel </i>
  <i name="platform" type="string">LinuxIFC </i>
  <i name="date" type="string">2025 11 21 </i>
  <i name="time" type="string">14:44:37 </i>
 </generator>
 <incar>
  <i type="string" name="PREC">accurate</i>
  <i type="int" name="IALGO">    68</i>
  <i type="logical" name="ADDGRID"> T  </i>
  <i type="int" name="NELM">   100</i>
  <i type="int" name="NELMIN">     4</i>
  <i type="int" name="IBRION">     2</i>
  <i name="EDIFF">      0.00000100</i>
  <i name="EDIFFG">     -0.02000000</i>
  <i type="int" name="NSW">    30</i>
  <i type="int" name="ISIF">     3</i>
  <i name="ENCUT">    500.00000000</i>
  <i type="logical" name="LREAL"> F  </i>
  <i type="int" name="ISMEAR">     1</i>
  <i name="SIGMA">      0.30000000</i>
  <i type="logical" name="LWAVE"> F  </i>
  <i type="logical" name="LCHARG"> F  </i>
  <i type="int" name="NELM">   100</i>
 </incar>
 <kpoints>
  <generation param="Auto">
   <i name="subdivisionlength">     70.00000000 </i>
   <v type="int" name="divisions">      24       15       10 </v>
   <v name="usershift">      0.00000000       0.00000000       0.00000000 </v>
   <v name="genvec1">      0.04166667       0.00000000       0.00000000 </v>
   <v name="genvec2">      0.00000000       0.06666667       0.00000000 </v>
   <v name="genvec3">      0.00000000       0.00000000       0.10000000 </v>
   <v name="shift">      0.00000000       0.00000000       0.00000000 </v>
  </generation>
  <varray name="kpointlist" >
   <v>       0.00000000       0.00000000       0.00000000 </v>
   <v>       0.04166667       0.00000000       0.00000000 </v>
   <v>       0.08333333       0.00000000       0.00000000 </v>
   <v>       0.12500000       0.00000000       0.00000000 </v>
   <v>       0.16666667       0.00000000       0.00000000 </v>
   <v>       0.20833333       0.00000000       0.00000000 </v>
   <v>       0.25000000       0.00000000       0.00000000 </v>
   <v>       0.29166667       0.00000000       0.00000000 </v>
   <v>       0.33333333       0.00000000       0.00000000 </v>
   <v>       0.37500000       0.00000000       0.00000000 </v>
   <v>       0.41666667       0.00000000       0.00000000 </v>
   <v>       0.45833333       0.00000000       0.00000000 </v>
   <v>       0.50000000       0.00000000       0.00000000 </v>
   <v>       0.00000000       0.06666667       0.00000000 </v>
   <v>       0.04166667       0.06666667       0.00000000 </v>
   <v>       0.08333333       0.06666667       0.00000000 </v>
   <v>       0.12500000       0.06666667       0.00000000 </v>
   <v>       0.16666667       0.06666667       0.00000000 </v>
   <v>       0.20833333       0.06666667       0.00000000 </v>
   <v>       0.25000000       0.06666667       0.00000000 </v>
   <v>       0.29166667       0.06666667       0.00000000 </v>
   <v>       0.33333333       0.06666667       0.00000000 </v>
   <v>       0.37500000       0.06666667       0.00000000 </v>
   <v>       0.41666667       0.06666667       0.00000000 </v>
   <v>       0.45833333       0.06666667       0.00000000 </v>
   <v>       0.50000000       0.06666667       0.00000000 </v>
   <v>      -0.45833333       0.06666667       0.00000000 </v>
   <v>      -0.41666667       0.06666667       0.00000000 </v>
   <v>      -0.37500000       0.06666667       0.00000000 </v>
   <v>      -0.33333333       0.06666667       0.00000000 </v>
   <v>      -0.29166667       0.06666667       0.00000000 </v>
   <v>      -0.25000000       0.06666667       0.00000000 </v>
   <v>      -0.20833333       0.06666667       0.00000000 </v>
   <v>      -0.16666667       0.06666667       0.00000000 </v>
   <v>      -0.12500000       0.06666667       0.00000000 </v>
   <v>      -0.08333333       0.06666667       0.00000000 </v>
   <v>      -0.04166667       0.06666667       0.00000000 </v>
   <v>       0.00000000       0.13333333       0.00000000 </v>
   <v>       0.04166667       0.13333333       0.00000000 </v>
   <v>       0.08333333       0.13333333       0.00000000 </v>
   <v>       0.12500000       0.13333333       0.00000000 </v>
   <v>       0.16666667       0.13333333       0.00000000 </v>
   <v>       0.20833333       0.13333333       0.00000000 </v>
   <v>       0.25000000       0.13333333       0.00000000 </v>
   <v>       0.29166667       0.13333333       0.00000000 </v>
   <v>       0.33333333       0.13333333       0.00000000 </v>
   <v>       0.37500000       0.13333333       0.00000000 </v>
   <v>       0.41666667       0.13333333       0.00000000 </v>
   <v>       0.45833333       0.13333333       0.00000000 </v>
   <v>       0.50000000       0.13333333       0.00000000 </v>
   <v>      -0.45833333       0.13333333       0.00000000 </v>
   <v>      -0.41666667       0.13333333       0.00000000 </v>
   <v>      -0.37500000       0.13333333       0.00000000 </v>
   <v>      -0.33333333       0.13333333       0.00000000 </v>
   <v>      -0.29166667       0.13333333       0.00000000 </v>
   <v>      -0.25000000       0.13333333       0.00000000 </v>
   <v>      -0.20833333       0.13333333       0.00000000 </v>
   <v>      -0.16666667       0.13333333       0.00000000 </v>
   <v>      -0.12500000       0.13333333       0.00000000 </v>
   <v>      -0.08333333       0.13333333       0.00000000 </v>
   <v>      -0.04166667       0.13333333       0.00000000 </v>
   <v>       0.00000000       0.20000000       0.00000000 </v>
   <v>       0.04166667       0.20000000       0.00000000 </v>
   <v>       0.08333333       0.20000000       0.00000000 </v>
   <v>       0.12500000       0.20000000       0.00000000 </v>
   <v>       0.16666667       0.20000000       0.00000000 </v>
   <v>       0.20833333       0.20000000       0.00000000 </v>
   <v>       0.25000000       0.20000000       0.00000000 </v>
   <v>       0.29166667       0.20000000       0.00000000 </v>
   <v>       0.33333333       0.20000000       0.00000000 </v>
   <v>       0.37500000       0.20000000       0.00000000 </v>
   <v>       0.41666667       0.20000000       0.00000000 </v>
   <v>       0.45833333       0.20000000       0.00000000 </v>
   <v>       0.50000000       0.20000000       0.00000000 </v>
   <v>      -0.45833333       0.20000000       0.00000000 </v>
   <v>      -0.41666667       0.20000000       0.00000000 </v>
   <v>      -0.37500000       0.20000000       0.00000000 </v>
   <v>      -0.33333333       0.20000000       0.00000000 </v>
   <v>      -0.29166667       0.20000000       0.00000000 </v>
   <v>      -0.25000000       0.20000000       0.00000000 </v>
   <v>      -0.20833333       0.20000000       0.00000000 </v>
   <v>      -0.16666667       0.20000000       0.00000000 </v>
   <v>      -0.12500000       0.20000000       0.00000000 </v>
   <v>      -0.08333333       0.20000000       0.00000000 </v>
   <v>      -0.04166667       0.20000000       0.00000000 </v>
   <v>       0.00000000       0.26666667       0.00000000 </v>
   <v>       0.04166667       0.26666667       0.00000000 </v>
   <v>       0.08333333       0.26666667       0.00000000 </v>
   <v>       0.12500000       0.26666667       0.00000000 </v>
   <v>       0.16666667       0.26666667       0.00000000 </v>
   <v>       0.20833333       0.26666667       0.00000000 </v>
   <v>       0.25000000       0.26666667       0.00000000 </v>
   <v>       0.29166667       0.26666667       0.00000000 </v>
   <v>       0.33333333       0.26666667       0.00000000 </v>
   <v>       0.37500000       0.26666667       0.00000000 </v>
   <v>       0.41666667       0.26666667       0.00000000 </v>
   <v>       0.45833333       0.26666667       0.00000000 </v>
   <v>       0.50000000       0.26666667       0.00000000 </v>
   <v>      -0.45833333       0.26666667       0.00000000 </v>
   <v>      -0.41666667       0.26666667       0.00000000 </v>
   <v>      -0.37500000       0.26666667       0.00000000 </v>
   <v>      -0.33333333       0.26666667       0.00000000 </v>
   <v>      -0.29166667       0.26666667       0.00000000 </v>
   <v>      -0.25000000       0.26666667       0.00000000 </v>
   <v>      -0.20833333       0.26666667       0.00000000 </v>
   <v>      -0.16666667       0.26666667       0.00000000 </v>
   <v>      -0.12500000       0.26666667       0.00000000 </v>
   <v>      -0.08333333       0.26666667       0.00000000 </v>
   <v>      -0.04166667       0.26666667       0.00000000 </v>
   <v>       0.00000000       0.33333333       0.00000000 </v>
   <v>       0.04166667       0.33333333       0.00000000 </v>
   <v>       0.08333333       0.33333333       0.00000000 </v>
   <v>       0.12500000       0.33333333       0.00000000 </v>
   <v>       0.16666667       0.33333333       0.00000000 </v>
   <v>       0.20833333       0.33333333       0.00000000 </v>
   <v>       0.25000000       0.33333333       0.00000000 </v>
   <v>       0.29166667       0.33333333       0.00000000 </v>
   <v>       0.33333333       0.33333333       0.00000000 </v>
   <v>       0.37500000       0.33333333       0.00000000 </v>
   <v>       0.41666667       0.33333333       0.00000000 </v>
   <v>       0.45833333       0.33333333       0.00000000 </v>
   <v>       0.50000000       0.33333333       0.00000000 </v>
   <v>      -0.45833333       0.33333333       0.00000000 </v>
   <v>      -0.41666667       0.33333333       0.00000000 </v>
   <v>      -0.37500000       0.33333333       0.00000000 </v>
   <v>      -0.33333333       0.33333333       0.00000000 </v>
   <v>      -0.29166667       0.33333333       0.00000000 </v>
   <v>      -0.25000000       0.33333333       0.00000000 </v>
   <v>      -0.20833333       0.33333333       0.00000000 </v>
   <v>      -0.16666667       0.33333333       0.00000000 </v>
   <v>      -0.12500000       0.33333333       0.00000000 </v>
   <v>      -0.08333333       0.33333333       0.00000000 </v>
   <v>      -0.04166667       0.33333333       0.00000000 </v>
   <v>       0.00000000       0.40000000       0.00000000 </v>
   <v>       0.04166667       0.40000000       0.00000000 </v>
   <v>       0.08333333       0.40000000       0.00000000 </v>
   <v>       0.12500000       0.40000000       0.00000000 </v>
   <v>       0.16666667       0.40000000       0.00000000 </v>
   <v>       0.20833333       0.40000000       0.00000000 </v>
   <v>       0.25000000       0.40000000       0.00000000 </v>
   <v>       0.29166667       0.40000000       0.00000000 </v>
   <v>       0.33333333       0.40000000       0.00000000 </v>
   <v>       0.37500000       0.40000000       0.00000000 </v>
   <v>       0.41666667       0.40000000       0.00000000 </v>
   <v>       0.45833333       0.40000000       0.00000000 </v>
   <v>       0.50000000       0.40000000       0.00000000 </v>
   <v>      -0.45833333       0.40000000       0.00000000 </v>
   <v>      -0.41666667       0.40000000       0.00000000 </v>
   <v>      -0.37500000       0.40000000       0.00000000 </v>
   <v>      -0.33333333       0.40000000       0.00000000 </v>
   <v>      -0.29166667       0.40000000       0.00000000 </v>
   <v>      -0.25000000       0.40000000       0.00000000 </v>
   <v>      -0.20833333       0.40000000       0.00000000 </v>
   <v>      -0.16666667       0.40000000       0.00000000 </v>
   <v>      -0.12500000       0.40000000       0.00000000 </v>
   <v>      -0.08333333       0.40000000       0.00000000 </v>
   <v>      -0.04166667       0.40000000       0.00000000 </v>
   <v>       0.00000000       0.46666667       0.00000000 </v>
   <v>       0.04166667       0.46666667       0.00000000 </v>
   <v>       0.08333333       0.46666667       0.00000000 </v>
   <v>       0.12500000       0.46666667       0.00000000 </v>
   <v>       0.16666667       0.46666667       0.00000000 </v>
   <v>       0.20833333       0.46666667       0.00000000 </v>
   <v>       0.25000000       0.46666667       0.00000000 </v>
   <v>       0.29166667       0.46666667       0.00000000 </v>
   <v>       0.33333333       0.46666667       0.00000000 </v>
   <v>       0.37500000       0.46666667       0.00000000 </v>
   <v>       0.41666667       0.46666667       0.00000000 </v>
   <v>       0.45833333       0.46666667       0.00000000 </v>
   <v>       0.50000000       0.46666667       0.00000000 </v>
   <v>      -0.45833333       0.46666667       0.00000000 </v>
   <v>      -0.41666667       0.46666667       0.00000000 </v>
   <v>      -0.37500000       0.46666667       0.00000000 </v>
   <v>      -0.33333333       0.46666667       0.00000000 </v>
   <v>      -0.29166667       0.46666667       0.00000000 </v>
   <v>      -0.25000000       0.46666667       0.00000000 </v>
   <v>      -0.20833333       0.46666667       0.00000000 </v>
   <v>      -0.16666667       0.46666667       0.00000000 </v>
   <v>      -0.12500000       0.46666667       0.00000000 </v>
   <v>      -0.08333333       0.46666667       0.00000000 </v>
   <v>      -0.04166667       0.46666667       0.00000000 </v>
   <v>       0.00000000       0.00000000       0.10000000 </v>
   <v>       0.04166667       0.00000000       0.10000000 </v>
   <v>       0.08333333       0.00000000       0.10000000 </v>
   <v>       0.12500000       0.00000000       0.10000000 </v>
   <v>       0.16666667       0.00000000       0.10000000 </v>
   <v>       0.20833333       0.00000000       0.10000000 </v>
   <v>       0.25000000       0.00000000       0.10000000 </v>
   <v>       0.29166667       0.00000000       0.10000000 </v>
   <v>       0.33333333       0.00000000       0.10000000 </v>
   <v>       0.37500000       0.00000000       0.10000000 </v>
   <v>       0.41666667       0.00000000       0.10000000 </v>
   <v>       0.45833333       0.00000000       0.10000000 </v>
   <v>       0.50000000       0.00000000       0.10000000 </v>
   <v>      -0.45833333       0.00000000       0.10000000 </v>
   <v>      -0.41666667       0.00000000       0.10000000 </v>
   <v>      -0.37500000       0.00000000       0.10000000 </v>
   <v>      -0.33333333       0.00000000       0.10000000 </v>
   <v>      -0.29166667       0.00000000       0.10000000 </v>
   <v>      -0.25000000       0.00000000       0.10000000 </v>
   <v>      -0.20833333       0.00000000       0.10000000 </v>
   <v>      -0.16666667       0.00000000       0.10000000 </v>
   <v>      -0.12500000       0.00000000       0.10000000 </v>
   <v>      -0.08333333       0.00000000       0.10000000 </v>
   <v>      -0.04166667       0.00000000       0.10000000 </v>
   <v>       0.00000000       0.06666667       0.10000000 </v>
   <v>       0.04166667       0.06666667       0.10000000 </v>
   <v>       0.08333333       0.06666667       0.10000000 </v>
   <v>       0.12500000       0.06666667       0.10000000 </v>
   <v>       0.16666667       0.06666667       0.10000000 </v>
   <v>       0.20833333       0.06666667       0.10000000 </v>
   <v>       0.25000000       0.06666667       0.10000000 </v>
   <v>       0.29166667       0.06666667       0.10000000 </v>
   <v>       0.33333333       0.06666667       0.10000000 </v>
   <v>       0.37500000       0.06666667       0.10000000 </v>
   <v>       0.41666667       0.06666667       0.10000000 </v>
   <v>       0.45833333       0.06666667       0.10000000 </v>
   <v>       0.50000000       0.06666667       0.10000000 </v>
   <v>      -0.45833333       0.06666667       0.10000000 </v>
   <v>      -0.41666667       0.06666667       0.10000000 </v>
   <v>      -0.37500000       0.06666667       0.10000000 </v>
   <v>      -0.33333333       0.06666667       0.10000000 </v>
   <v>      -0.29166667       0.06666667       0.10000000 </v>
   <v>      -0.25000000       0.06666667       0.10000000 </v>
   <v>      -0.20833333       0.06666667       0.10000000 </v>
   <v>      -0.16666667       0.06666667       0.10000000 </v>
   <v>      -0.12500000       0.06666667       0.10000000 </v>
   <v>      -0.08333333       0.06666667       0.10000000 </v>
   <v>      -0.04166667       0.06666667       0.10000000 </v>
   <v>       0.00000000       0.13333333       0.10000000 </v>
   <v>       0.04166667       0.13333333       0.10000000 </v>
   <v>       0.08333333       0.13333333       0.10000000 </v>
   <v>       0.12500000       0.13333333       0.10000000 </v>
   <v>       0.16666667       0.13333333       0.10000000 </v>
   <v>       0.20833333       0.13333333       0.10000000 </v>
   <v>       0.25000000       0.13333333       0.10000000 </v>
   <v>       0.29166667       0.13333333       0.10000000 </v>
   <v>       0.33333333       0.13333333       0.10000000 </v>
   <v>       0.37500000       0.13333333       0.10000000 </v>
   <v>       0.41666667       0.13333333       0.10000000 </v>
   <v>       0.45833333       0.13333333       0.10000000 </v>
   <v>       0.50000000       0.13333333       0.10000000 </v>
   <v>      -0.45833333       0.13333333       0.10000000 </v>
   <v>      -0.41666667       0.13333333       0.10000000 </v>
   <v>      -0.37500000       0.13333333       0.10000000 </v>
   <v>      -0.33333333       0.13333333       0.10000000 </v>
   <v>      -0.29166667       0.13333333       0.10000000 </v>
   <v>      -0.25000000       0.13333333       0.10000000 </v>
   <v>      -0.20833333       0.13333333       0.10000000 </v>
   <v>      -0.16666667       0.13333333       0.10000000 </v>
   <v>      -0.12500000       0.13333333       0.10000000 </v>
   <v>      -0.08333333       0.13333333       0.10000000 </v>
   <v>      -0.04166667       0.13333333       0.10000000 </v>
   <v>       0.00000000       0.20000000       0.10000000 </v>
   <v>       0.04166667       0.20000000       0.10000000 </v>
   <v>       0.08333333       0.20000000       0.10000000 </v>
   <v>       0.12500000       0.20000000       0.10000000 </v>
   <v>       0.16666667       0.20000000       0.10000000 </v>
   <v>       0.20833333       0.20000000       0.10000000 </v>
   <v>       0.25000000       0.20000000       0.10000000 </v>
   <v>       0.29166667       0.20000000       0.10000000 </v>
   <v>       0.33333333       0.20000000       0.10000000 </v>
   <v>       0.37500000       0.20000000       0.10000000 </v>
   <v>       0.41666667       0.20000000       0.10000000 </v>
   <v>       0.45833333       0.20000000       0.10000000 </v>
   <v>       0.50000000       0.20000000       0.10000000 </v>
   <v>      -0.45833333       0.20000000       0.10000000 </v>
   <v>      -0.41666667       0.20000000       0.10000000 </v>
   <v>      -0.37500000       0.20000000       0.10000000 </v>
   <v>      -0.33333333       0.20000000       0.10000000 </v>
   <v>      -0.29166667       0.20000000       0.10000000 </v>
   <v>      -0.25000000       0.20000000       0.10000000 </v>
   <v>      -0.20833333       0.20000000       0.10000000 </v>
   <v>      -0.16666667       0.20000000       0.10000000 </v>
   <v>      -0.12500000       0.20000000       0.10000000 </v>
   <v>      -0.08333333       0.20000000       0.10000000 </v>
   <v>      -0.04166667       0.20000000       0.10000000 </v>
   <v>       0.00000000       0.26666667       0.10000000 </v>
   <v>       0.04166667       0.26666667       0.10000000 </v>
   <v>       0.08333333       0.26666667       0.10000000 </v>
   <v>       0.12500000       0.26666667       0.10000000 </v>
   <v>       0.16666667       0.26666667       0.10000000 </v>
   <v>       0.20833333       0.26666667       0.10000000 </v>
   <v>       0.25000000       0.26666667       0.10000000 </v>
   <v>       0.29166667       0.26666667       0.10000000 </v>
   <v>       0.33333333       0.26666667       0.10000000 </v>
   <v>       0.37500000       0.26666667       0.10000000 </v>
   <v>       0.41666667       0.26666667       0.10000000 </v>
   <v>       0.45833333       0.26666667       0.10000000 </v>
   <v>       0.50000000       0.26666667       0.10000000 </v>
   <v>      -0.45833333       0.26666667       0.10000000 </v>
   <v>      -0.41666667       0.26666667       0.10000000 </v>
   <v>      -0.37500000       0.26666667       0.10000000 </v>
   <v>      -0.33333333       0.26666667       0.10000000 </v>
   <v>      -0.29166667       0.26666667       0.10000000 </v>
   <v>      -0.25000000       0.26666667       0.10000000 </v>
   <v>      -0.20833333       0.26666667       0.10000000 </v>
   <v>      -0.16666667       0.26666667       0.10000000 </v>
   <v>      -0.12500000       0.26666667       0.10000000 </v>
   <v>      -0.08333333       0.26666667       0.10000000 </v>
   <v>      -0.04166667       0.26666667       0.10000000 </v>
   <v>       0.00000000       0.33333333       0.10000000 </v>
   <v>       0.04166667       0.33333333       0.10000000 </v>
   <v>       0.08333333       0.33333333       0.10000000 </v>
   <v>       0.12500000       0.33333333       0.10000000 </v>
   <v>       0.16666667       0.33333333       0.10000000 </v>
   <v>       0.20833333       0.33333333       0.10000000 </v>
   <v>       0.25000000       0.33333333       0.10000000 </v>
   <v>       0.29166667       0.33333333       0.10000000 </v>
   <v>       0.33333333       0.33333333       0.10000000 </v>
   <v>       0.37500000       0.33333333       0.10000000 </v>
   <v>       0.41666667       0.33333333       0.10000000 </v>
   <v>       0.45833333       0.33333333       0.10000000 </v>
   <v>       0.50000000       0.33333333       0.10000000 </v>
   <v>      -0.45833333       0.33333333       0.10000000 </v>
   <v>      -0.41666667       0.33333333       0.10000000 </v>
   <v>      -0.37500000       0.33333333       0.10000000 </v>
   <v>      -0.33333333       0.33333333       0.10000000 </v>
   <v>      -0.29166667       0.33333333       0.10000000 </v>
   <v>      -0.25000000       0.33333333       0.10000000 </v>
   <v>      -0.20833333       0.33333333       0.10000000 </v>
   <v>      -0.16666667       0.33333333       0.10000000 </v>
   <v>      -0.12500000       0.33333333       0.10000000 </v>
   <v>      -0.08333333       0.33333333       0.10000000 </v>
   <v>      -0.04166667       0.33333333       0.10000000 </v>
   <v>       0.00000000       0.40000000       0.10000000 </v>
   <v>       0.04166667       0.40000000       0.10000000 </v>
   <v>       0.08333333       0.40000000       0.10000000 </v>
   <v>       0.12500000       0.40000000       0.10000000 </v>
   <v>       0.16666667       0.40000000       0.10000000 </v>
   <v>       0.20833333       0.40000000       0.10000000 </v>
   <v>       0.25000000       0.40000000       0.10000000 </v>
   <v>       0.29166667       0.40000000       0.10000000 </v>
   <v>       0.33333333       0.40000000       0.10000000 </v>
   <v>       0.37500000       0.40000000       0.10000000 </v>
   <v>       0.41666667       0.40000000       0.10000000 </v>
   <v>       0.45833333       0.40000000       0.10000000 </v>
   <v>       0.50000000       0.40000000       0.10000000 </v>
   <v>      -0.45833333       0.40000000       0.10000000 </v>
   <v>      -0.41666667       0.40000000       0.10000000 </v>
   <v>      -0.37500000       0.40000000       0.10000000 </v>
   <v>      -0.33333333       0.40000000       0.10000000 </v>
   <v>      -0.29166667       0.40000000       0.10000000 </v>
   <v>      -0.25000000       0.40000000       0.10000000 </v>
   <v>      -0.20833333       0.40000000       0.10000000 </v>
   <v>      -0.16666667       0.40000000       0.10000000 </v>
   <v>      -0.12500000       0.40000000       0.10000000 </v>
   <v>      -0.08333333       0.40000000       0.10000000 </v>
   <v>      -0.04166667       0.40000000       0.10000000 </v>
   <v>       0.00000000       0.46666667       0.10000000 </v>
   <v>       0.04166667       0.46666667       0.10000000 </v>
   <v>       0.08333333       0.46666667       0.10000000 </v>
   <v>       0.12500000       0.46666667       0.10000000 </v>
   <v>       0.16666667       0.46666667       0.10000000 </v>
   <v>       0.20833333       0.46666667       0.10000000 </v>
   <v>       0.25000000       0.46666667       0.10000000 </v>
   <v>       0.29166667       0.46666667       0.10000000 </v>
   <v>       0.33333333       0.46666667       0.10000000 </v>
   <v>       0.37500000       0.46666667       0.10000000 </v>
   <v>       0.41666667       0.46666667       0.10000000 </v>
   <v>       0.45833333       0.46666667       0.10000000 </v>
   <v>       0.50000000       0.46666667       0.10000000 </v>
   <v>      -0.45833333       0.46666667       0.10000000 </v>
   <v>      -0.41666667       0.46666667       0.10000000 </v>
   <v>      -0.37500000       0.46666667       0.10000000 </v>
   <v>      -0.33333333       0.46666667       0.10000000 </v>
   <v>      -0.29166667       0.46666667       0.10000000 </v>
   <v>      -0.25000000       0.46666667       0.10000000 </v>
   <v>      -0.20833333       0.46666667       0.10000000 </v>
   <v>      -0.16666667       0.46666667       0.10000000 </v>
   <v>      -0.12500000       0.46666667       0.10000000 </v>
   <v>      -0.08333333       0.46666667       0.10000000 </v>
   <v>      -0.04166667       0.46666667       0.10000000 </v>
   <v>       0.00000000      -0.46666667       0.10000000 </v>
   <v>       0.04166667      -0.46666667       0.10000000 </v>
   <v>       0.08333333      -0.46666667       0.10000000 </v>
   <v>       0.12500000      -0.46666667       0.10000000 </v>
   <v>       0.16666667      -0.46666667       0.10000000 </v>
   <v>       0.20833333      -0.46666667       0.10000000 </v>
   <v>       0.25000000      -0.46666667       0.10000000 </v>
   <v>       0.29166667      -0.46666667       0.10000000 </v>
   <v>       0.33333333      -0.46666667       0.10000000 </v>
   <v>       0.37500000      -0.46666667       0.10000000 </v>
   <v>       0.41666667      -0.46666667       0.10000000 </v>
   <v>       0.45833333      -0.46666667       0.10000000 </v>
   <v>       0.50000000      -0.46666667       0.10000000 </v>
   <v>      -0.45833333      -0.46666667       0.10000000 </v>
   <v>      -0.41666667      -0.46666667       0.10000000 </v>
   <v>      -0.37500000      -0.46666667       0.10000000 </v>
   <v>      -0.33333333      -0.46666667       0.10000000 </v>
   <v>      -0.29166667      -0.46666667       0.10000000 </v>
   <v>      -0.25000000      -0.46666667       0.10000000 </v>
   <v>      -0.20833333      -0.46666667       0.10000000 </v>
   <v>      -0.16666667      -0.46666667       0.10000000 </v>
   <v>      -0.12500000      -0.46666667       0.10000000 </v>
   <v>      -0.08333333      -0.46666667       0.10000000 </v>
   <v>      -0.04166667      -0.46666667       0.10000000 </v>
   <v>       0.00000000      -0.40000000       0.10000000 </v>
   <v>       0.04166667      -0.40000000       0.10000000 </v>
   <v>       0.08333333      -0.40000000       0.10000000 </v>
   <v>       0.12500000      -0.40000000       0.10000000 </v>
   <v>       0.16666667      -0.40000000       0.10000000 </v>
   <v>       0.20833333      -0.40000000       0.10000000 </v>
   <v>       0.25000000      -0.40000000       0.10000000 </v>
   <v>       0.29166667      -0.40000000       0.10000000 </v>
   <v>       0.33333333      -0.40000000       0.10000000 </v>
   <v>       0.37500000      -0.40000000       0.10000000 </v>
   <v>       0.41666667      -0.40000000       0.10000000 </v>
   <v>       0.45833333      -0.40000000       0.10000000 </v>
   <v>       0.50000000      -0.40000000       0.10000000 </v>
   <v>      -0.45833333      -0.40000000       0.10000000 </v>
   <v>      -0.41666667      -0.40000000       0.10000000 </v>
   <v>      -0.37500000      -0.40000000       0.10000000 </v>
   <v>      -0.33333333      -0.40000000       0.10000000 </v>
   <v>      -0.29166667      -0.40000000       0.10000000 </v>
   <v>      -0.25000000      -0.40000000       0.10000000 </v>
   <v>      -0.20833333      -0.40000000       0.10000000 </v>
   <v>      -0.16666667      -0.40000000       0.10000000 </v>
   <v>      -0.12500000      -0.40000000       0.10000000 </v>
   <v>      -0.08333333      -0.40000000       0.10000000 </v>
   <v>      -0.04166667      -0.40000000       0.10000000 </v>
   <v>       0.00000000      -0.33333333       0.10000000 </v>
   <v>       0.04166667      -0.33333333       0.10000000 </v>
   <v>       0.08333333      -0.33333333       0.10000000 </v>
   <v>       0.12500000      -0.33333333       0.10000000 </v>
   <v>       0.16666667      -0.33333333       0.10000000 </v>
   <v>       0.20833333      -0.33333333       0.10000000 </v>
   <v>       0.25000000      -0.33333333       0.10000000 </v>
   <v>       0.29166667      -0.33333333       0.10000000 </v>
   <v>       0.33333333      -0.33333333       0.10000000 </v>
   <v>       0.37500000      -0.33333333       0.10000000 </v>
   <v>       0.41666667      -0.33333333       0.10000000 </v>
   <v>       0.45833333      -0.33333333       0.10000000 </v>
   <v>       0.50000000      -0.33333333       0.10000000 </v>
   <v>      -0.45833333      -0.33333333       0.10000000 </v>
   <v>      -0.41666667      -0.33333333       0.10000000 </v>
   <v>      -0.37500000      -0.33333333       0.10000000 </v>
   <v>      -0.33333333      -0.33333333       0.10000000 </v>
   <v>      -0.29166667      -0.33333333       0.10000000 </v>
   <v>      -0.25000000      -0.33333333       0.10000000 </v>
   <v>      -0.20833333      -0.33333333       0.10000000 </v>
   <v>      -0.16666667      -0.33333333       0.10000000 </v>
   <v>      -0.12500000      -0.33333333       0.10000000 </v>
   <v>      -0.08333333      -0.33333333       0.10000000 </v>
   <v>      -0.04166667      -0.33333333       0.10000000 </v>
   <v>       0.00000000      -0.26666667       0.10000000 </v>
   <v>       0.04166667      -0.26666667       0.10000000 </v>
   <v>       0.08333333      -0.26666667       0.10000000 </v>
   <v>       0.12500000      -0.26666667       0.10000000 </v>
   <v>       0.16666667      -0.26666667       0.10000000 </v>
   <v>       0.20833333      -0.26666667       0.10000000 </v>
   <v>       0.25000000      -0.26666667       0.10000000 </v>
   <v>       0.29166667      -0.26666667       0.10000000 </v>
   <v>       0.33333333      -0.26666667       0.10000000 </v>
   <v>       0.37500000      -0.26666667       0.10000000 </v>
   <v>       0.41666667      -0.26666667       0.10000000 </v>
   <v>       0.45833333      -0.26666667       0.10000000 </v>
   <v>       0.50000000      -0.26666667       0.10000000 </v>
   <v>      -0.45833333      -0.26666667       0.10000000 </v>
   <v>      -0.41666667      -0.26666667       0.10000000 </v>
   <v>      -0.37500000      -0.26666667       0.10000000 </v>
   <v>      -0.33333333      -0.26666667       0.10000000 </v>
   <v>      -0.29166667      -0.26666667       0.10000000 </v>
   <v>      -0.25000000      -0.26666667       0.10000000 </v>
   <v>      -0.20833333      -0.26666667       0.10000000 </v>
   <v>      -0.16666667      -0.26666667       0.10000000 </v>
   <v>      -0.12500000      -0.26666667       0.10000000 </v>
   <v>      -0.08333333      -0.26666667       0.10000000 </v>
   <v>      -0.04166667      -0.26666667       0.10000000 </v>
   <v>       0.00000000      -0.20000000       0.10000000 </v>
   <v>       0.04166667      -0.20000000       0.10000000 </v>
   <v>       0.08333333      -0.20000000       0.10000000 </v>
   <v>       0.12500000      -0.20000000       0.10000000 </v>
   <v>       0.16666667      -0.20000000       0.10000000 </v>
   <v>       0.20833333      -0.20000000       0.10000000 </v>
   <v>       0.25000000      -0.20000000       0.10000000 </v>
   <v>       0.29166667      -0.20000000       0.10000000 </v>
   <v>       0.33333333      -0.20000000       0.10000000 </v>
   <v>       0.37500000      -0.20000000       0.10000000 </v>
   <v>       0.41666667      -0.20000000       0.10000000 </v>
   <v>       0.45833333      -0.20000000       0.10000000 </v>
   <v>       0.50000000      -0.20000000       0.10000000 </v>
   <v>      -0.45833333      -0.20000000       0.10000000 </v>
   <v>      -0.41666667      -0.20000000       0.10000000 </v>
   <v>      -0.37500000      -0.20000000       0.10000000 </v>
   <v>      -0.33333333      -0.20000000       0.10000000 </v>
   <v>      -0.29166667      -0.20000000       0.10000000 </v>
   <v>      -0.25000000      -0.20000000       0.10000000 </v>
   <v>      -0.20833333      -0.20000000       0.10000000 </v>
   <v>      -0.16666667      -0.20000000       0.10000000 </v>
   <v>      -0.12500000      -0.20000000       0.10000000 </v>
   <v>      -0.08333333      -0.20000000       0.10000000 </v>
   <v>      -0.04166667      -0.20000000       0.10000000 </v>
   <v>       0.00000000      -0.13333333       0.10000000 </v>
   <v>       0.04166667      -0.13333333       0.10000000 </v>
   <v>       0.08333333      -0.13333333       0.10000000 </v>
   <v>       0.12500000      -0.13333333       0.10000000 </v>
   <v>       0.16666667      -0.13333333       0.10000000 </v>
   <v>       0.20833333      -0.13333333       0.10000000 </v>
   <v>       0.25000000      -0.13333333       0.10000000 </v>
   <v>       0.29166667      -0.13333333       0.10000000 </v>
   <v>       0.33333333      -0.13333333       0.10000000 </v>
   <v>       0.37500000      -0.13333333       0.10000000 </v>
   <v>       0.41666667      -0.13333333       0.10000000 </v>
   <v>       0.45833333      -0.13333333       0.10000000 </v>
   <v>       0.50000000      -0.13333333       0.10000000 </v>
   <v>      -0.45833333      -0.13333333       0.10000000 </v>
   <v>      -0.41666667      -0.13333333       0.10000000 </v>
   <v>      -0.37500000      -0.13333333       0.10000000 </v>
   <v>      -0.33333333      -0.13333333       0.10000000 </v>
   <v>      -0.29166667      -0.13333333       0.10000000 </v>
   <v>      -0.25000000      -0.13333333       0.10000000 </v>
   <v>      -0.20833333      -0.13333333       0.10000000 </v>
   <v>      -0.16666667      -0.13333333       0.10000000 </v>
   <v>      -0.12500000      -0.13333333       0.10000000 </v>
   <v>      -0.08333333      -0.13333333       0.10000000 </v>
   <v>      -0.04166667      -0.13333333       0.10000000 </v>
   <v>       0.00000000      -0.06666667       0.10000000 </v>
   <v>       0.04166667      -0.06666667       0.10000000 </v>
   <v>       0.08333333      -0.06666667       0.10000000 </v>
   <v>       0.12500000      -0.06666667       0.10000000 </v>
   <v>       0.16666667      -0.06666667       0.10000000 </v>
   <v>       0.20833333      -0.06666667       0.10000000 </v>
   <v>       0.25000000      -0.06666667       0.10000000 </v>
   <v>       0.29166667      -0.06666667       0.10000000 </v>
   <v>       0.33333333      -0.06666667       0.10000000 </v>
   <v>       0.37500000      -0.06666667       0.10000000 </v>
   <v>       0.41666667      -0.06666667       0.10000000 </v>
   <v>       0.45833333      -0.06666667       0.10000000 </v>
   <v>       0.50000000      -0.06666667       0.10000000 </v>
   <v>      -0.45833333      -0.06666667       0.10000000 </v>
   <v>      -0.41666667      -0.06666667       0.10000000 </v>
   <v>      -0.37500000      -0.06666667       0.10000000 </v>
   <v>      -0.33333333      -0.06666667       0.10000000 </v>
   <v>      -0.29166667      -0.06666667       0.10000000 </v>
   <v>      -0.25000000      -0.06666667       0.10000000 </v>
   <v>      -0.20833333      -0.06666667       0.10000000 </v>
   <v>      -0.16666667      -0.06666667       0.10000000 </v>
   <v>      -0.12500000      -0.06666667       0.10000000 </v>
   <v>      -0.08333333      -0.06666667       0.10000000 </v>
   <v>      -0.04166667      -0.06666667       0.10000000 </v>
   <v>       0.00000000       0.00000000       0.20000000 </v>
   <v>       0.04166667       0.00000000       0.20000000 </v>
   <v>       0.08333333       0.00000000       0.20000000 </v>
   <v>       0.12500000       0.00000000       0.20000000 </v>
   <v>       0.16666667       0.00000000       0.20000000 </v>
   <v>       0.20833333       0.00000000       0.20000000 </v>
   <v>       0.25000000       0.00000000       0.20000000 </v>
   <v>       0.29166667       0.00000000       0.20000000 </v>
   <v>       0.33333333       0.00000000       0.20000000 </v>
   <v>       0.37500000       0.00000000       0.20000000 </v>
   <v>       0.41666667       0.00000000       0.20000000 </v>
   <v>       0.45833333       0.00000000       0.20000000 </v>
   <v>       0.50000000       0.00000000       0.20000000 </v>
   <v>      -0.45833333       0.00000000       0.20000000 </v>
   <v>      -0.41666667       0.00000000       0.20000000 </v>
   <v>      -0.37500000       0.00000000       0.20000000 </v>
   <v>      -0.33333333       0.00000000       0.20000000 </v>
   <v>      -0.29166667       0.00000000       0.20000000 </v>
   <v>      -0.25000000       0.00000000       0.20000000 </v>
   <v>      -0.20833333       0.00000000       0.20000000 </v>
   <v>      -0.16666667       0.00000000       0.20000000 </v>
   <v>      -0.12500000       0.00000000       0.20000000 </v>
   <v>      -0.08333333       0.00000000       0.20000000 </v>
   <v>      -0.04166667       0.00000000       0.20000000 </v>
   <v>       0.00000000       0.06666667       0.20000000 </v>
   <v>       0.04166667       0.06666667       0.20000000 </v>
   <v>       0.08333333       0.06666667       0.20000000 </v>
   <v>       0.12500000       0.06666667       0.20000000 </v>
   <v>       0.16666667       0.06666667       0.20000000 </v>
   <v>       0.20833333       0.06666667       0.20000000 </v>
   <v>       0.25000000       0.06666667       0.20000000 </v>
   <v>       0.29166667       0.06666667       0.20000000 </v>
   <v>       0.33333333       0.06666667       0.20000000 </v>
   <v>       0.37500000       0.06666667       0.20000000 </v>
   <v>       0.41666667       0.06666667       0.20000000 </v>
   <v>       0.45833333       0.06666667       0.20000000 </v>
   <v>       0.50000000       0.06666667       0.20000000 </v>
   <v>      -0.45833333       0.06666667       0.20000000 </v>
   <v>      -0.41666667       0.06666667       0.20000000 </v>
   <v>      -0.37500000       0.06666667       0.20000000 </v>
   <v>      -0.33333333       0.06666667       0.20000000 </v>
   <v>      -0.29166667       0.06666667       0.20000000 </v>
   <v>      -0.25000000       0.06666667       0.20000000 </v>
   <v>      -0.20833333       0.06666667       0.20000000 </v>
   <v>      -0.16666667       0.06666667       0.20000000 </v>
   <v>      -0.12500000       0.06666667       0.20000000 </v>
   <v>      -0.08333333       0.06666667       0.20000000 </v>
   <v>      -0.04166667       0.06666667       0.20000000 </v>
   <v>       0.00000000       0.13333333       0.20000000 </v>
   <v>       0.04166667       0.13333333       0.20000000 </v>
   <v>       0.08333333       0.13333333       0.20000000 </v>
   <v>       0.12500000       0.13333333       0.20000000 </v>
   <v>       0.16666667       0.13333333       0.20000000 </v>
   <v>       0.20833333       0.13333333       0.20000000 </v>
   <v>       0.25000000       0.13333333       0.20000000 </v>
   <v>       0.29166667       0.13333333       0.20000000 </v>
   <v>       0.33333333       0.13333333       0.20000000 </v>
   <v>       0.37500000       0.13333333       0.20000000 </v>
   <v>       0.41666667       0.13333333       0.20000000 </v>
   <v>       0.45833333       0.13333333       0.20000000 </v>
   <v>       0.50000000       0.13333333       0.20000000 </v>
   <v>      -0.45833333       0.13333333       0.20000000 </v>
   <v>      -0.41666667       0.13333333       0.20000000 </v>
   <v>      -0.37500000       0.13333333       0.20000000 </v>
   <v>      -0.33333333       0.13333333       0.20000000 </v>
   <v>      -0.29166667       0.13333333       0.20000000 </v>
   <v>      -0.25000000       0.13333333       0.20000000 </v>
   <v>      -0.20833333       0.13333333       0.20000000 </v>
   <v>      -0.16666667       0.13333333       0.20000000 </v>
   <v>      -0.12500000       0.13333333       0.20000000 </v>
   <v>      -0.08333333       0.13333333       0.20000000 </v>
   <v>      -0.04166667       0.13333333       0.20000000 </v>
   <v>       0.00000000       0.20000000       0.20000000 </v>
   <v>       0.04166667       0.20000000       0.20000000 </v>
   <v>       0.08333333       0.20000000       0.20000000 </v>
   <v>       0.12500000       0.20000000       0.20000000 </v>
   <v>       0.16666667       0.20000000       0.20000000 </v>
   <v>       0.20833333       0.20000000       0.20000000 </v>
   <v>       0.25000000       0.20000000       0.20000000 </v>
   <v>       0.29166667       0.20000000       0.20000000 </v>
   <v>       0.33333333       0.20000000       0.20000000 </v>
   <v>       0.37500000       0.20000000       0.20000000 </v>
   <v>       0.41666667       0.20000000       0.20000000 </v>
   <v>       0.45833333       0.20000000       0.20000000 </v>
   <v>       0.50000000       0.20000000       0.20000000 </v>
   <v>      -0.45833333       0.20000000       0.20000000 </v>
   <v>      -0.41666667       0.20000000       0.20000000 </v>
   <v>      -0.37500000       0.20000000       0.20000000 </v>
   <v>      -0.33333333       0.20000000       0.20000000 </v>
   <v>      -0.29166667       0.20000000       0.20000000 </v>
   <v>      -0.25000000       0.20000000       0.20000000 </v>
   <v>      -0.20833333       0.20000000       0.20000000 </v>
   <v>      -0.16666667       0.20000000       0.20000000 </v>
   <v>      -0.12500000       0.20000000       0.20000000 </v>
   <v>      -0.08333333       0.20000000       0.20000000 </v>
   <v>      -0.04166667       0.20000000       0.20000000 </v>
   <v>       0.00000000       0.26666667       0.20000000 </v>
   <v>       0.04166667       0.26666667       0.20000000 </v>
   <v>       0.08333333       0.26666667       0.20000000 </v>
   <v>       0.12500000       0.26666667       0.20000000 </v>
   <v>       0.16666667       0.26666667       0.20000000 </v>
   <v>       0.20833333       0.26666667       0.20000000 </v>
   <v>       0.25000000       0.26666667       0.20000000 </v>
   <v>       0.29166667       0.26666667       0.20000000 </v>
   <v>       0.33333333       0.26666667       0.20000000 </v>
   <v>       0.37500000       0.26666667       0.20000000 </v>
   <v>       0.41666667       0.26666667       0.20000000 </v>
   <v>       0.45833333       0.26666667       0.20000000 </v>
   <v>       0.50000000       0.26666667       0.20000000 </v>
   <v>      -0.45833333       0.26666667       0.20000000 </v>
   <v>      -0.41666667       0.26666667       0.20000000 </v>
   <v>      -0.37500000       0.26666667       0.20000000 </v>
   <v>      -0.33333333       0.26666667       0.20000000 </v>
   <v>      -0.29166667       0.26666667       0.20000000 </v>
   <v>      -0.25000000       0.26666667       0.20000000 </v>
   <v>      -0.20833333       0.26666667       0.20000000 </v>
   <v>      -0.16666667       0.26666667       0.20000000 </v>
   <v>      -0.12500000       0.26666667       0.20000000 </v>
   <v>      -0.08333333       0.26666667       0.20000000 </v>
   <v>      -0.04166667       0.26666667       0.20000000 </v>
   <v>       0.00000000       0.33333333       0.20000000 </v>
   <v>       0.04166667       0.33333333       0.20000000 </v>
   <v>       0.08333333       0.33333333       0.20000000 </v>
   <v>       0.12500000       0.33333333       0.20000000 </v>
   <v>       0.16666667       0.33333333       0.20000000 </v>
   <v>       0.20833333       0.33333333       0.20000000 </v>
   <v>       0.25000000       0.33333333       0.20000000 </v>
   <v>       0.29166667       0.33333333       0.20000000 </v>
   <v>       0.33333333       0.33333333       0.20000000 </v>
   <v>       0.37500000       0.33333333       0.20000000 </v>
   <v>       0.41666667       0.33333333       0.20000000 </v>
   <v>       0.45833333       0.33333333       0.20000000 </v>
   <v>       0.50000000       0.33333333       0.20000000 </v>
   <v>      -0.45833333       0.33333333       0.20000000 </v>
   <v>      -0.41666667       0.33333333       0.20000000 </v>
   <v>      -0.37500000       0.33333333       0.20000000 </v>
   <v>      -0.33333333       0.33333333       0.20000000 </v>
   <v>      -0.29166667       0.33333333       0.20000000 </v>
   <v>      -0.25000000       0.33333333       0.20000000 </v>
   <v>      -0.20833333       0.33333333       0.20000000 </v>
   <v>      -0.16666667       0.33333333       0.20000000 </v>
   <v>      -0.12500000       0.33333333       0.20000000 </v>
   <v>      -0.08333333       0.33333333       0.20000000 </v>
   <v>      -0.04166667       0.33333333       0.20000000 </v>
   <v>       0.00000000       0.40000000       0.20000000 </v>
   <v>       0.04166667       0.40000000       0.20000000 </v>
   <v>       0.08333333       0.40000000       0.20000000 </v>
   <v>       0.12500000       0.40000000       0.20000000 </v>
   <v>       0.16666667       0.40000000       0.20000000 </v>
   <v>       0.20833333       0.40000000       0.20000000 </v>
   <v>       0.25000000       0.40000000       0.20000000 </v>
   <v>       0.29166667       0.40000000       0.20000000 </v>
   <v>       0.33333333       0.40000000       0.20000000 </v>
   <v>       0.37500000       0.40000000       0.20000000 </v>
   <v>       0.41666667       0.40000000       0.20000000 </v>
   <v>       0.45833333       0.40000000       0.20000000 </v>
   <v>       0.50000000       0.40000000       0.20000000 </v>
   <v>      -0.45833333       0.40000000       0.20000000 </v>
   <v>      -0.41666667       0.40000000       0.20000000 </v>
   <v>      -0.37500000       0.40000000       0.20000000 </v>
   <v>      -0.33333333       0.40000000       0.20000000 </v>
   <v>      -0.29166667       0.40000000       0.20000000 </v>
   <v>      -0.25000000       0.40000000       0.20000000 </v>
   <v>      -0.20833333       0.40000000       0.20000000 </v>
   <v>      -0.16666667       0.40000000       0.20000000 </v>
   <v>      -0.12500000       0.40000000       0.20000000 </v>
   <v>      -0.08333333       0.40000000       0.20000000 </v>
   <v>      -0.04166667       0.40000000       0.20000000 </v>
   <v>       0.00000000       0.46666667       0.20000000 </v>
   <v>       0.04166667       0.46666667       0.20000000 </v>
   <v>       0.08333333       0.46666667       0.20000000 </v>
   <v>       0.12500000       0.46666667       0.20000000 </v>
   <v>       0.16666667       0.46666667       0.20000000 </v>
   <v>       0.20833333       0.46666667       0.20000000 </v>
   <v>       0.25000000       0.46666667       0.20000000 </v>
   <v>       0.29166667       0.46666667       0.20000000 </v>
   <v>       0.33333333       0.46666667       0.20000000 </v>
   <v>       0.37500000       0.46666667       0.20000000 </v>
   <v>       0.41666667       0.46666667       0.20000000 </v>
   <v>       0.45833333       0.46666667       0.20000000 </v>
   <v>       0.50000000       0.46666667       0.20000000 </v>
   <v>      -0.45833333       0.46666667       0.20000000 </v>
   <v>      -0.41666667       0.46666667       0.20000000 </v>
   <v>      -0.37500000       0.46666667       0.20000000 </v>
   <v>      -0.33333333       0.46666667       0.20000000 </v>
   <v>      -0.29166667       0.46666667       0.20000000 </v>
   <v>      -0.25000000       0.46666667       0.20000000 </v>
   <v>      -0.20833333       0.46666667       0.20000000 </v>
   <v>      -0.16666667       0.46666667       0.20000000 </v>
   <v>      -0.12500000       0.46666667       0.20000000 </v>
   <v>      -0.08333333       0.46666667       0.20000000 </v>
   <v>      -0.04166667       0.46666667       0.20000000 </v>
   <v>       0.00000000      -0.46666667       0.20000000 </v>
   <v>       0.04166667      -0.46666667       0.20000000 </v>
   <v>       0.08333333      -0.46666667       0.20000000 </v>
   <v>       0.12500000      -0.46666667       0.20000000 </v>
   <v>       0.16666667      -0.46666667       0.20000000 </v>
   <v>       0.20833333      -0.46666667       0.20000000 </v>
   <v>       0.25000000      -0.46666667       0.20000000 </v>
   <v>       0.29166667      -0.46666667       0.20000000 </v>
   <v>       0.33333333      -0.46666667       0.20000000 </v>
   <v>       0.37500000      -0.46666667       0.20000000 </v>
   <v>       0.41666667      -0.46666667       0.20000000 </v>
   <v>       0.45833333      -0.46666667       0.20000000 </v>
   <v>       0.50000000      -0.46666667       0.20000000 </v>
   <v>      -0.45833333      -0.46666667       0.20000000 </v>
   <v>      -0.41666667      -0.46666667       0.20000000 </v>
   <v>      -0.37500000      -0.46666667       0.20000000 </v>
   <v>      -0.33333333      -0.46666667       0.20000000 </v>
   <v>      -0.29166667      -0.46666667       0.20000000 </v>
   <v>      -0.25000000      -0.46666667       0.20000000 </v>
   <v>      -0.20833333      -0.46666667       0.20000000 </v>
   <v>      -0.16666667      -0.46666667       0.20000000 </v>
   <v>      -0.12500000      -0.46666667       0.20000000 </v>
   <v>      -0.08333333      -0.46666667       0.20000000 </v>
   <v>      -0.04166667      -0.46666667       0.20000000 </v>
   <v>       0.00000000      -0.40000000       0.20000000 </v>
   <v>       0.04166667      -0.40000000       0.20000000 </v>
   <v>       0.08333333      -0.40000000       0.20000000 </v>
   <v>       0.12500000      -0.40000000       0.20000000 </v>
   <v>       0.16666667      -0.40000000       0.20000000 </v>
   <v>       0.20833333      -0.40000000       0.20000000 </v>
   <v>       0.25000000      -0.40000000       0.20000000 </v>
   <v>       0.29166667      -0.40000000       0.20000000 </v>
   <v>       0.33333333      -0.40000000       0.20000000 </v>
   <v>       0.37500000      -0.40000000       0.20000000 </v>
   <v>       0.41666667      -0.40000000       0.20000000 </v>
   <v>       0.45833333      -0.40000000       0.20000000 </v>
   <v>       0.50000000      -0.40000000       0.20000000 </v>
   <v>      -0.45833333      -0.40000000       0.20000000 </v>
   <v>      -0.41666667      -0.40000000       0.20000000 </v>
   <v>      -0.37500000      -0.40000000       0.20000000 </v>
   <v>      -0.33333333      -0.40000000       0.20000000 </v>
   <v>      -0.29166667      -0.40000000       0.20000000 </v>
   <v>      -0.25000000      -0.40000000       0.20000000 </v>
   <v>      -0.20833333      -0.40000000       0.20000000 </v>
   <v>      -0.16666667      -0.40000000       0.20000000 </v>
   <v>      -0.12500000      -0.40000000       0.20000000 </v>
   <v>      -0.08333333      -0.40000000       0.20000000 </v>
   <v>      -0.04166667      -0.40000000       0.20000000 </v>
   <v>       0.00000000      -0.33333333       0.20000000 </v>
   <v>       0.04166667      -0.33333333       0.20000000 </v>
   <v>       0.08333333      -0.33333333       0.20000000 </v>
   <v>       0.12500000      -0.33333333       0.20000000 </v>
   <v>       0.16666667      -0.33333333       0.20000000 </v>
   <v>       0.20833333      -0.33333333       0.20000000 </v>
   <v>       0.25000000      -0.33333333       0.20000000 </v>
   <v>       0.29166667      -0.33333333       0.20000000 </v>
   <v>       0.33333333      -0.33333333       0.20000000 </v>
   <v>       0.37500000      -0.33333333       0.20000000 </v>
   <v>       0.41666667      -0.33333333       0.20000000 </v>
   <v>       0.45833333      -0.33333333       0.20000000 </v>
   <v>       0.50000000      -0.33333333       0.20000000 </v>
   <v>      -0.45833333      -0.33333333       0.20000000 </v>
   <v>      -0.41666667      -0.33333333       0.20000000 </v>
   <v>      -0.37500000      -0.33333333       0.20000000 </v>
   <v>      -0.33333333      -0.33333333       0.20000000 </v>
   <v>      -0.29166667      -0.33333333       0.20000000 </v>
   <v>      -0.25000000      -0.33333333       0.20000000 </v>
   <v>      -0.20833333      -0.33333333       0.20000000 </v>
   <v>      -0.16666667      -0.33333333       0.20000000 </v>
   <v>      -0.12500000      -0.33333333       0.20000000 </v>
   <v>      -0.08333333      -0.33333333       0.20000000 </v>
   <v>      -0.04166667      -0.33333333       0.20000000 </v>
   <v>       0.00000000      -0.26666667       0.20000000 </v>
   <v>       0.04166667      -0.26666667       0.20000000 </v>
   <v>       0.08333333      -0.26666667       0.20000000 </v>
   <v>       0.12500000      -0.26666667       0.20000000 </v>
   <v>       0.16666667      -0.26666667       0.20000000 </v>
   <v>       0.20833333      -0.26666667       0.20000000 </v>
   <v>       0.25000000      -0.26666667       0.20000000 </v>
   <v>       0.29166667      -0.26666667       0.20000000 </v>
   <v>       0.33333333      -0.26666667       0.20000000 </v>
   <v>       0.37500000      -0.26666667       0.20000000 </v>
   <v>       0.41666667      -0.26666667       0.20000000 </v>
   <v>       0.45833333      -0.26666667       0.20000000 </v>
   <v>       0.50000000      -0.26666667       0.20000000 </v>
   <v>      -0.45833333      -0.26666667       0.20000000 </v>
   <v>      -0.41666667      -0.26666667       0.20000000 </v>
   <v>      -0.37500000      -0.26666667       0.20000000 </v>
   <v>      -0.33333333      -0.26666667       0.20000000 </v>
   <v>      -0.29166667      -0.26666667       0.20000000 </v>
   <v>      -0.25000000      -0.26666667       0.20000000 </v>
   <v>      -0.20833333      -0.26666667       0.20000000 </v>
   <v>      -0.16666667      -0.26666667       0.20000000 </v>
   <v>      -0.12500000      -0.26666667       0.20000000 </v>
   <v>      -0.08333333      -0.26666667       0.20000000 </v>
   <v>      -0.04166667      -0.26666667       0.20000000 </v>
   <v>       0.00000000      -0.20000000       0.20000000 </v>
   <v>       0.04166667      -0.20000000       0.20000000 </v>
   <v>       0.08333333      -0.20000000       0.20000000 </v>
   <v>       0.12500000      -0.20000000       0.20000000 </v>
   <v>       0.16666667      -0.20000000       0.20000000 </v>
   <v>       0.20833333      -0.20000000       0.20000000 </v>
   <v>       0.25000000      -0.20000000       0.20000000 </v>
   <v>       0.29166667      -0.20000000       0.20000000 </v>
   <v>       0.33333333      -0.20000000       0.20000000 </v>
   <v>       0.37500000      -0.20000000       0.20000000 </v>
   <v>       0.41666667      -0.20000000       0.20000000 </v>
   <v>       0.45833333      -0.20000000       0.20000000 </v>
   <v>       0.50000000      -0.20000000       0.20000000 </v>
   <v>      -0.45833333      -0.20000000       0.20000000 </v>
   <v>      -0.41666667      -0.20000000       0.20000000 </v>
   <v>      -0.37500000      -0.20000000       0.20000000 </v>
   <v>      -0.33333333      -0.20000000       0.20000000 </v>
   <v>      -0.29166667      -0.20000000       0.20000000 </v>
   <v>      -0.25000000      -0.20000000       0.20000000 </v>
   <v>      -0.20833333      -0.20000000       0.20000000 </v>
   <v>      -0.16666667      -0.20000000       0.20000000 </v>
   <v>      -0.12500000      -0.20000000       0.20000000 </v>
   <v>      -0.08333333      -0.20000000       0.20000000 </v>
   <v>      -0.04166667      -0.20000000       0.20000000 </v>
   <v>       0.00000000      -0.13333333       0.20000000 </v>
   <v>       0.04166667      -0.13333333       0.20000000 </v>
   <v>       0.08333333      -0.13333333       0.20000000 </v>
   <v>       0.12500000      -0.13333333       0.20000000 </v>
   <v>       0.16666667      -0.13333333       0.20000000 </v>
   <v>       0.20833333      -0.13333333       0.20000000 </v>
   <v>       0.25000000      -0.13333333       0.20000000 </v>
   <v>       0.29166667      -0.13333333       0.20000000 </v>
   <v>       0.33333333      -0.13333333       0.20000000 </v>
   <v>       0.37500000      -0.13333333       0.20000000 </v>
   <v>       0.41666667      -0.13333333       0.20000000 </v>
   <v>       0.45833333      -0.13333333       0.20000000 </v>
   <v>       0.50000000      -0.13333333       0.20000000 </v>
   <v>      -0.45833333      -0.13333333       0.20000000 </v>
   <v>      -0.41666667      -0.13333333       0.20000000 </v>
   <v>      -0.37500000      -0.13333333       0.20000000 </v>
   <v>      -0.33333333      -0.13333333       0.20000000 </v>
   <v>      -0.29166667      -0.13333333       0.20000000 </v>
   <v>      -0.25000000      -0.13333333       0.20000000 </v>
   <v>      -0.20833333      -0.13333333       0.20000000 </v>
   <v>      -0.16666667      -0.13333333       0.20000000 </v>
   <v>      -0.12500000      -0.13333333       0.20000000 </v>
   <v>      -0.08333333      -0.13333333       0.20000000 </v>
   <v>      -0.04166667      -0.13333333       0.20000000 </v>
   <v>       0.00000000      -0.06666667       0.20000000 </v>
   <v>       0.04166667      -0.06666667       0.20000000 </v>
   <v>       0.08333333      -0.06666667       0.20000000 </v>
   <v>       0.12500000      -0.06666667       0.20000000 </v>
   <v>       0.16666667      -0.06666667       0.20000000 </v>
   <v>       0.20833333      -0.06666667       0.20000000 </v>
   <v>       0.25000000      -0.06666667       0.20000000 </v>
   <v>       0.29166667      -0.06666667       0.20000000 </v>
   <v>       0.33333333      -0.06666667       0.20000000 </v>
   <v>       0.37500000      -0.06666667       0.20000000 </v>
   <v>       0.41666667      -0.06666667       0.20000000 </v>
   <v>       0.45833333      -0.06666667       0.20000000 </v>
   <v>       0.50000000      -0.06666667       0.20000000 </v>
   <v>      -0.45833333      -0.06666667       0.20000000 </v>
   <v>      -0.41666667      -0.06666667       0.20000000 </v>
   <v>      -0.37500000      -0.06666667       0.20000000 </v>
   <v>      -0.33333333      -0.06666667       0.20000000 </v>
   <v>      -0.29166667      -0.06666667       0.20000000 </v>
   <v>      -0.25000000      -0.06666667       0.20000000 </v>
   <v>      -0.20833333      -0.06666667       0.20000000 </v>
   <v>      -0.16666667      -0.06666667       0.20000000 </v>
   <v>      -0.12500000      -0.06666667       0.20000000 </v>
   <v>      -0.08333333      -0.06666667       0.20000000 </v>
   <v>      -0.04166667      -0.06666667       0.20000000 </v>
   <v>       0.00000000       0.00000000       0.30000000 </v>
   <v>       0.04166667       0.00000000       0.30000000 </v>
   <v>       0.08333333       0.00000000       0.30000000 </v>
   <v>       0.12500000       0.00000000       0.30000000 </v>
   <v>       0.16666667       0.00000000       0.30000000 </v>
   <v>       0.20833333       0.00000000       0.30000000 </v>
   <v>       0.25000000       0.00000000       0.30000000 </v>
   <v>       0.29166667       0.00000000       0.30000000 </v>
   <v>       0.33333333       0.00000000       0.30000000 </v>
   <v>       0.37500000       0.00000000       0.30000000 </v>
   <v>       0.41666667       0.00000000       0.30000000 </v>
   <v>       0.45833333       0.00000000       0.30000000 </v>
   <v>      -0.45833333       0.00000000       0.30000000 </v>
   <v>      -0.41666667       0.00000000       0.30000000 </v>
   <v>      -0.37500000       0.00000000       0.30000000 </v>
   <v>      -0.33333333       0.00000000       0.30000000 </v>
   <v>      -0.29166667       0.00000000       0.30000000 </v>
   <v>      -0.25000000       0.00000000       0.30000000 </v>
   <v>      -0.20833333       0.00000000       0.30000000 </v>
   <v>      -0.16666667       0.00000000       0.30000000 </v>
   <v>      -0.12500000       0.00000000       0.30000000 </v>
   <v>      -0.08333333       0.00000000       0.30000000 </v>
   <v>      -0.04166667       0.00000000       0.30000000 </v>
   <v>       0.00000000       0.06666667       0.30000000 </v>
   <v>       0.04166667       0.06666667       0.30000000 </v>
   <v>       0.08333333       0.06666667       0.30000000 </v>
   <v>       0.12500000       0.06666667       0.30000000 </v>
   <v>       0.16666667       0.06666667       0.30000000 </v>
   <v>       0.20833333       0.06666667       0.30000000 </v>
   <v>       0.25000000       0.06666667       0.30000000 </v>
   <v>       0.29166667       0.06666667       0.30000000 </v>
   <v>       0.33333333       0.06666667       0.30000000 </v>
   <v>       0.37500000       0.06666667       0.30000000 </v>
   <v>       0.41666667       0.06666667       0.30000000 </v>
   <v>       0.45833333       0.06666667       0.30000000 </v>
   <v>      -0.45833333       0.06666667       0.30000000 </v>
   <v>      -0.41666667       0.06666667       0.30000000 </v>
   <v>      -0.37500000       0.06666667       0.30000000 </v>
   <v>      -0.33333333       0.06666667       0.30000000 </v>
   <v>      -0.29166667       0.06666667       0.30000000 </v>
   <v>      -0.25000000       0.06666667       0.30000000 </v>
   <v>      -0.20833333       0.06666667       0.30000000 </v>
   <v>      -0.16666667       0.06666667       0.30000000 </v>
   <v>      -0.12500000       0.06666667       0.30000000 </v>
   <v>      -0.08333333       0.06666667       0.30000000 </v>
   <v>      -0.04166667       0.06666667       0.30000000 </v>
   <v>       0.00000000       0.13333333       0.30000000 </v>
   <v>       0.04166667       0.13333333       0.30000000 </v>
   <v>       0.08333333       0.13333333       0.30000000 </v>
   <v>       0.12500000       0.13333333       0.30000000 </v>
   <v>       0.16666667       0.13333333       0.30000000 </v>
   <v>       0.20833333       0.13333333       0.30000000 </v>
   <v>       0.25000000       0.13333333       0.30000000 </v>
   <v>       0.29166667       0.13333333       0.30000000 </v>
   <v>       0.33333333       0.13333333       0.30000000 </v>
   <v>       0.37500000       0.13333333       0.30000000 </v>
   <v>       0.41666667       0.13333333       0.30000000 </v>
   <v>       0.45833333       0.13333333       0.30000000 </v>
   <v>      -0.45833333       0.13333333       0.30000000 </v>
   <v>      -0.41666667       0.13333333       0.30000000 </v>
   <v>      -0.37500000       0.13333333       0.30000000 </v>
   <v>      -0.33333333       0.13333333       0.30000000 </v>
   <v>      -0.29166667       0.13333333       0.30000000 </v>
   <v>      -0.25000000       0.13333333       0.30000000 </v>
   <v>      -0.20833333       0.13333333       0.30000000 </v>
   <v>      -0.16666667       0.13333333       0.30000000 </v>
   <v>      -0.12500000       0.13333333       0.30000000 </v>
   <v>      -0.08333333       0.13333333       0.30000000 </v>
   <v>      -0.04166667       0.13333333       0.30000000 </v>
   <v>       0.00000000       0.20000000       0.30000000 </v>
   <v>       0.04166667       0.20000000       0.30000000 </v>
   <v>       0.08333333       0.20000000       0.30000000 </v>
   <v>       0.12500000       0.20000000       0.30000000 </v>
   <v>       0.16666667       0.20000000       0.30000000 </v>
   <v>       0.20833333       0.20000000       0.30000000 </v>
   <v>       0.25000000       0.20000000       0.30000000 </v>
   <v>       0.29166667       0.20000000       0.30000000 </v>
   <v>       0.33333333       0.20000000       0.30000000 </v>
   <v>       0.37500000       0.20000000       0.30000000 </v>
   <v>       0.41666667       0.20000000       0.30000000 </v>
   <v>       0.45833333       0.20000000       0.30000000 </v>
   <v>      -0.45833333       0.20000000       0.30000000 </v>
   <v>      -0.41666667       0.20000000       0.30000000 </v>
   <v>      -0.37500000       0.20000000       0.30000000 </v>
   <v>      -0.33333333       0.20000000       0.30000000 </v>
   <v>      -0.29166667       0.20000000       0.30000000 </v>
   <v>      -0.25000000       0.20000000       0.30000000 </v>
   <v>      -0.20833333       0.20000000       0.30000000 </v>
   <v>      -0.16666667       0.20000000       0.30000000 </v>
   <v>      -0.12500000       0.20000000       0.30000000 </v>
   <v>      -0.08333333       0.20000000       0.30000000 </v>
   <v>      -0.04166667       0.20000000       0.30000000 </v>
   <v>       0.00000000       0.26666667       0.30000000 </v>
   <v>       0.04166667       0.26666667       0.30000000 </v>
   <v>       0.08333333       0.26666667       0.30000000 </v>
   <v>       0.12500000       0.26666667       0.30000000 </v>
   <v>       0.16666667       0.26666667       0.30000000 </v>
   <v>       0.20833333       0.26666667       0.30000000 </v>
   <v>       0.25000000       0.26666667       0.30000000 </v>
   <v>       0.29166667       0.26666667       0.30000000 </v>
   <v>       0.33333333       0.26666667       0.30000000 </v>
   <v>       0.37500000       0.26666667       0.30000000 </v>
   <v>       0.41666667       0.26666667       0.30000000 </v>
   <v>       0.45833333       0.26666667       0.30000000 </v>
   <v>      -0.45833333       0.26666667       0.30000000 </v>
   <v>      -0.41666667       0.26666667       0.30000000 </v>
   <v>      -0.37500000       0.26666667       0.30000000 </v>
   <v>      -0.33333333       0.26666667       0.30000000 </v>
   <v>      -0.29166667       0.26666667       0.30000000 </v>
   <v>      -0.25000000       0.26666667       0.30000000 </v>
   <v>      -0.20833333       0.26666667       0.30000000 </v>
   <v>      -0.16666667       0.26666667       0.30000000 </v>
   <v>      -0.12500000       0.26666667       0.30000000 </v>
   <v>      -0.08333333       0.26666667       0.30000000 </v>
   <v>      -0.04166667       0.26666667       0.30000000 </v>
   <v>       0.00000000       0.33333333       0.30000000 </v>
   <v>       0.04166667       0.33333333       0.30000000 </v>
   <v>       0.08333333       0.33333333       0.30000000 </v>
   <v>       0.12500000       0.33333333       0.30000000 </v>
   <v>       0.16666667       0.33333333       0.30000000 </v>
   <v>       0.20833333       0.33333333       0.30000000 </v>
   <v>       0.25000000       0.33333333       0.30000000 </v>
   <v>       0.29166667       0.33333333       0.30000000 </v>
   <v>       0.33333333       0.33333333       0.30000000 </v>
   <v>       0.37500000       0.33333333       0.30000000 </v>
   <v>       0.41666667       0.33333333       0.30000000 </v>
   <v>       0.45833333       0.33333333       0.30000000 </v>
   <v>      -0.45833333       0.33333333       0.30000000 </v>
   <v>      -0.41666667       0.33333333       0.30000000 </v>
   <v>      -0.37500000       0.33333333       0.30000000 </v>
   <v>      -0.33333333       0.33333333       0.30000000 </v>
   <v>      -0.29166667       0.33333333       0.30000000 </v>
   <v>      -0.25000000       0.33333333       0.30000000 </v>
   <v>      -0.20833333       0.33333333       0.30000000 </v>
   <v>      -0.16666667       0.33333333       0.30000000 </v>
   <v>      -0.12500000       0.33333333       0.30000000 </v>
   <v>      -0.08333333       0.33333333       0.30000000 </v>
   <v>      -0.04166667       0.33333333       0.30000000 </v>
   <v>       0.00000000       0.40000000       0.30000000 </v>
   <v>       0.04166667       0.40000000       0.30000000 </v>
   <v>       0.08333333       0.40000000       0.30000000 </v>
   <v>       0.12500000       0.40000000       0.30000000 </v>
   <v>       0.16666667       0.40000000       0.30000000 </v>
   <v>       0.20833333       0.40000000       0.30000000 </v>
   <v>       0.25000000       0.40000000       0.30000000 </v>
   <v>       0.29166667       0.40000000       0.30000000 </v>
   <v>       0.33333333       0.40000000       0.30000000 </v>
   <v>       0.37500000       0.40000000       0.30000000 </v>
   <v>       0.41666667       0.40000000       0.30000000 </v>
   <v>       0.45833333       0.40000000       0.30000000 </v>
   <v>      -0.45833333       0.40000000       0.30000000 </v>
   <v>      -0.41666667       0.40000000       0.30000000 </v>
   <v>      -0.37500000       0.40000000       0.30000000 </v>
   <v>      -0.33333333       0.40000000       0.30000000 </v>
   <v>      -0.29166667       0.40000000       0.30000000 </v>
   <v>      -0.25000000       0.40000000       0.30000000 </v>
   <v>      -0.20833333       0.40000000       0.30000000 </v>
   <v>      -0.16666667       0.40000000       0.30000000 </v>
   <v>      -0.12500000       0.40000000       0.30000000 </v>
   <v>      -0.08333333       0.40000000       0.30000000 </v>
   <v>      -0.04166667       0.40000000       0.30000000 </v>
   <v>       0.00000000       0.46666667       0.30000000 </v>
   <v>       0.04166667       0.46666667       0.30000000 </v>
   <v>       0.08333333       0.46666667       0.30000000 </v>
   <v>       0.12500000       0.46666667       0.30000000 </v>
   <v>       0.16666667       0.46666667       0.30000000 </v>
   <v>       0.20833333       0.46666667       0.30000000 </v>
   <v>       0.25000000       0.46666667       0.30000000 </v>
   <v>       0.29166667       0.46666667       0.30000000 </v>
   <v>       0.33333333       0.46666667       0.30000000 </v>
   <v>       0.37500000       0.46666667       0.30000000 </v>
   <v>       0.41666667       0.46666667       0.30000000 </v>
   <v>       0.45833333       0.46666667       0.30000000 </v>
   <v>      -0.45833333       0.46666667       0.30000000 </v>
   <v>      -0.41666667       0.46666667       0.30000000 </v>
   <v>      -0.37500000       0.46666667       0.30000000 </v>
   <v>      -0.33333333       0.46666667       0.30000000 </v>
   <v>      -0.29166667       0.46666667       0.30000000 </v>
   <v>      -0.25000000       0.46666667       0.30000000 </v>
   <v>      -0.20833333       0.46666667       0.30000000 </v>
   <v>      -0.16666667       0.46666667       0.30000000 </v>
   <v>      -0.12500000       0.46666667       0.30000000 </v>
   <v>      -0.08333333       0.46666667       0.30000000 </v>
   <v>      -0.04166667       0.46666667       0.30000000 </v>
   <v>       0.00000000      -0.46666667       0.30000000 </v>
   <v>       0.04166667      -0.46666667       0.30000000 </v>
   <v>       0.08333333      -0.46666667       0.30000000 </v>
   <v>       0.12500000      -0.46666667       0.30000000 </v>
   <v>       0.16666667      -0.46666667       0.30000000 </v>
   <v>       0.20833333      -0.46666667       0.30000000 </v>
   <v>       0.25000000      -0.46666667       0.30000000 </v>
   <v>       0.29166667      -0.46666667       0.30000000 </v>
   <v>       0.33333333      -0.46666667       0.30000000 </v>
   <v>       0.37500000      -0.46666667       0.30000000 </v>
   <v>       0.41666667      -0.46666667       0.30000000 </v>
   <v>       0.45833333      -0.46666667       0.30000000 </v>
   <v>      -0.45833333      -0.46666667       0.30000000 </v>
   <v>      -0.41666667      -0.46666667       0.30000000 </v>
   <v>      -0.37500000      -0.46666667       0.30000000 </v>
   <v>      -0.33333333      -0.46666667       0.30000000 </v>
   <v>      -0.29166667      -0.46666667       0.30000000 </v>
   <v>      -0.25000000      -0.46666667       0.30000000 </v>
   <v>      -0.20833333      -0.46666667       0.30000000 </v>
   <v>      -0.16666667      -0.46666667       0.30000000 </v>
   <v>      -0.12500000      -0.46666667       0.30000000 </v>
   <v>      -0.08333333      -0.46666667       0.30000000 </v>
   <v>      -0.04166667      -0.46666667       0.30000000 </v>
   <v>       0.00000000      -0.40000000       0.30000000 </v>
   <v>       0.04166667      -0.40000000       0.30000000 </v>
   <v>       0.08333333      -0.40000000       0.30000000 </v>
   <v>       0.12500000      -0.40000000       0.30000000 </v>
   <v>       0.16666667      -0.40000000       0.30000000 </v>
   <v>       0.20833333      -0.40000000       0.30000000 </v>
   <v>       0.25000000      -0.40000000       0.30000000 </v>
   <v>       0.29166667      -0.40000000       0.30000000 </v>
   <v>       0.33333333      -0.40000000       0.30000000 </v>
   <v>       0.37500000      -0.40000000       0.30000000 </v>
   <v>       0.41666667      -0.40000000       0.30000000 </v>
   <v>       0.45833333      -0.40000000       0.30000000 </v>
   <v>      -0.45833333      -0.40000000       0.30000000 </v>
   <v>      -0.41666667      -0.40000000       0.30000000 </v>
   <v>      -0.37500000      -0.40000000       0.30000000 </v>
   <v>      -0.33333333      -0.40000000       0.30000000 </v>
   <v>      -0.29166667      -0.40000000       0.30000000 </v>
   <v>      -0.25000000      -0.40000000       0.30000000 </v>
   <v>      -0.20833333      -0.40000000       0.30000000 </v>
   <v>      -0.16666667      -0.40000000       0.30000000 </v>
   <v>      -0.12500000      -0.40000000       0.30000000 </v>
   <v>      -0.08333333      -0.40000000       0.30000000 </v>
   <v>      -0.04166667      -0.40000000       0.30000000 </v>
   <v>       0.00000000      -0.33333333       0.30000000 </v>
   <v>       0.04166667      -0.33333333       0.30000000 </v>
   <v>       0.08333333      -0.33333333       0.30000000 </v>
   <v>       0.12500000      -0.33333333       0.30000000 </v>
   <v>       0.16666667      -0.33333333       0.30000000 </v>
   <v>       0.20833333      -0.33333333       0.30000000 </v>
   <v>       0.25000000      -0.33333333       0.30000000 </v>
   <v>       0.29166667      -0.33333333       0.30000000 </v>
   <v>       0.33333333      -0.33333333       0.30000000 </v>
   <v>       0.37500000      -0.33333333       0.30000000 </v>
   <v>       0.41666667      -0.33333333       0.30000000 </v>
   <v>       0.45833333      -0.33333333       0.30000000 </v>
   <v>      -0.45833333      -0.33333333       0.30000000 </v>
   <v>      -0.41666667      -0.33333333       0.30000000 </v>
   <v>      -0.37500000      -0.33333333       0.30000000 </v>
   <v>      -0.33333333      -0.33333333       0.30000000 </v>
   <v>      -0.29166667      -0.33333333       0.30000000 </v>
   <v>      -0.25000000      -0.33333333       0.30000000 </v>
   <v>      -0.20833333      -0.33333333       0.30000000 </v>
   <v>      -0.16666667      -0.33333333       0.30000000 </v>
   <v>      -0.12500000      -0.33333333       0.30000000 </v>
   <v>      -0.08333333      -0.33333333       0.30000000 </v>
   <v>      -0.04166667      -0.33333333       0.30000000 </v>
   <v>       0.00000000      -0.26666667       0.30000000 </v>
   <v>       0.04166667      -0.26666667       0.30000000 </v>
   <v>       0.08333333      -0.26666667       0.30000000 </v>
   <v>       0.12500000      -0.26666667       0.30000000 </v>
   <v>       0.16666667      -0.26666667       0.30000000 </v>
   <v>       0.20833333      -0.26666667       0.30000000 </v>
   <v>       0.25000000      -0.26666667       0.30000000 </v>
   <v>       0.29166667      -0.26666667       0.30000000 </v>
   <v>       0.33333333      -0.26666667       0.30000000 </v>
   <v>       0.37500000      -0.26666667       0.30000000 </v>
   <v>       0.41666667      -0.26666667       0.30000000 </v>
   <v>       0.45833333      -0.26666667       0.30000000 </v>
   <v>      -0.45833333      -0.26666667       0.30000000 </v>
   <v>      -0.41666667      -0.26666667       0.30000000 </v>
   <v>      -0.37500000      -0.26666667       0.30000000 </v>
   <v>      -0.33333333      -0.26666667       0.30000000 </v>
   <v>      -0.29166667      -0.26666667       0.30000000 </v>
   <v>      -0.25000000      -0.26666667       0.30000000 </v>
   <v>      -0.20833333      -0.26666667       0.30000000 </v>
   <v>      -0.16666667      -0.26666667       0.30000000 </v>
   <v>      -0.12500000      -0.26666667       0.30000000 </v>
   <v>      -0.08333333      -0.26666667       0.30000000 </v>
   <v>      -0.04166667      -0.26666667       0.30000000 </v>
   <v>       0.00000000      -0.20000000       0.30000000 </v>
   <v>       0.04166667      -0.20000000       0.30000000 </v>
   <v>       0.08333333      -0.20000000       0.30000000 </v>
   <v>       0.12500000      -0.20000000       0.30000000 </v>
   <v>       0.16666667      -0.20000000       0.30000000 </v>
   <v>       0.20833333      -0.20000000       0.30000000 </v>
   <v>       0.25000000      -0.20000000       0.30000000 </v>
   <v>       0.29166667      -0.20000000       0.30000000 </v>
   <v>       0.33333333      -0.20000000       0.30000000 </v>
   <v>       0.37500000      -0.20000000       0.30000000 </v>
   <v>       0.41666667      -0.20000000       0.30000000 </v>
   <v>       0.45833333      -0.20000000       0.30000000 </v>
   <v>      -0.45833333      -0.20000000       0.30000000 </v>
   <v>      -0.41666667      -0.20000000       0.30000000 </v>
   <v>      -0.37500000      -0.20000000       0.30000000 </v>
   <v>      -0.33333333      -0.20000000       0.30000000 </v>
   <v>      -0.29166667      -0.20000000       0.30000000 </v>
   <v>      -0.25000000      -0.20000000       0.30000000 </v>
   <v>      -0.20833333      -0.20000000       0.30000000 </v>
   <v>      -0.16666667      -0.20000000       0.30000000 </v>
   <v>      -0.12500000      -0.20000000       0.30000000 </v>
   <v>      -0.08333333      -0.20000000       0.30000000 </v>
   <v>      -0.04166667      -0.20000000       0.30000000 </v>
   <v>       0.00000000      -0.13333333       0.30000000 </v>
   <v>       0.04166667      -0.13333333       0.30000000 </v>
   <v>       0.08333333      -0.13333333       0.30000000 </v>
   <v>       0.12500000      -0.13333333       0.30000000 </v>
   <v>       0.16666667      -0.13333333       0.30000000 </v>
   <v>       0.20833333      -0.13333333       0.30000000 </v>
   <v>       0.25000000      -0.13333333       0.30000000 </v>
   <v>       0.29166667      -0.13333333       0.30000000 </v>
   <v>       0.33333333      -0.13333333       0.30000000 </v>
   <v>       0.37500000      -0.13333333       0.30000000 </v>
   <v>       0.41666667      -0.13333333       0.30000000 </v>
   <v>       0.45833333      -0.13333333       0.30000000 </v>
   <v>      -0.45833333      -0.13333333       0.30000000 </v>
   <v>      -0.41666667      -0.13333333       0.30000000 </v>
   <v>      -0.37500000      -0.13333333       0.30000000 </v>
   <v>      -0.33333333      -0.13333333       0.30000000 </v>
   <v>      -0.29166667      -0.13333333       0.30000000 </v>
   <v>      -0.25000000      -0.13333333       0.30000000 </v>
   <v>      -0.20833333      -0.13333333       0.30000000 </v>
   <v>      -0.16666667      -0.13333333       0.30000000 </v>
   <v>      -0.12500000      -0.13333333       0.30000000 </v>
   <v>      -0.08333333      -0.13333333       0.30000000 </v>
   <v>      -0.04166667      -0.13333333       0.30000000 </v>
   <v>       0.00000000      -0.06666667       0.30000000 </v>
   <v>       0.04166667      -0.06666667       0.30000000 </v>
   <v>       0.08333333      -0.06666667       0.30000000 </v>
   <v>       0.12500000      -0.06666667       0.30000000 </v>
   <v>       0.16666667      -0.06666667       0.30000000 </v>
   <v>       0.20833333      -0.06666667       0.30000000 </v>
   <v>       0.25000000      -0.06666667       0.30000000 </v>
   <v>       0.29166667      -0.06666667       0.30000000 </v>
   <v>       0.33333333      -0.06666667       0.30000000 </v>
   <v>       0.37500000      -0.06666667       0.30000000 </v>
   <v>       0.41666667      -0.06666667       0.30000000 </v>
   <v>       0.45833333      -0.06666667       0.30000000 </v>
   <v>      -0.45833333      -0.06666667       0.30000000 </v>
   <v>      -0.41666667      -0.06666667       0.30000000 </v>
   <v>      -0.37500000      -0.06666667       0.30000000 </v>
   <v>      -0.33333333      -0.06666667       0.30000000 </v>
   <v>      -0.29166667      -0.06666667       0.30000000 </v>
   <v>      -0.25000000      -0.06666667       0.30000000 </v>
   <v>      -0.20833333      -0.06666667       0.30000000 </v>
[...]
       <r>    4.8577    1.0000 </r>
       <r>    4.9264    1.0000 </r>
       <r>    4.9777    1.0000 </r>
       <r>    5.1857    1.0000 </r>
       <r>    5.2699    1.0000 </r>
       <r>    5.4303    1.0000 </r>
       <r>    5.5858    1.0000 </r>
       <r>    5.6480    1.0000 </r>
       <r>    5.7200    1.0000 </r>
       <r>    5.9049    1.0000 </r>
       <r>    5.9896    1.0000 </r>
       <r>    6.2784    1.0000 </r>
       <r>    7.0983    1.0000 </r>
       <r>    9.3867    0.0000 </r>
       <r>   10.1637    0.0000 </r>
       <r>   13.4665    0.0000 </r>
       <r>   15.5799    0.0000 </r>
       <r>   17.0318    0.0000 </r>
       <r>   18.2152    0.0000 </r>
      </set>
      <set comment="kpoint 1763">
       <r>    0.9807    1.0000 </r>
       <r>    1.6556    1.0000 </r>
       <r>    2.2655    1.0000 </r>
       <r>    2.4190    1.0000 </r>
       <r>    2.7707    1.0000 </r>
       <r>    2.8879    1.0000 </r>
       <r>    2.9403    1.0000 </r>
       <r>    3.1057    1.0000 </r>
       <r>    3.3653    1.0000 </r>
       <r>    3.4212    1.0000 </r>
       <r>    3.6244    1.0000 </r>
       <r>    3.6594    1.0000 </r>
       <r>    3.7589    1.0000 </r>
       <r>    4.0100    1.0000 </r>
       <r>    4.0702    1.0000 </r>
       <r>    4.0934    1.0000 </r>
       <r>    4.1941    1.0000 </r>
       <r>    4.2310    1.0000 </r>
       <r>    4.3151    1.0000 </r>
       <r>    4.3440    1.0000 </r>
       <r>    4.6859    1.0000 </r>
       <r>    4.8208    1.0000 </r>
       <r>    4.9499    1.0000 </r>
       <r>    5.0244    1.0000 </r>
       <r>    5.1419    1.0000 </r>
       <r>    5.2670    1.0000 </r>
       <r>    5.3823    1.0000 </r>
       <r>    5.5202    1.0000 </r>
       <r>    5.5919    1.0000 </r>
       <r>    5.6772    1.0000 </r>
       <r>    5.7954    1.0000 </r>
       <r>    5.8251    1.0000 </r>
       <r>    6.1350    1.0000 </r>
       <r>    6.6937    1.0000 </r>
       <r>    9.3884    0.0000 </r>
       <r>    9.8242    0.0000 </r>
       <r>   13.6249    0.0000 </r>
       <r>   15.3338    0.0000 </r>
       <r>   16.9717    0.0000 </r>
       <r>   18.3043    0.0000 </r>
      </set>
      <set comment="kpoint 1764">
       <r>    0.8569    1.0000 </r>
       <r>    1.5591    1.0000 </r>
       <r>    2.2028    1.0000 </r>
       <r>    2.3055    1.0000 </r>
       <r>    2.7430    1.0000 </r>
       <r>    2.8169    1.0000 </r>
       <r>    2.9064    1.0000 </r>
       <r>    2.9968    1.0000 </r>
       <r>    3.4615    1.0000 </r>
       <r>    3.5289    1.0000 </r>
       <r>    3.7471    1.0000 </r>
       <r>    3.8058    1.0000 </r>
       <r>    3.8906    1.0000 </r>
       <r>    4.0314    1.0000 </r>
       <r>    4.0382    1.0000 </r>
       <r>    4.1213    1.0000 </r>
       <r>    4.2295    1.0000 </r>
       <r>    4.2461    1.0000 </r>
       <r>    4.3317    1.0000 </r>
       <r>    4.4912    1.0000 </r>
       <r>    4.6262    1.0000 </r>
       <r>    4.7116    1.0000 </r>
       <r>    4.9390    1.0000 </r>
       <r>    5.0504    1.0000 </r>
       <r>    5.1076    1.0000 </r>
       <r>    5.3088    1.0000 </r>
       <r>    5.3962    1.0000 </r>
       <r>    5.4780    1.0000 </r>
       <r>    5.5303    1.0000 </r>
       <r>    5.6400    1.0000 </r>
       <r>    5.7079    1.0000 </r>
       <r>    5.8272    1.0000 </r>
       <r>    6.0119    1.0000 </r>
       <r>    6.3215    1.0000 </r>
       <r>    9.4357    0.0000 </r>
       <r>    9.5630    0.0000 </r>
       <r>   13.8143    0.0000 </r>
       <r>   15.0840    0.0000 </r>
       <r>   16.9450    0.0000 </r>
       <r>   18.2563    0.0000 </r>
      </set>
     </set>
    </set>
   </array>
  </eigenvalues>
  <separator name="orbital magnetization" >
   <v name="MAGDIPOLOUT">      0.00000000      0.00000000      0.00000000</v>
  </separator>
  <dos>
   <i name="efermi">      8.40382301 </i>
   <total>
    <array>
     <dimension dim="1">gridpoints</dimension>
     <dimension dim="2">spin</dimension>
     <field>energy</field>
     <field>total</field>
     <field>integrated</field>
     <set>
      <set comment="spin 1">
       <r>    -3.4491     0.0000     0.0000 </r>
       <r>    -3.3650     0.0000     0.0000 </r>
       <r>    -3.2808     0.0000     0.0000 </r>
       <r>    -3.1966     0.0000     0.0000 </r>
       <r>    -3.1125     0.0000     0.0000 </r>
       <r>    -3.0283     0.0000     0.0000 </r>
       <r>    -2.9441     0.0000     0.0000 </r>
       <r>    -2.8600     0.0000     0.0000 </r>
       <r>    -2.7758     0.0000     0.0000 </r>
       <r>    -2.6916     0.0000     0.0000 </r>
       <r>    -2.6074     0.0000     0.0000 </r>
       <r>    -2.5233     0.0000     0.0000 </r>
       <r>    -2.4391     0.0000     0.0000 </r>
       <r>    -2.3549     0.0000     0.0000 </r>
       <r>    -2.2708     0.0000     0.0000 </r>
       <r>    -2.1866     0.0000     0.0000 </r>
       <r>    -2.1024     0.0000     0.0000 </r>
       <r>    -2.0182     0.0000     0.0000 </r>
       <r>    -1.9341     0.0000     0.0000 </r>
       <r>    -1.8499     0.0000     0.0000 </r>
       <r>    -1.7657     0.0000     0.0000 </r>
       <r>    -1.6816     0.0000     0.0000 </r>
       <r>    -1.5974     0.0000     0.0000 </r>
       <r>    -1.5132     0.0000     0.0000 </r>
       <r>    -1.4290     0.0000     0.0000 </r>
       <r>    -1.3449     0.0000     0.0000 </r>
       <r>    -1.2607     0.0000     0.0000 </r>
       <r>    -1.1765    -0.0001     0.0000 </r>
       <r>    -1.0924    -0.0004     0.0000 </r>
       <r>    -1.0082    -0.0011    -0.0001 </r>
       <r>    -0.9240    -0.0028    -0.0004 </r>
       <r>    -0.8399    -0.0054    -0.0008 </r>
       <r>    -0.7557    -0.0081    -0.0015 </r>
       <r>    -0.6715    -0.0075    -0.0021 </r>
       <r>    -0.5873     0.0020    -0.0020 </r>
       <r>    -0.5032     0.0269     0.0003 </r>
       <r>    -0.4190     0.0702     0.0062 </r>
       <r>    -0.3348     0.1291     0.0171 </r>
       <r>    -0.2507     0.1962     0.0336 </r>
       <r>    -0.1665     0.2632     0.0557 </r>
       <r>    -0.0823     0.3255     0.0831 </r>
       <r>     0.0019     0.3823     0.1153 </r>
       <r>     0.0860     0.4339     0.1518 </r>
       <r>     0.1702     0.4793     0.1922 </r>
       <r>     0.2544     0.5165     0.2356 </r>
       <r>     0.3385     0.5445     0.2815 </r>
       <r>     0.4227     0.5667     0.3292 </r>
       <r>     0.5069     0.5896     0.3788 </r>
       <r>     0.5910     0.6209     0.4311 </r>
       <r>     0.6752     0.6656     0.4871 </r>
       <r>     0.7594     0.7233     0.5480 </r>
       <r>     0.8436     0.7876     0.6143 </r>
       <r>     0.9277     0.8489     0.6857 </r>
       <r>     1.0119     0.9001     0.7615 </r>
       <r>     1.0961     0.9417     0.8407 </r>
       <r>     1.1802     0.9811     0.9233 </r>
       <r>     1.2644     1.0279     1.0098 </r>
       <r>     1.3486     1.0938     1.1019 </r>
       <r>     1.4328     1.1972     1.2027 </r>
       <r>     1.5169     1.3693     1.3179 </r>
       <r>     1.6011     1.6502     1.4568 </r>
       <r>     1.6853     2.0764     1.6316 </r>
       <r>     1.7694     2.6666     1.8561 </r>
       <r>     1.8536     3.4177     2.1437 </r>
       <r>     1.9378     4.3163     2.5070 </r>
       <r>     2.0219     5.3571     2.9580 </r>
       <r>     2.1061     6.5487     3.5092 </r>
       <r>     2.1903     7.8886     4.1731 </r>
       <r>     2.2745     9.3211     4.9577 </r>
       <r>     2.3586    10.7213     5.8601 </r>
       <r>     2.4428    11.9340     6.8646 </r>
       <r>     2.5270    12.8379     7.9452 </r>
       <r>     2.6111    13.3760     9.0711 </r>
       <r>     2.6953    13.5362    10.2104 </r>
       <r>     2.7795    13.3216    11.3317 </r>
       <r>     2.8637    12.7650    12.4061 </r>
       <r>     2.9478    11.9857    13.4150 </r>
       <r>     3.0320    11.2283    14.3601 </r>
       <r>     3.1162    10.8027    15.2693 </r>
       <r>     3.2003    10.9255    16.1889 </r>
       <r>     3.2845    11.5740    17.1631 </r>
       <r>     3.3687    12.4869    18.2142 </r>
       <r>     3.4529    13.3259    19.3358 </r>
       <r>     3.5370    13.8836    20.5044 </r>
       <r>     3.6212    14.1995    21.6996 </r>
       <r>     3.7054    14.5289    22.9225 </r>
       <r>     3.7895    15.1973    24.2017 </r>
       <r>     3.8737    16.4054    25.5825 </r>
       <r>     3.9579    18.0514    27.1019 </r>
       <r>     4.0420    19.6661    28.7572 </r>
       <r>     4.1262    20.5707    30.4887 </r>
       <r>     4.2104    20.2516    32.1933 </r>
       <r>     4.2946    18.7221    33.7691 </r>
       <r>     4.3787    16.5609    35.1631 </r>
       <r>     4.4629    14.5653    36.3891 </r>
       <r>     4.5471    13.2995    37.5085 </r>
       <r>     4.6312    12.8733    38.5920 </r>
       <r>     4.7154    13.0397    39.6896 </r>
       <r>     4.7996    13.4460    40.8214 </r>
       <r>     4.8838    13.8354    41.9859 </r>
       <r>     4.9679    14.0978    43.1725 </r>
       <r>     5.0521    14.1969    44.3675 </r>
       <r>     5.1363    14.0879    45.5533 </r>
       <r>     5.2204    13.7284    46.7088 </r>
       <r>     5.3046    13.1697    47.8173 </r>
       <r>     5.3888    12.6153    48.8791 </r>
       <r>     5.4729    12.3530    49.9189 </r>
       <r>     5.5571    12.5885    50.9785 </r>
       <r>     5.6413    13.3049    52.0984 </r>
       <r>     5.7255    14.2466    53.2975 </r>
       <r>     5.8096    15.0306    54.5626 </r>
       <r>     5.8938    15.3168    55.8519 </r>
       <r>     5.9780    14.9581    57.1109 </r>
       <r>     6.0621    14.0483    58.2933 </r>
       <r>     6.1463    12.8214    59.3725 </r>
       <r>     6.2305    11.4648    60.3375 </r>
       <r>     6.3147    10.0044    61.1796 </r>
       <r>     6.3988     8.3676    61.8839 </r>
       <r>     6.4830     6.5535    62.4355 </r>
       <r>     6.5672     4.7337    62.8340 </r>
       <r>     6.6513     3.1881    63.1023 </r>
       <r>     6.7355     2.1371    63.2822 </r>
       <r>     6.8197     1.6140    63.4180 </r>
       <r>     6.9038     1.4715    63.5419 </r>
       <r>     6.9880     1.4971    63.6679 </r>
       <r>     7.0722     1.5384    63.7974 </r>
       <r>     7.1564     1.5495    63.9278 </r>
       <r>     7.2405     1.5553    64.0587 </r>
       <r>     7.3247     1.5852    64.1922 </r>
       <r>     7.4089     1.6360    64.3299 </r>
       <r>     7.4930     1.6772    64.4710 </r>
       <r>     7.5772     1.6820    64.6126 </r>
       <r>     7.6614     1.6509    64.7516 </r>
       <r>     7.7456     1.6120    64.8872 </r>
       <r>     7.8297     1.6000    65.0219 </r>
       <r>     7.9139     1.6323    65.1593 </r>
       <r>     7.9981     1.6957    65.3020 </r>
       <r>     8.0822     1.7540    65.4497 </r>
       <r>     8.1664     1.7728    65.5989 </r>
       <r>     8.2506     1.7424    65.7455 </r>
       <r>     8.3348     1.6831    65.8872 </r>
       <r>     8.4189     1.6296    66.0244 </r>
       <r>     8.5031     1.6096    66.1599 </r>
       <r>     8.5873     1.6301    66.2971 </r>
       <r>     8.6714     1.6765    66.4382 </r>
       <r>     8.7556     1.7230    66.5832 </r>
       <r>     8.8398     1.7471    66.7303 </r>
       <r>     8.9239     1.7398    66.8767 </r>
       <r>     9.0081     1.7058    67.0203 </r>
       <r>     9.0923     1.6569    67.1597 </r>
       <r>     9.1765     1.6082    67.2951 </r>
       <r>     9.2606     1.5782    67.4279 </r>
       <r>     9.3448     1.5848    67.5613 </r>
       <r>     9.4290     1.6328    67.6988 </r>
       <r>     9.5131     1.7027    67.8421 </r>
       <r>     9.5973     1.7573    67.9900 </r>
       <r>     9.6815     1.7646    68.1385 </r>
       <r>     9.7657     1.7209    68.2834 </r>
       <r>     9.8498     1.6537    68.4226 </r>
       <r>     9.9340     1.6035    68.5575 </r>
       <r>    10.0182     1.5962    68.6919 </r>
       <r>    10.1023     1.6244    68.8286 </r>
       <r>    10.1865     1.6539    68.9678 </r>
       <r>    10.2707     1.6512    69.1068 </r>
       <r>    10.3548     1.6105    69.2424 </r>
       <r>    10.4390     1.5550    69.3732 </r>
       <r>    10.5232     1.5128    69.5006 </r>
       <r>    10.6074     1.4921    69.6262 </r>
       <r>    10.6915     1.4785    69.7506 </r>
       <r>    10.7757     1.4513    69.8728 </r>
       <r>    10.8599     1.4050    69.9910 </r>
       <r>    10.9440     1.3599    70.1055 </r>
       <r>    11.0282     1.3520    70.2193 </r>
       <r>    11.1124     1.4104    70.3380 </r>
       <r>    11.1966     1.5366    70.4674 </r>
       <r>    11.2807     1.7027    70.6107 </r>
       <r>    11.3649     1.8673    70.7678 </r>
       <r>    11.4491     1.9974    70.9360 </r>
       <r>    11.5332     2.0811    71.1111 </r>
       <r>    11.6174     2.1253    71.2900 </r>
       <r>    11.7016     2.1434    71.4704 </r>
       <r>    11.7857     2.1439    71.6509 </r>
       <r>    11.8699     2.1276    71.8300 </r>
       <r>    11.9541     2.0918    72.0060 </r>
       <r>    12.0383     2.0363    72.1774 </r>
       <r>    12.1224     1.9681    72.3431 </r>
       <r>    12.2066     1.9011    72.5031 </r>
       <r>    12.2908     1.8513    72.6589 </r>
       <r>    12.3749     1.8287    72.8129 </r>
       <r>    12.4591     1.8328    72.9671 </r>
       <r>    12.5433     1.8517    73.1230 </r>
       <r>    12.6275     1.8658    73.2800 </r>
       <r>    12.7116     1.8565    73.4363 </r>
       <r>    12.7958     1.8204    73.5895 </r>
       <r>    12.8800     1.7735    73.7388 </r>
       <r>    12.9641     1.7389    73.8852 </r>
       <r>    13.0483     1.7273    74.0305 </r>
       <r>    13.1325     1.7327    74.1764 </r>
       <r>    13.2167     1.7491    74.3236 </r>
       <r>    13.3008     1.7852    74.4739 </r>
       <r>    13.3850     1.8562    74.6301 </r>
       <r>    13.4692     1.9595    74.7950 </r>
       <r>    13.5533     2.0633    74.9687 </r>
       <r>    13.6375     2.1242    75.1475 </r>
       <r>    13.7217     2.1185    75.3258 </r>
       <r>    13.8058     2.0582    75.4990 </r>
       <r>    13.8900     1.9792    75.6656 </r>
       <r>    13.9742     1.9151    75.8268 </r>
       <r>    14.0584     1.8793    75.9850 </r>
       <r>    14.1425     1.8659    76.1421 </r>
       <r>    14.2267     1.8635    76.2989 </r>
       <r>    14.3109     1.8651    76.4559 </r>
       <r>    14.3950     1.8679    76.6131 </r>
       <r>    14.4792     1.8666    76.7702 </r>
       <r>    14.5634     1.8503    76.9260 </r>
       <r>    14.6476     1.8070    77.0781 </r>
       <r>    14.7317     1.7337    77.2240 </r>
       <r>    14.8159     1.6434    77.3623 </r>
       <r>    14.9001     1.5618    77.4938 </r>
       <r>    14.9842     1.5134    77.6212 </r>
       <r>    15.0684     1.5054    77.7479 </r>
       <r>    15.1526     1.5227    77.8761 </r>
       <r>    15.2367     1.5386    78.0056 </r>
       <r>    15.3209     1.5301    78.1344 </r>
       <r>    15.4051     1.4880    78.2596 </r>
       <r>    15.4893     1.4170    78.3789 </r>
       <r>    15.5734     1.3301    78.4908 </r>
       <r>    15.6576     1.2437    78.5955 </r>
       <r>    15.7418     1.1725    78.6942 </r>
       <r>    15.8259     1.1223    78.7887 </r>
       <r>    15.9101     1.0864    78.8801 </r>
       <r>    15.9943     1.0507    78.9685 </r>
       <r>    16.0785     1.0045    79.0531 </r>
       <r>    16.1626     0.9465    79.1328 </r>
       <r>    16.2468     0.8811    79.2069 </r>
       <r>    16.3310     0.8105    79.2751 </r>
       <r>    16.4151     0.7329    79.3368 </r>
       <r>    16.4993     0.6486    79.3914 </r>
       <r>    16.5835     0.5666    79.4391 </r>
       <r>    16.6677     0.5036    79.4815 </r>
       <r>    16.7518     0.4733    79.5213 </r>
       <r>    16.8360     0.4759    79.5614 </r>
       <r>    16.9202     0.4951    79.6031 </r>
       <r>    17.0043     0.5074    79.6458 </r>
       <r>    17.0885     0.4943    79.6874 </r>
       <r>    17.1727     0.4513    79.7254 </r>
       <r>    17.2568     0.3883    79.7580 </r>
       <r>    17.3410     0.3229    79.7852 </r>
       <r>    17.4252     0.2724    79.8081 </r>
       <r>    17.5094     0.2453    79.8288 </r>
       <r>    17.5935     0.2371    79.8488 </r>
       <r>    17.6777     0.2344    79.8685 </r>
       <r>    17.7619     0.2247    79.8874 </r>
       <r>    17.8460     0.2048    79.9046 </r>
       <r>    17.9302     0.1813    79.9199 </r>
       <r>    18.0144     0.1629    79.9336 </r>
       <r>    18.0986     0.1523    79.9464 </r>
       <r>    18.1827     0.1451    79.9586 </r>
       <r>    18.2669     0.1337    79.9699 </r>
       <r>    18.3511     0.1139    79.9795 </r>
       <r>    18.4352     0.0883    79.9869 </r>
       <r>    18.5194     0.0626    79.9922 </r>
       <r>    18.6036     0.0416    79.9957 </r>
       <r>    18.6877     0.0264    79.9979 </r>
       <r>    18.7719     0.0159    79.9993 </r>
       <r>    18.8561     0.0085    80.0000 </r>
       <r>    18.9403     0.0034    80.0003 </r>
       <r>    19.0244     0.0004    80.0003 </r>
       <r>    19.1086    -0.0008    80.0002 </r>
       <r>    19.1928    -0.0011    80.0001 </r>
       <r>    19.2769    -0.0008    80.0001 </r>
       <r>    19.3611    -0.0004    80.0000 </r>
       <r>    19.4453    -0.0002    80.0000 </r>
       <r>    19.5295    -0.0001    80.0000 </r>
       <r>    19.6136     0.0000    80.0000 </r>
       <r>    19.6978     0.0000    80.0000 </r>
       <r>    19.7820     0.0000    80.0000 </r>
       <r>    19.8661     0.0000    80.0000 </r>
       <r>    19.9503     0.0000    80.0000 </r>
       <r>    20.0345     0.0000    80.0000 </r>
       <r>    20.1186     0.0000    80.0000 </r>
       <r>    20.2028     0.0000    80.0000 </r>
       <r>    20.2870     0.0000    80.0000 </r>
       <r>    20.3712     0.0000    80.0000 </r>
       <r>    20.4553     0.0000    80.0000 </r>
       <r>    20.5395     0.0000    80.0000 </r>
       <r>    20.6237     0.0000    80.0000 </r>
       <r>    20.7078     0.0000    80.0000 </r>
       <r>    20.7920     0.0000    80.0000 </r>
       <r>    20.8762     0.0000    80.0000 </r>
       <r>    20.9604     0.0000    80.0000 </r>
       <r>    21.0445     0.0000    80.0000 </r>
       <r>    21.1287     0.0000    80.0000 </r>
       <r>    21.2129     0.0000    80.0000 </r>
       <r>    21.2970     0.0000    80.0000 </r>
       <r>    21.3812     0.0000    80.0000 </r>
       <r>    21.4654     0.0000    80.0000 </r>
       <r>    21.5496     0.0000    80.0000 </r>
       <r>    21.6337     0.0000    80.0000 </r>
       <r>    21.7179     0.0000    80.0000 </r>
       <r>    21.8021     0.0000    80.0000 </r>
      </set>
     </set>
    </array>
   </total>
  </dos>
 </calculation>
 <structure name="finalpos" >
  <crystal>
   <varray name="basis" >
    <v>      -2.07269254       2.07269254       0.00000000 </v>
    <v>      -2.07565140      -2.07565140       4.15196026 </v>
    <v>       6.22698816       4.15429562       2.07749359 </v>
   </varray>
   <i name="volume">    107.21413116 </i>
   <varray name="rec_basis" >
    <v>      -0.20109870       0.28136552       0.04012705 </v>
    <v>      -0.04016267      -0.04016267       0.20069378 </v>
    <v>       0.08026682       0.08026682       0.08025411 </v>
   </varray>
  </crystal>
  <varray name="positions" >
   <v>       0.49960791       0.49938876       0.99921582 </v>
   <v>       0.83372542       0.16727791       0.66745085 </v>
   <v>       0.99915662       0.99976489       0.99831325 </v>
   <v>       0.16666667       0.83333333       0.33333333 </v>
   <v>       0.33417671       0.66690178       0.66835342 </v>
   <v>       0.66666667       0.33333333       0.33333333 </v>
  </varray>
 </structure>
</modeling>
