<?xml version="1.0" encoding="ISO-8859-1"?>
<modeling>
 <generator>
  <i name="program" type="string">vasp </i>
  <i name="version" type="string">5.3.5  </i>
  <i name="subversion" type="string">31Mar14 (build Jun 20 2014 13:15:13) complex                          parallel </i>
  <i name="platform" type="string">LinuxIFC </i>
  <i name="date" type="string">2025 11 21 </i>
  <i name="time" type="string">11:49:37 </i>
 </generator>
 <incar>
  <i type="string" name="PREC">accurate</i>
  <i type="int" name="IALGO">    68</i>
  <i type="logical" name="ADDGRID"> T  </i>
  <i type="int" name="NELM">   100</i>
  <i type="int" name="NELMIN">     4</i>
  <i type="int" name="IBRION">     2</i>
  <i name="EDIFF">      0.00000100</i>
  <i name="EDIFFG">     -0.02000000</i>
  <i type="int" name="NSW">    30</i>
  <i type="int" name="ISIF">     3</i>
  <i name="ENCUT">    500.00000000</i>
  <i type="logical" name="LREAL"> F  </i>
  <i type="int" name="ISMEAR">     1</i>
  <i name="SIGMA">      0.30000000</i>
  <i type="logical" name="LWAVE"> F  </i>
  <i type="logical" name="LCHARG"> F  </i>
  <i type="int" name="NELM">   100</i>
 </incar>
 <kpoints>
  <generation param="Auto">
   <i name="subdivisionlength">     70.00000000 </i>
   <v type="int" name="divisions">      26       15       11 </v>
   <v name="usershift">      0.00000000       0.00000000       0.00000000 </v>
   <v name="genvec1">      0.03846154       0.00000000       0.00000000 </v>
   <v name="genvec2">      0.00000000       0.06666667       0.00000000 </v>
   <v name="genvec3">      0.00000000       0.00000000       0.09090909 </v>
   <v name="shift">      0.00000000       0.00000000       0.00000000 </v>
  </generation>
  <varray name="kpointlist" >
   <v>       0.00000000       0.00000000       0.00000000 </v>
   <v>       0.03846154       0.00000000       0.00000000 </v>
   <v>       0.07692308       0.00000000       0.00000000 </v>
   <v>       0.11538462       0.00000000       0.00000000 </v>
   <v>       0.15384615       0.00000000       0.00000000 </v>
   <v>       0.19230769       0.00000000       0.00000000 </v>
   <v>       0.23076923       0.00000000       0.00000000 </v>
   <v>       0.26923077       0.00000000       0.00000000 </v>
   <v>       0.30769231       0.00000000       0.00000000 </v>
   <v>       0.34615385       0.00000000       0.00000000 </v>
   <v>       0.38461538       0.00000000       0.00000000 </v>
   <v>       0.42307692       0.00000000       0.00000000 </v>
   <v>       0.46153846       0.00000000       0.00000000 </v>
   <v>       0.50000000       0.00000000       0.00000000 </v>
   <v>       0.00000000       0.06666667       0.00000000 </v>
   <v>       0.03846154       0.06666667       0.00000000 </v>
   <v>       0.07692308       0.06666667       0.00000000 </v>
   <v>       0.11538462       0.06666667       0.00000000 </v>
   <v>       0.15384615       0.06666667       0.00000000 </v>
   <v>       0.19230769       0.06666667       0.00000000 </v>
   <v>       0.23076923       0.06666667       0.00000000 </v>
   <v>       0.26923077       0.06666667       0.00000000 </v>
   <v>       0.30769231       0.06666667       0.00000000 </v>
   <v>       0.34615385       0.06666667       0.00000000 </v>
   <v>       0.38461538       0.06666667       0.00000000 </v>
   <v>       0.42307692       0.06666667       0.00000000 </v>
   <v>       0.46153846       0.06666667       0.00000000 </v>
   <v>       0.50000000       0.06666667       0.00000000 </v>
   <v>      -0.46153846       0.06666667       0.00000000 </v>
   <v>      -0.42307692       0.06666667       0.00000000 </v>
   <v>      -0.38461538       0.06666667       0.00000000 </v>
   <v>      -0.34615385       0.06666667       0.00000000 </v>
   <v>      -0.30769231       0.06666667       0.00000000 </v>
   <v>      -0.26923077       0.06666667       0.00000000 </v>
   <v>      -0.23076923       0.06666667       0.00000000 </v>
   <v>      -0.19230769       0.06666667       0.00000000 </v>
   <v>      -0.15384615       0.06666667       0.00000000 </v>
   <v>      -0.11538462       0.06666667       0.00000000 </v>
   <v>      -0.07692308       0.06666667       0.00000000 </v>
   <v>      -0.03846154       0.06666667       0.00000000 </v>
   <v>       0.00000000       0.13333333       0.00000000 </v>
   <v>       0.03846154       0.13333333       0.00000000 </v>
   <v>       0.07692308       0.13333333       0.00000000 </v>
   <v>       0.11538462       0.13333333       0.00000000 </v>
   <v>       0.15384615       0.13333333       0.00000000 </v>
   <v>       0.19230769       0.13333333       0.00000000 </v>
   <v>       0.23076923       0.13333333       0.00000000 </v>
   <v>       0.26923077       0.13333333       0.00000000 </v>
   <v>       0.30769231       0.13333333       0.00000000 </v>
   <v>       0.34615385       0.13333333       0.00000000 </v>
   <v>       0.38461538       0.13333333       0.00000000 </v>
   <v>       0.42307692       0.13333333       0.00000000 </v>
   <v>       0.46153846       0.13333333       0.00000000 </v>
   <v>       0.50000000       0.13333333       0.00000000 </v>
   <v>      -0.46153846       0.13333333       0.00000000 </v>
   <v>      -0.42307692       0.13333333       0.00000000 </v>
   <v>      -0.38461538       0.13333333       0.00000000 </v>
   <v>      -0.34615385       0.13333333       0.00000000 </v>
   <v>      -0.30769231       0.13333333       0.00000000 </v>
   <v>      -0.26923077       0.13333333       0.00000000 </v>
   <v>      -0.23076923       0.13333333       0.00000000 </v>
   <v>      -0.19230769       0.13333333       0.00000000 </v>
   <v>      -0.15384615       0.13333333       0.00000000 </v>
   <v>      -0.11538462       0.13333333       0.00000000 </v>
   <v>      -0.07692308       0.13333333       0.00000000 </v>
   <v>      -0.03846154       0.13333333       0.00000000 </v>
   <v>       0.00000000       0.20000000       0.00000000 </v>
   <v>       0.03846154       0.20000000       0.00000000 </v>
   <v>       0.07692308       0.20000000       0.00000000 </v>
   <v>       0.11538462       0.20000000       0.00000000 </v>
   <v>       0.15384615       0.20000000       0.00000000 </v>
   <v>       0.19230769       0.20000000       0.00000000 </v>
   <v>       0.23076923       0.20000000       0.00000000 </v>
   <v>       0.26923077       0.20000000       0.00000000 </v>
   <v>       0.30769231       0.20000000       0.00000000 </v>
   <v>       0.34615385       0.20000000       0.00000000 </v>
   <v>       0.38461538       0.20000000       0.00000000 </v>
   <v>       0.42307692       0.20000000       0.00000000 </v>
   <v>       0.46153846       0.20000000       0.00000000 </v>
   <v>       0.50000000       0.20000000       0.00000000 </v>
   <v>      -0.46153846       0.20000000       0.00000000 </v>
   <v>      -0.42307692       0.20000000       0.00000000 </v>
   <v>      -0.38461538       0.20000000       0.00000000 </v>
   <v>      -0.34615385       0.20000000       0.00000000 </v>
   <v>      -0.30769231       0.20000000       0.00000000 </v>
   <v>      -0.26923077       0.20000000       0.00000000 </v>
   <v>      -0.23076923       0.20000000       0.00000000 </v>
   <v>      -0.19230769       0.20000000       0.00000000 </v>
   <v>      -0.15384615       0.20000000       0.00000000 </v>
   <v>      -0.11538462       0.20000000       0.00000000 </v>
   <v>      -0.07692308       0.20000000       0.00000000 </v>
   <v>      -0.03846154       0.20000000       0.00000000 </v>
   <v>       0.00000000       0.26666667       0.00000000 </v>
   <v>       0.03846154       0.26666667       0.00000000 </v>
   <v>       0.07692308       0.26666667       0.00000000 </v>
   <v>       0.11538462       0.26666667       0.00000000 </v>
   <v>       0.15384615       0.26666667       0.00000000 </v>
   <v>       0.19230769       0.26666667       0.00000000 </v>
   <v>       0.23076923       0.26666667       0.00000000 </v>
   <v>       0.26923077       0.26666667       0.00000000 </v>
   <v>       0.30769231       0.26666667       0.00000000 </v>
   <v>       0.34615385       0.26666667       0.00000000 </v>
   <v>       0.38461538       0.26666667       0.00000000 </v>
   <v>       0.42307692       0.26666667       0.00000000 </v>
   <v>       0.46153846       0.26666667       0.00000000 </v>
   <v>       0.50000000       0.26666667       0.00000000 </v>
   <v>      -0.46153846       0.26666667       0.00000000 </v>
   <v>      -0.42307692       0.26666667       0.00000000 </v>
   <v>      -0.38461538       0.26666667       0.00000000 </v>
   <v>      -0.34615385       0.26666667       0.00000000 </v>
   <v>      -0.30769231       0.26666667       0.00000000 </v>
   <v>      -0.26923077       0.26666667       0.00000000 </v>
   <v>      -0.23076923       0.26666667       0.00000000 </v>
   <v>      -0.19230769       0.26666667       0.00000000 </v>
   <v>      -0.15384615       0.26666667       0.00000000 </v>
   <v>      -0.11538462       0.26666667       0.00000000 </v>
   <v>      -0.07692308       0.26666667       0.00000000 </v>
   <v>      -0.03846154       0.26666667       0.00000000 </v>
   <v>       0.00000000       0.33333333       0.00000000 </v>
   <v>       0.03846154       0.33333333       0.00000000 </v>
   <v>       0.07692308       0.33333333       0.00000000 </v>
   <v>       0.11538462       0.33333333       0.00000000 </v>
   <v>       0.15384615       0.33333333       0.00000000 </v>
   <v>       0.19230769       0.33333333       0.00000000 </v>
   <v>       0.23076923       0.33333333       0.00000000 </v>
   <v>       0.26923077       0.33333333       0.00000000 </v>
   <v>       0.30769231       0.33333333       0.00000000 </v>
   <v>       0.34615385       0.33333333       0.00000000 </v>
   <v>       0.38461538       0.33333333       0.00000000 </v>
   <v>       0.42307692       0.33333333       0.00000000 </v>
   <v>       0.46153846       0.33333333       0.00000000 </v>
   <v>       0.50000000       0.33333333       0.00000000 </v>
   <v>      -0.46153846       0.33333333       0.00000000 </v>
   <v>      -0.42307692       0.33333333       0.00000000 </v>
   <v>      -0.38461538       0.33333333       0.00000000 </v>
   <v>      -0.34615385       0.33333333       0.00000000 </v>
   <v>      -0.30769231       0.33333333       0.00000000 </v>
   <v>      -0.26923077       0.33333333       0.00000000 </v>
   <v>      -0.23076923       0.33333333       0.00000000 </v>
   <v>      -0.19230769       0.33333333       0.00000000 </v>
   <v>      -0.15384615       0.33333333       0.00000000 </v>
   <v>      -0.11538462       0.33333333       0.00000000 </v>
   <v>      -0.07692308       0.33333333       0.00000000 </v>
   <v>      -0.03846154       0.33333333       0.00000000 </v>
   <v>       0.00000000       0.40000000       0.00000000 </v>
   <v>       0.03846154       0.40000000       0.00000000 </v>
   <v>       0.07692308       0.40000000       0.00000000 </v>
   <v>       0.11538462       0.40000000       0.00000000 </v>
   <v>       0.15384615       0.40000000       0.00000000 </v>
   <v>       0.19230769       0.40000000       0.00000000 </v>
   <v>       0.23076923       0.40000000       0.00000000 </v>
   <v>       0.26923077       0.40000000       0.00000000 </v>
   <v>       0.30769231       0.40000000       0.00000000 </v>
   <v>       0.34615385       0.40000000       0.00000000 </v>
   <v>       0.38461538       0.40000000       0.00000000 </v>
   <v>       0.42307692       0.40000000       0.00000000 </v>
   <v>       0.46153846       0.40000000       0.00000000 </v>
   <v>       0.50000000       0.40000000       0.00000000 </v>
   <v>      -0.46153846       0.40000000       0.00000000 </v>
   <v>      -0.42307692       0.40000000       0.00000000 </v>
   <v>      -0.38461538       0.40000000       0.00000000 </v>
   <v>      -0.34615385       0.40000000       0.00000000 </v>
   <v>      -0.30769231       0.40000000       0.00000000 </v>
   <v>      -0.26923077       0.40000000       0.00000000 </v>
   <v>      -0.23076923       0.40000000       0.00000000 </v>
   <v>      -0.19230769       0.40000000       0.00000000 </v>
   <v>      -0.15384615       0.40000000       0.00000000 </v>
   <v>      -0.11538462       0.40000000       0.00000000 </v>
   <v>      -0.07692308       0.40000000       0.00000000 </v>
   <v>      -0.03846154       0.40000000       0.00000000 </v>
   <v>       0.00000000       0.46666667       0.00000000 </v>
   <v>       0.03846154       0.46666667       0.00000000 </v>
   <v>       0.07692308       0.46666667       0.00000000 </v>
   <v>       0.11538462       0.46666667       0.00000000 </v>
   <v>       0.15384615       0.46666667       0.00000000 </v>
   <v>       0.19230769       0.46666667       0.00000000 </v>
   <v>       0.23076923       0.46666667       0.00000000 </v>
   <v>       0.26923077       0.46666667       0.00000000 </v>
   <v>       0.30769231       0.46666667       0.00000000 </v>
   <v>       0.34615385       0.46666667       0.00000000 </v>
   <v>       0.38461538       0.46666667       0.00000000 </v>
   <v>       0.42307692       0.46666667       0.00000000 </v>
   <v>       0.46153846       0.46666667       0.00000000 </v>
   <v>       0.50000000       0.46666667       0.00000000 </v>
   <v>      -0.46153846       0.46666667       0.00000000 </v>
   <v>      -0.42307692       0.46666667       0.00000000 </v>
   <v>      -0.38461538       0.46666667       0.00000000 </v>
   <v>      -0.34615385       0.46666667       0.00000000 </v>
   <v>      -0.30769231       0.46666667       0.00000000 </v>
   <v>      -0.26923077       0.46666667       0.00000000 </v>
   <v>      -0.23076923       0.46666667       0.00000000 </v>
   <v>      -0.19230769       0.46666667       0.00000000 </v>
   <v>      -0.15384615       0.46666667       0.00000000 </v>
   <v>      -0.11538462       0.46666667       0.00000000 </v>
   <v>      -0.07692308       0.46666667       0.00000000 </v>
   <v>      -0.03846154       0.46666667       0.00000000 </v>
   <v>       0.00000000       0.00000000       0.09090909 </v>
   <v>       0.03846154       0.00000000       0.09090909 </v>
   <v>       0.07692308       0.00000000       0.09090909 </v>
   <v>       0.11538462       0.00000000       0.09090909 </v>
   <v>       0.15384615       0.00000000       0.09090909 </v>
   <v>       0.19230769       0.00000000       0.09090909 </v>
   <v>       0.23076923       0.00000000       0.09090909 </v>
   <v>       0.26923077       0.00000000       0.09090909 </v>
   <v>       0.30769231       0.00000000       0.09090909 </v>
   <v>       0.34615385       0.00000000       0.09090909 </v>
   <v>       0.38461538       0.00000000       0.09090909 </v>
   <v>       0.42307692       0.00000000       0.09090909 </v>
   <v>       0.46153846       0.00000000       0.09090909 </v>
   <v>       0.50000000       0.00000000       0.09090909 </v>
   <v>      -0.46153846       0.00000000       0.09090909 </v>
   <v>      -0.42307692       0.00000000       0.09090909 </v>
   <v>      -0.38461538       0.00000000       0.09090909 </v>
   <v>      -0.34615385       0.00000000       0.09090909 </v>
   <v>      -0.30769231       0.00000000       0.09090909 </v>
   <v>      -0.26923077       0.00000000       0.09090909 </v>
   <v>      -0.23076923       0.00000000       0.09090909 </v>
   <v>      -0.19230769       0.00000000       0.09090909 </v>
   <v>      -0.15384615       0.00000000       0.09090909 </v>
   <v>      -0.11538462       0.00000000       0.09090909 </v>
   <v>      -0.07692308       0.00000000       0.09090909 </v>
   <v>      -0.03846154       0.00000000       0.09090909 </v>
   <v>       0.00000000       0.06666667       0.09090909 </v>
   <v>       0.03846154       0.06666667       0.09090909 </v>
   <v>       0.07692308       0.06666667       0.09090909 </v>
   <v>       0.11538462       0.06666667       0.09090909 </v>
   <v>       0.15384615       0.06666667       0.09090909 </v>
   <v>       0.19230769       0.06666667       0.09090909 </v>
   <v>       0.23076923       0.06666667       0.09090909 </v>
   <v>       0.26923077       0.06666667       0.09090909 </v>
   <v>       0.30769231       0.06666667       0.09090909 </v>
   <v>       0.34615385       0.06666667       0.09090909 </v>
   <v>       0.38461538       0.06666667       0.09090909 </v>
   <v>       0.42307692       0.06666667       0.09090909 </v>
   <v>       0.46153846       0.06666667       0.09090909 </v>
   <v>       0.50000000       0.06666667       0.09090909 </v>
   <v>      -0.46153846       0.06666667       0.09090909 </v>
   <v>      -0.42307692       0.06666667       0.09090909 </v>
   <v>      -0.38461538       0.06666667       0.09090909 </v>
   <v>      -0.34615385       0.06666667       0.09090909 </v>
   <v>      -0.30769231       0.06666667       0.09090909 </v>
   <v>      -0.26923077       0.06666667       0.09090909 </v>
   <v>      -0.23076923       0.06666667       0.09090909 </v>
   <v>      -0.19230769       0.06666667       0.09090909 </v>
   <v>      -0.15384615       0.06666667       0.09090909 </v>
   <v>      -0.11538462       0.06666667       0.09090909 </v>
   <v>      -0.07692308       0.06666667       0.09090909 </v>
   <v>      -0.03846154       0.06666667       0.09090909 </v>
   <v>       0.00000000       0.13333333       0.09090909 </v>
   <v>       0.03846154       0.13333333       0.09090909 </v>
   <v>       0.07692308       0.13333333       0.09090909 </v>
   <v>       0.11538462       0.13333333       0.09090909 </v>
   <v>       0.15384615       0.13333333       0.09090909 </v>
   <v>       0.19230769       0.13333333       0.09090909 </v>
   <v>       0.23076923       0.13333333       0.09090909 </v>
   <v>       0.26923077       0.13333333       0.09090909 </v>
   <v>       0.30769231       0.13333333       0.09090909 </v>
   <v>       0.34615385       0.13333333       0.09090909 </v>
   <v>       0.38461538       0.13333333       0.09090909 </v>
   <v>       0.42307692       0.13333333       0.09090909 </v>
   <v>       0.46153846       0.13333333       0.09090909 </v>
   <v>       0.50000000       0.13333333       0.09090909 </v>
   <v>      -0.46153846       0.13333333       0.09090909 </v>
   <v>      -0.42307692       0.13333333       0.09090909 </v>
   <v>      -0.38461538       0.13333333       0.09090909 </v>
   <v>      -0.34615385       0.13333333       0.09090909 </v>
   <v>      -0.30769231       0.13333333       0.09090909 </v>
   <v>      -0.26923077       0.13333333       0.09090909 </v>
   <v>      -0.23076923       0.13333333       0.09090909 </v>
   <v>      -0.19230769       0.13333333       0.09090909 </v>
   <v>      -0.15384615       0.13333333       0.09090909 </v>
   <v>      -0.11538462       0.13333333       0.09090909 </v>
   <v>      -0.07692308       0.13333333       0.09090909 </v>
   <v>      -0.03846154       0.13333333       0.09090909 </v>
   <v>       0.00000000       0.20000000       0.09090909 </v>
   <v>       0.03846154       0.20000000       0.09090909 </v>
   <v>       0.07692308       0.20000000       0.09090909 </v>
   <v>       0.11538462       0.20000000       0.09090909 </v>
   <v>       0.15384615       0.20000000       0.09090909 </v>
   <v>       0.19230769       0.20000000       0.09090909 </v>
   <v>       0.23076923       0.20000000       0.09090909 </v>
   <v>       0.26923077       0.20000000       0.09090909 </v>
   <v>       0.30769231       0.20000000       0.09090909 </v>
   <v>       0.34615385       0.20000000       0.09090909 </v>
   <v>       0.38461538       0.20000000       0.09090909 </v>
   <v>       0.42307692       0.20000000       0.09090909 </v>
   <v>       0.46153846       0.20000000       0.09090909 </v>
   <v>       0.50000000       0.20000000       0.09090909 </v>
   <v>      -0.46153846       0.20000000       0.09090909 </v>
   <v>      -0.42307692       0.20000000       0.09090909 </v>
   <v>      -0.38461538       0.20000000       0.09090909 </v>
   <v>      -0.34615385       0.20000000       0.09090909 </v>
   <v>      -0.30769231       0.20000000       0.09090909 </v>
   <v>      -0.26923077       0.20000000       0.09090909 </v>
   <v>      -0.23076923       0.20000000       0.09090909 </v>
   <v>      -0.19230769       0.20000000       0.09090909 </v>
   <v>      -0.15384615       0.20000000       0.09090909 </v>
   <v>      -0.11538462       0.20000000       0.09090909 </v>
   <v>      -0.07692308       0.20000000       0.09090909 </v>
   <v>      -0.03846154       0.20000000       0.09090909 </v>
   <v>       0.00000000       0.26666667       0.09090909 </v>
   <v>       0.03846154       0.26666667       0.09090909 </v>
   <v>       0.07692308       0.26666667       0.09090909 </v>
   <v>       0.11538462       0.26666667       0.09090909 </v>
   <v>       0.15384615       0.26666667       0.09090909 </v>
   <v>       0.19230769       0.26666667       0.09090909 </v>
   <v>       0.23076923       0.26666667       0.09090909 </v>
   <v>       0.26923077       0.26666667       0.09090909 </v>
   <v>       0.30769231       0.26666667       0.09090909 </v>
   <v>       0.34615385       0.26666667       0.09090909 </v>
   <v>       0.38461538       0.26666667       0.09090909 </v>
   <v>       0.42307692       0.26666667       0.09090909 </v>
   <v>       0.46153846       0.26666667       0.09090909 </v>
   <v>       0.50000000       0.26666667       0.09090909 </v>
   <v>      -0.46153846       0.26666667       0.09090909 </v>
   <v>      -0.42307692       0.26666667       0.09090909 </v>
   <v>      -0.38461538       0.26666667       0.09090909 </v>
   <v>      -0.34615385       0.26666667       0.09090909 </v>
   <v>      -0.30769231       0.26666667       0.09090909 </v>
   <v>      -0.26923077       0.26666667       0.09090909 </v>
   <v>      -0.23076923       0.26666667       0.09090909 </v>
   <v>      -0.19230769       0.26666667       0.09090909 </v>
   <v>      -0.15384615       0.26666667       0.09090909 </v>
   <v>      -0.11538462       0.26666667       0.09090909 </v>
   <v>      -0.07692308       0.26666667       0.09090909 </v>
   <v>      -0.03846154       0.26666667       0.09090909 </v>
   <v>       0.00000000       0.33333333       0.09090909 </v>
   <v>       0.03846154       0.33333333       0.09090909 </v>
   <v>       0.07692308       0.33333333       0.09090909 </v>
   <v>       0.11538462       0.33333333       0.09090909 </v>
   <v>       0.15384615       0.33333333       0.09090909 </v>
   <v>       0.19230769       0.33333333       0.09090909 </v>
   <v>       0.23076923       0.33333333       0.09090909 </v>
   <v>       0.26923077       0.33333333       0.09090909 </v>
   <v>       0.30769231       0.33333333       0.09090909 </v>
   <v>       0.34615385       0.33333333       0.09090909 </v>
   <v>       0.38461538       0.33333333       0.09090909 </v>
   <v>       0.42307692       0.33333333       0.09090909 </v>
   <v>       0.46153846       0.33333333       0.09090909 </v>
   <v>       0.50000000       0.33333333       0.09090909 </v>
   <v>      -0.46153846       0.33333333       0.09090909 </v>
   <v>      -0.42307692       0.33333333       0.09090909 </v>
   <v>      -0.38461538       0.33333333       0.09090909 </v>
   <v>      -0.34615385       0.33333333       0.09090909 </v>
   <v>      -0.30769231       0.33333333       0.09090909 </v>
   <v>      -0.26923077       0.33333333       0.09090909 </v>
   <v>      -0.23076923       0.33333333       0.09090909 </v>
   <v>      -0.19230769       0.33333333       0.09090909 </v>
   <v>      -0.15384615       0.33333333       0.09090909 </v>
   <v>      -0.11538462       0.33333333       0.09090909 </v>
   <v>      -0.07692308       0.33333333       0.09090909 </v>
   <v>      -0.03846154       0.33333333       0.09090909 </v>
   <v>       0.00000000       0.40000000       0.09090909 </v>
   <v>       0.03846154       0.40000000       0.09090909 </v>
   <v>       0.07692308       0.40000000       0.09090909 </v>
   <v>       0.11538462       0.40000000       0.09090909 </v>
   <v>       0.15384615       0.40000000       0.09090909 </v>
   <v>       0.19230769       0.40000000       0.09090909 </v>
   <v>       0.23076923       0.40000000       0.09090909 </v>
   <v>       0.26923077       0.40000000       0.09090909 </v>
   <v>       0.30769231       0.40000000       0.09090909 </v>
   <v>       0.34615385       0.40000000       0.09090909 </v>
   <v>       0.38461538       0.40000000       0.09090909 </v>
   <v>       0.42307692       0.40000000       0.09090909 </v>
   <v>       0.46153846       0.40000000       0.09090909 </v>
   <v>       0.50000000       0.40000000       0.09090909 </v>
   <v>      -0.46153846       0.40000000       0.09090909 </v>
   <v>      -0.42307692       0.40000000       0.09090909 </v>
   <v>      -0.38461538       0.40000000       0.09090909 </v>
   <v>      -0.34615385       0.40000000       0.09090909 </v>
   <v>      -0.30769231       0.40000000       0.09090909 </v>
   <v>      -0.26923077       0.40000000       0.09090909 </v>
   <v>      -0.23076923       0.40000000       0.09090909 </v>
   <v>      -0.19230769       0.40000000       0.09090909 </v>
   <v>      -0.15384615       0.40000000       0.09090909 </v>
   <v>      -0.11538462       0.40000000       0.09090909 </v>
   <v>      -0.07692308       0.40000000       0.09090909 </v>
   <v>      -0.03846154       0.40000000       0.09090909 </v>
   <v>       0.00000000       0.46666667       0.09090909 </v>
   <v>       0.03846154       0.46666667       0.09090909 </v>
   <v>       0.07692308       0.46666667       0.09090909 </v>
   <v>       0.11538462       0.46666667       0.09090909 </v>
   <v>       0.15384615       0.46666667       0.09090909 </v>
   <v>       0.19230769       0.46666667       0.09090909 </v>
   <v>       0.23076923       0.46666667       0.09090909 </v>
   <v>       0.26923077       0.46666667       0.09090909 </v>
   <v>       0.30769231       0.46666667       0.09090909 </v>
   <v>       0.34615385       0.46666667       0.09090909 </v>
   <v>       0.38461538       0.46666667       0.09090909 </v>
   <v>       0.42307692       0.46666667       0.09090909 </v>
   <v>       0.46153846       0.46666667       0.09090909 </v>
   <v>       0.50000000       0.46666667       0.09090909 </v>
   <v>      -0.46153846       0.46666667       0.09090909 </v>
   <v>      -0.42307692       0.46666667       0.09090909 </v>
   <v>      -0.38461538       0.46666667       0.09090909 </v>
   <v>      -0.34615385       0.46666667       0.09090909 </v>
   <v>      -0.30769231       0.46666667       0.09090909 </v>
   <v>      -0.26923077       0.46666667       0.09090909 </v>
   <v>      -0.23076923       0.46666667       0.09090909 </v>
   <v>      -0.19230769       0.46666667       0.09090909 </v>
   <v>      -0.15384615       0.46666667       0.09090909 </v>
   <v>      -0.11538462       0.46666667       0.09090909 </v>
   <v>      -0.07692308       0.46666667       0.09090909 </v>
   <v>      -0.03846154       0.46666667       0.09090909 </v>
   <v>       0.00000000      -0.46666667       0.09090909 </v>
   <v>       0.03846154      -0.46666667       0.09090909 </v>
   <v>       0.07692308      -0.46666667       0.09090909 </v>
   <v>       0.11538462      -0.46666667       0.09090909 </v>
   <v>       0.15384615      -0.46666667       0.09090909 </v>
   <v>       0.19230769      -0.46666667       0.09090909 </v>
   <v>       0.23076923      -0.46666667       0.09090909 </v>
   <v>       0.26923077      -0.46666667       0.09090909 </v>
   <v>       0.30769231      -0.46666667       0.09090909 </v>
   <v>       0.34615385      -0.46666667       0.09090909 </v>
   <v>       0.38461538      -0.46666667       0.09090909 </v>
   <v>       0.42307692      -0.46666667       0.09090909 </v>
   <v>       0.46153846      -0.46666667       0.09090909 </v>
   <v>       0.50000000      -0.46666667       0.09090909 </v>
   <v>      -0.46153846      -0.46666667       0.09090909 </v>
   <v>      -0.42307692      -0.46666667       0.09090909 </v>
   <v>      -0.38461538      -0.46666667       0.09090909 </v>
   <v>      -0.34615385      -0.46666667       0.09090909 </v>
   <v>      -0.30769231      -0.46666667       0.09090909 </v>
   <v>      -0.26923077      -0.46666667       0.09090909 </v>
   <v>      -0.23076923      -0.46666667       0.09090909 </v>
   <v>      -0.19230769      -0.46666667       0.09090909 </v>
   <v>      -0.15384615      -0.46666667       0.09090909 </v>
   <v>      -0.11538462      -0.46666667       0.09090909 </v>
   <v>      -0.07692308      -0.46666667       0.09090909 </v>
   <v>      -0.03846154      -0.46666667       0.09090909 </v>
   <v>       0.00000000      -0.40000000       0.09090909 </v>
   <v>       0.03846154      -0.40000000       0.09090909 </v>
   <v>       0.07692308      -0.40000000       0.09090909 </v>
   <v>       0.11538462      -0.40000000       0.09090909 </v>
   <v>       0.15384615      -0.40000000       0.09090909 </v>
   <v>       0.19230769      -0.40000000       0.09090909 </v>
   <v>       0.23076923      -0.40000000       0.09090909 </v>
   <v>       0.26923077      -0.40000000       0.09090909 </v>
   <v>       0.30769231      -0.40000000       0.09090909 </v>
   <v>       0.34615385      -0.40000000       0.09090909 </v>
   <v>       0.38461538      -0.40000000       0.09090909 </v>
   <v>       0.42307692      -0.40000000       0.09090909 </v>
   <v>       0.46153846      -0.40000000       0.09090909 </v>
   <v>       0.50000000      -0.40000000       0.09090909 </v>
   <v>      -0.46153846      -0.40000000       0.09090909 </v>
   <v>      -0.42307692      -0.40000000       0.09090909 </v>
   <v>      -0.38461538      -0.40000000       0.09090909 </v>
   <v>      -0.34615385      -0.40000000       0.09090909 </v>
   <v>      -0.30769231      -0.40000000       0.09090909 </v>
   <v>      -0.26923077      -0.40000000       0.09090909 </v>
   <v>      -0.23076923      -0.40000000       0.09090909 </v>
   <v>      -0.19230769      -0.40000000       0.09090909 </v>
   <v>      -0.15384615      -0.40000000       0.09090909 </v>
   <v>      -0.11538462      -0.40000000       0.09090909 </v>
   <v>      -0.07692308      -0.40000000       0.09090909 </v>
   <v>      -0.03846154      -0.40000000       0.09090909 </v>
   <v>       0.00000000      -0.33333333       0.09090909 </v>
   <v>       0.03846154      -0.33333333       0.09090909 </v>
   <v>       0.07692308      -0.33333333       0.09090909 </v>
   <v>       0.11538462      -0.33333333       0.09090909 </v>
   <v>       0.15384615      -0.33333333       0.09090909 </v>
   <v>       0.19230769      -0.33333333       0.09090909 </v>
   <v>       0.23076923      -0.33333333       0.09090909 </v>
   <v>       0.26923077      -0.33333333       0.09090909 </v>
   <v>       0.30769231      -0.33333333       0.09090909 </v>
   <v>       0.34615385      -0.33333333       0.09090909 </v>
   <v>       0.38461538      -0.33333333       0.09090909 </v>
   <v>       0.42307692      -0.33333333       0.09090909 </v>
   <v>       0.46153846      -0.33333333       0.09090909 </v>
   <v>       0.50000000      -0.33333333       0.09090909 </v>
   <v>      -0.46153846      -0.33333333       0.09090909 </v>
   <v>      -0.42307692      -0.33333333       0.09090909 </v>
   <v>      -0.38461538      -0.33333333       0.09090909 </v>
   <v>      -0.34615385      -0.33333333       0.09090909 </v>
   <v>      -0.30769231      -0.33333333       0.09090909 </v>
   <v>      -0.26923077      -0.33333333       0.09090909 </v>
   <v>      -0.23076923      -0.33333333       0.09090909 </v>
   <v>      -0.19230769      -0.33333333       0.09090909 </v>
   <v>      -0.15384615      -0.33333333       0.09090909 </v>
   <v>      -0.11538462      -0.33333333       0.09090909 </v>
   <v>      -0.07692308      -0.33333333       0.09090909 </v>
   <v>      -0.03846154      -0.33333333       0.09090909 </v>
   <v>       0.00000000      -0.26666667       0.09090909 </v>
   <v>       0.03846154      -0.26666667       0.09090909 </v>
   <v>       0.07692308      -0.26666667       0.09090909 </v>
   <v>       0.11538462      -0.26666667       0.09090909 </v>
   <v>       0.15384615      -0.26666667       0.09090909 </v>
   <v>       0.19230769      -0.26666667       0.09090909 </v>
   <v>       0.23076923      -0.26666667       0.09090909 </v>
   <v>       0.26923077      -0.26666667       0.09090909 </v>
   <v>       0.30769231      -0.26666667       0.09090909 </v>
   <v>       0.34615385      -0.26666667       0.09090909 </v>
   <v>       0.38461538      -0.26666667       0.09090909 </v>
   <v>       0.42307692      -0.26666667       0.09090909 </v>
   <v>       0.46153846      -0.26666667       0.09090909 </v>
   <v>       0.50000000      -0.26666667       0.09090909 </v>
   <v>      -0.46153846      -0.26666667       0.09090909 </v>
   <v>      -0.42307692      -0.26666667       0.09090909 </v>
   <v>      -0.38461538      -0.26666667       0.09090909 </v>
   <v>      -0.34615385      -0.26666667       0.09090909 </v>
   <v>      -0.30769231      -0.26666667       0.09090909 </v>
   <v>      -0.26923077      -0.26666667       0.09090909 </v>
   <v>      -0.23076923      -0.26666667       0.09090909 </v>
   <v>      -0.19230769      -0.26666667       0.09090909 </v>
   <v>      -0.15384615      -0.26666667       0.09090909 </v>
   <v>      -0.11538462      -0.26666667       0.09090909 </v>
   <v>      -0.07692308      -0.26666667       0.09090909 </v>
   <v>      -0.03846154      -0.26666667       0.09090909 </v>
   <v>       0.00000000      -0.20000000       0.09090909 </v>
   <v>       0.03846154      -0.20000000       0.09090909 </v>
   <v>       0.07692308      -0.20000000       0.09090909 </v>
   <v>       0.11538462      -0.20000000       0.09090909 </v>
   <v>       0.15384615      -0.20000000       0.09090909 </v>
   <v>       0.19230769      -0.20000000       0.09090909 </v>
   <v>       0.23076923      -0.20000000       0.09090909 </v>
   <v>       0.26923077      -0.20000000       0.09090909 </v>
   <v>       0.30769231      -0.20000000       0.09090909 </v>
   <v>       0.34615385      -0.20000000       0.09090909 </v>
   <v>       0.38461538      -0.20000000       0.09090909 </v>
   <v>       0.42307692      -0.20000000       0.09090909 </v>
   <v>       0.46153846      -0.20000000       0.09090909 </v>
   <v>       0.50000000      -0.20000000       0.09090909 </v>
   <v>      -0.46153846      -0.20000000       0.09090909 </v>
   <v>      -0.42307692      -0.20000000       0.09090909 </v>
   <v>      -0.38461538      -0.20000000       0.09090909 </v>
   <v>      -0.34615385      -0.20000000       0.09090909 </v>
   <v>      -0.30769231      -0.20000000       0.09090909 </v>
   <v>      -0.26923077      -0.20000000       0.09090909 </v>
   <v>      -0.23076923      -0.20000000       0.09090909 </v>
   <v>      -0.19230769      -0.20000000       0.09090909 </v>
   <v>      -0.15384615      -0.20000000       0.09090909 </v>
   <v>      -0.11538462      -0.20000000       0.09090909 </v>
   <v>      -0.07692308      -0.20000000       0.09090909 </v>
   <v>      -0.03846154      -0.20000000       0.09090909 </v>
   <v>       0.00000000      -0.13333333       0.09090909 </v>
   <v>       0.03846154      -0.13333333       0.09090909 </v>
   <v>       0.07692308      -0.13333333       0.09090909 </v>
   <v>       0.11538462      -0.13333333       0.09090909 </v>
   <v>       0.15384615      -0.13333333       0.09090909 </v>
   <v>       0.19230769      -0.13333333       0.09090909 </v>
   <v>       0.23076923      -0.13333333       0.09090909 </v>
   <v>       0.26923077      -0.13333333       0.09090909 </v>
   <v>       0.30769231      -0.13333333       0.09090909 </v>
   <v>       0.34615385      -0.13333333       0.09090909 </v>
   <v>       0.38461538      -0.13333333       0.09090909 </v>
   <v>       0.42307692      -0.13333333       0.09090909 </v>
   <v>       0.46153846      -0.13333333       0.09090909 </v>
   <v>       0.50000000      -0.13333333       0.09090909 </v>
   <v>      -0.46153846      -0.13333333       0.09090909 </v>
   <v>      -0.42307692      -0.13333333       0.09090909 </v>
   <v>      -0.38461538      -0.13333333       0.09090909 </v>
   <v>      -0.34615385      -0.13333333       0.09090909 </v>
   <v>      -0.30769231      -0.13333333       0.09090909 </v>
   <v>      -0.26923077      -0.13333333       0.09090909 </v>
   <v>      -0.23076923      -0.13333333       0.09090909 </v>
   <v>      -0.19230769      -0.13333333       0.09090909 </v>
   <v>      -0.15384615      -0.13333333       0.09090909 </v>
   <v>      -0.11538462      -0.13333333       0.09090909 </v>
   <v>      -0.07692308      -0.13333333       0.09090909 </v>
   <v>      -0.03846154      -0.13333333       0.09090909 </v>
   <v>       0.00000000      -0.06666667       0.09090909 </v>
   <v>       0.03846154      -0.06666667       0.09090909 </v>
   <v>       0.07692308      -0.06666667       0.09090909 </v>
   <v>       0.11538462      -0.06666667       0.09090909 </v>
   <v>       0.15384615      -0.06666667       0.09090909 </v>
   <v>       0.19230769      -0.06666667       0.09090909 </v>
   <v>       0.23076923      -0.06666667       0.09090909 </v>
   <v>       0.26923077      -0.06666667       0.09090909 </v>
   <v>       0.30769231      -0.06666667       0.09090909 </v>
   <v>       0.34615385      -0.06666667       0.09090909 </v>
   <v>       0.38461538      -0.06666667       0.09090909 </v>
   <v>       0.42307692      -0.06666667       0.09090909 </v>
   <v>       0.46153846      -0.06666667       0.09090909 </v>
   <v>       0.50000000      -0.06666667       0.09090909 </v>
   <v>      -0.46153846      -0.06666667       0.09090909 </v>
   <v>      -0.42307692      -0.06666667       0.09090909 </v>
   <v>      -0.38461538      -0.06666667       0.09090909 </v>
   <v>      -0.34615385      -0.06666667       0.09090909 </v>
   <v>      -0.30769231      -0.06666667       0.09090909 </v>
   <v>      -0.26923077      -0.06666667       0.09090909 </v>
   <v>      -0.23076923      -0.06666667       0.09090909 </v>
   <v>      -0.19230769      -0.06666667       0.09090909 </v>
   <v>      -0.15384615      -0.06666667       0.09090909 </v>
   <v>      -0.11538462      -0.06666667       0.09090909 </v>
   <v>      -0.07692308      -0.06666667       0.09090909 </v>
   <v>      -0.03846154      -0.06666667       0.09090909 </v>
   <v>       0.00000000       0.00000000       0.18181818 </v>
   <v>       0.03846154       0.00000000       0.18181818 </v>
   <v>       0.07692308       0.00000000       0.18181818 </v>
   <v>       0.11538462       0.00000000       0.18181818 </v>
   <v>       0.15384615       0.00000000       0.18181818 </v>
   <v>       0.19230769       0.00000000       0.18181818 </v>
   <v>       0.23076923       0.00000000       0.18181818 </v>
   <v>       0.26923077       0.00000000       0.18181818 </v>
   <v>       0.30769231       0.00000000       0.18181818 </v>
   <v>       0.34615385       0.00000000       0.18181818 </v>
   <v>       0.38461538       0.00000000       0.18181818 </v>
   <v>       0.42307692       0.00000000       0.18181818 </v>
   <v>       0.46153846       0.00000000       0.18181818 </v>
   <v>       0.50000000       0.00000000       0.18181818 </v>
   <v>      -0.46153846       0.00000000       0.18181818 </v>
   <v>      -0.42307692       0.00000000       0.18181818 </v>
   <v>      -0.38461538       0.00000000       0.18181818 </v>
   <v>      -0.34615385       0.00000000       0.18181818 </v>
   <v>      -0.30769231       0.00000000       0.18181818 </v>
   <v>      -0.26923077       0.00000000       0.18181818 </v>
   <v>      -0.23076923       0.00000000       0.18181818 </v>
   <v>      -0.19230769       0.00000000       0.18181818 </v>
   <v>      -0.15384615       0.00000000       0.18181818 </v>
   <v>      -0.11538462       0.00000000       0.18181818 </v>
   <v>      -0.07692308       0.00000000       0.18181818 </v>
   <v>      -0.03846154       0.00000000       0.18181818 </v>
   <v>       0.00000000       0.06666667       0.18181818 </v>
   <v>       0.03846154       0.06666667       0.18181818 </v>
   <v>       0.07692308       0.06666667       0.18181818 </v>
   <v>       0.11538462       0.06666667       0.18181818 </v>
   <v>       0.15384615       0.06666667       0.18181818 </v>
   <v>       0.19230769       0.06666667       0.18181818 </v>
   <v>       0.23076923       0.06666667       0.18181818 </v>
   <v>       0.26923077       0.06666667       0.18181818 </v>
   <v>       0.30769231       0.06666667       0.18181818 </v>
   <v>       0.34615385       0.06666667       0.18181818 </v>
   <v>       0.38461538       0.06666667       0.18181818 </v>
   <v>       0.42307692       0.06666667       0.18181818 </v>
   <v>       0.46153846       0.06666667       0.18181818 </v>
   <v>       0.50000000       0.06666667       0.18181818 </v>
   <v>      -0.46153846       0.06666667       0.18181818 </v>
   <v>      -0.42307692       0.06666667       0.18181818 </v>
   <v>      -0.38461538       0.06666667       0.18181818 </v>
   <v>      -0.34615385       0.06666667       0.18181818 </v>
   <v>      -0.30769231       0.06666667       0.18181818 </v>
   <v>      -0.26923077       0.06666667       0.18181818 </v>
   <v>      -0.23076923       0.06666667       0.18181818 </v>
   <v>      -0.19230769       0.06666667       0.18181818 </v>
   <v>      -0.15384615       0.06666667       0.18181818 </v>
   <v>      -0.11538462       0.06666667       0.18181818 </v>
   <v>      -0.07692308       0.06666667       0.18181818 </v>
   <v>      -0.03846154       0.06666667       0.18181818 </v>
   <v>       0.00000000       0.13333333       0.18181818 </v>
   <v>       0.03846154       0.13333333       0.18181818 </v>
   <v>       0.07692308       0.13333333       0.18181818 </v>
   <v>       0.11538462       0.13333333       0.18181818 </v>
   <v>       0.15384615       0.13333333       0.18181818 </v>
   <v>       0.19230769       0.13333333       0.18181818 </v>
   <v>       0.23076923       0.13333333       0.18181818 </v>
   <v>       0.26923077       0.13333333       0.18181818 </v>
   <v>       0.30769231       0.13333333       0.18181818 </v>
   <v>       0.34615385       0.13333333       0.18181818 </v>
   <v>       0.38461538       0.13333333       0.18181818 </v>
   <v>       0.42307692       0.13333333       0.18181818 </v>
   <v>       0.46153846       0.13333333       0.18181818 </v>
   <v>       0.50000000       0.13333333       0.18181818 </v>
   <v>      -0.46153846       0.13333333       0.18181818 </v>
   <v>      -0.42307692       0.13333333       0.18181818 </v>
   <v>      -0.38461538       0.13333333       0.18181818 </v>
   <v>      -0.34615385       0.13333333       0.18181818 </v>
   <v>      -0.30769231       0.13333333       0.18181818 </v>
   <v>      -0.26923077       0.13333333       0.18181818 </v>
   <v>      -0.23076923       0.13333333       0.18181818 </v>
   <v>      -0.19230769       0.13333333       0.18181818 </v>
   <v>      -0.15384615       0.13333333       0.18181818 </v>
   <v>      -0.11538462       0.13333333       0.18181818 </v>
   <v>      -0.07692308       0.13333333       0.18181818 </v>
   <v>      -0.03846154       0.13333333       0.18181818 </v>
   <v>       0.00000000       0.20000000       0.18181818 </v>
   <v>       0.03846154       0.20000000       0.18181818 </v>
   <v>       0.07692308       0.20000000       0.18181818 </v>
   <v>       0.11538462       0.20000000       0.18181818 </v>
   <v>       0.15384615       0.20000000       0.18181818 </v>
   <v>       0.19230769       0.20000000       0.18181818 </v>
   <v>       0.23076923       0.20000000       0.18181818 </v>
   <v>       0.26923077       0.20000000       0.18181818 </v>
   <v>       0.30769231       0.20000000       0.18181818 </v>
   <v>       0.34615385       0.20000000       0.18181818 </v>
   <v>       0.38461538       0.20000000       0.18181818 </v>
   <v>       0.42307692       0.20000000       0.18181818 </v>
   <v>       0.46153846       0.20000000       0.18181818 </v>
   <v>       0.50000000       0.20000000       0.18181818 </v>
   <v>      -0.46153846       0.20000000       0.18181818 </v>
   <v>      -0.42307692       0.20000000       0.18181818 </v>
   <v>      -0.38461538       0.20000000       0.18181818 </v>
   <v>      -0.34615385       0.20000000       0.18181818 </v>
   <v>      -0.30769231       0.20000000       0.18181818 </v>
   <v>      -0.26923077       0.20000000       0.18181818 </v>
   <v>      -0.23076923       0.20000000       0.18181818 </v>
   <v>      -0.19230769       0.20000000       0.18181818 </v>
   <v>      -0.15384615       0.20000000       0.18181818 </v>
   <v>      -0.11538462       0.20000000       0.18181818 </v>
   <v>      -0.07692308       0.20000000       0.18181818 </v>
   <v>      -0.03846154       0.20000000       0.18181818 </v>
   <v>       0.00000000       0.26666667       0.18181818 </v>
   <v>       0.03846154       0.26666667       0.18181818 </v>
   <v>       0.07692308       0.26666667       0.18181818 </v>
   <v>       0.11538462       0.26666667       0.18181818 </v>
   <v>       0.15384615       0.26666667       0.18181818 </v>
   <v>       0.19230769       0.26666667       0.18181818 </v>
   <v>       0.23076923       0.26666667       0.18181818 </v>
   <v>       0.26923077       0.26666667       0.18181818 </v>
   <v>       0.30769231       0.26666667       0.18181818 </v>
   <v>       0.34615385       0.26666667       0.18181818 </v>
   <v>       0.38461538       0.26666667       0.18181818 </v>
   <v>       0.42307692       0.26666667       0.18181818 </v>
   <v>       0.46153846       0.26666667       0.18181818 </v>
   <v>       0.50000000       0.26666667       0.18181818 </v>
   <v>      -0.46153846       0.26666667       0.18181818 </v>
   <v>      -0.42307692       0.26666667       0.18181818 </v>
   <v>      -0.38461538       0.26666667       0.18181818 </v>
   <v>      -0.34615385       0.26666667       0.18181818 </v>
   <v>      -0.30769231       0.26666667       0.18181818 </v>
   <v>      -0.26923077       0.26666667       0.18181818 </v>
   <v>      -0.23076923       0.26666667       0.18181818 </v>
   <v>      -0.19230769       0.26666667       0.18181818 </v>
   <v>      -0.15384615       0.26666667       0.18181818 </v>
   <v>      -0.11538462       0.26666667       0.18181818 </v>
   <v>      -0.07692308       0.26666667       0.18181818 </v>
   <v>      -0.03846154       0.26666667       0.18181818 </v>
   <v>       0.00000000       0.33333333       0.18181818 </v>
   <v>       0.03846154       0.33333333       0.18181818 </v>
   <v>       0.07692308       0.33333333       0.18181818 </v>
   <v>       0.11538462       0.33333333       0.18181818 </v>
   <v>       0.15384615       0.33333333       0.18181818 </v>
   <v>       0.19230769       0.33333333       0.18181818 </v>
   <v>       0.23076923       0.33333333       0.18181818 </v>
   <v>       0.26923077       0.33333333       0.18181818 </v>
   <v>       0.30769231       0.33333333       0.18181818 </v>
   <v>       0.34615385       0.33333333       0.18181818 </v>
   <v>       0.38461538       0.33333333       0.18181818 </v>
   <v>       0.42307692       0.33333333       0.18181818 </v>
   <v>       0.46153846       0.33333333       0.18181818 </v>
   <v>       0.50000000       0.33333333       0.18181818 </v>
   <v>      -0.46153846       0.33333333       0.18181818 </v>
   <v>      -0.42307692       0.33333333       0.18181818 </v>
   <v>      -0.38461538       0.33333333       0.18181818 </v>
   <v>      -0.34615385       0.33333333       0.18181818 </v>
   <v>      -0.30769231       0.33333333       0.18181818 </v>
   <v>      -0.26923077       0.33333333       0.18181818 </v>
   <v>      -0.23076923       0.33333333       0.18181818 </v>
   <v>      -0.19230769       0.33333333       0.18181818 </v>
   <v>      -0.15384615       0.33333333       0.18181818 </v>
   <v>      -0.11538462       0.33333333       0.18181818 </v>
   <v>      -0.07692308       0.33333333       0.18181818 </v>
   <v>      -0.03846154       0.33333333       0.18181818 </v>
   <v>       0.00000000       0.40000000       0.18181818 </v>
   <v>       0.03846154       0.40000000       0.18181818 </v>
   <v>       0.07692308       0.40000000       0.18181818 </v>
   <v>       0.11538462       0.40000000       0.18181818 </v>
   <v>       0.15384615       0.40000000       0.18181818 </v>
   <v>       0.19230769       0.40000000       0.18181818 </v>
   <v>       0.23076923       0.40000000       0.18181818 </v>
   <v>       0.26923077       0.40000000       0.18181818 </v>
   <v>       0.30769231       0.40000000       0.18181818 </v>
   <v>       0.34615385       0.40000000       0.18181818 </v>
   <v>       0.38461538       0.40000000       0.18181818 </v>
   <v>       0.42307692       0.40000000       0.18181818 </v>
   <v>       0.46153846       0.40000000       0.18181818 </v>
   <v>       0.50000000       0.40000000       0.18181818 </v>
   <v>      -0.46153846       0.40000000       0.18181818 </v>
   <v>      -0.42307692       0.40000000       0.18181818 </v>
   <v>      -0.38461538       0.40000000       0.18181818 </v>
   <v>      -0.34615385       0.40000000       0.18181818 </v>
   <v>      -0.30769231       0.40000000       0.18181818 </v>
   <v>      -0.26923077       0.40000000       0.18181818 </v>
   <v>      -0.23076923       0.40000000       0.18181818 </v>
   <v>      -0.19230769       0.40000000       0.18181818 </v>
   <v>      -0.15384615       0.40000000       0.18181818 </v>
   <v>      -0.11538462       0.40000000       0.18181818 </v>
   <v>      -0.07692308       0.40000000       0.18181818 </v>
   <v>      -0.03846154       0.40000000       0.18181818 </v>
   <v>       0.00000000       0.46666667       0.18181818 </v>
   <v>       0.03846154       0.46666667       0.18181818 </v>
   <v>       0.07692308       0.46666667       0.18181818 </v>
   <v>       0.11538462       0.46666667       0.18181818 </v>
   <v>       0.15384615       0.46666667       0.18181818 </v>
   <v>       0.19230769       0.46666667       0.18181818 </v>
   <v>       0.23076923       0.46666667       0.18181818 </v>
   <v>       0.26923077       0.46666667       0.18181818 </v>
   <v>       0.30769231       0.46666667       0.18181818 </v>
   <v>       0.34615385       0.46666667       0.18181818 </v>
   <v>       0.38461538       0.46666667       0.18181818 </v>
   <v>       0.42307692       0.46666667       0.18181818 </v>
   <v>       0.46153846       0.46666667       0.18181818 </v>
   <v>       0.50000000       0.46666667       0.18181818 </v>
   <v>      -0.46153846       0.46666667       0.18181818 </v>
   <v>      -0.42307692       0.46666667       0.18181818 </v>
   <v>      -0.38461538       0.46666667       0.18181818 </v>
   <v>      -0.34615385       0.46666667       0.18181818 </v>
   <v>      -0.30769231       0.46666667       0.18181818 </v>
   <v>      -0.26923077       0.46666667       0.18181818 </v>
   <v>      -0.23076923       0.46666667       0.18181818 </v>
   <v>      -0.19230769       0.46666667       0.18181818 </v>
   <v>      -0.15384615       0.46666667       0.18181818 </v>
   <v>      -0.11538462       0.46666667       0.18181818 </v>
   <v>      -0.07692308       0.46666667       0.18181818 </v>
   <v>      -0.03846154       0.46666667       0.18181818 </v>
   <v>       0.00000000      -0.46666667       0.18181818 </v>
   <v>       0.03846154      -0.46666667       0.18181818 </v>
   <v>       0.07692308      -0.46666667       0.18181818 </v>
   <v>       0.11538462      -0.46666667       0.18181818 </v>
   <v>       0.15384615      -0.46666667       0.18181818 </v>
   <v>       0.19230769      -0.46666667       0.18181818 </v>
   <v>       0.23076923      -0.46666667       0.18181818 </v>
   <v>       0.26923077      -0.46666667       0.18181818 </v>
   <v>       0.30769231      -0.46666667       0.18181818 </v>
   <v>       0.34615385      -0.46666667       0.18181818 </v>
   <v>       0.38461538      -0.46666667       0.18181818 </v>
   <v>       0.42307692      -0.46666667       0.18181818 </v>
   <v>       0.46153846      -0.46666667       0.18181818 </v>
   <v>       0.50000000      -0.46666667       0.18181818 </v>
   <v>      -0.46153846      -0.46666667       0.18181818 </v>
   <v>      -0.42307692      -0.46666667       0.18181818 </v>
   <v>      -0.38461538      -0.46666667       0.18181818 </v>
   <v>      -0.34615385      -0.46666667       0.18181818 </v>
   <v>      -0.30769231      -0.46666667       0.18181818 </v>
   <v>      -0.26923077      -0.46666667       0.18181818 </v>
   <v>      -0.23076923      -0.46666667       0.18181818 </v>
   <v>      -0.19230769      -0.46666667       0.18181818 </v>
   <v>      -0.15384615      -0.46666667       0.18181818 </v>
   <v>      -0.11538462      -0.46666667       0.18181818 </v>
   <v>      -0.07692308      -0.46666667       0.18181818 </v>
   <v>      -0.03846154      -0.46666667       0.18181818 </v>
   <v>       0.00000000      -0.40000000       0.18181818 </v>
   <v>       0.03846154      -0.40000000       0.18181818 </v>
   <v>       0.07692308      -0.40000000       0.18181818 </v>
   <v>       0.11538462      -0.40000000       0.18181818 </v>
   <v>       0.15384615      -0.40000000       0.18181818 </v>
   <v>       0.19230769      -0.40000000       0.18181818 </v>
   <v>       0.23076923      -0.40000000       0.18181818 </v>
   <v>       0.26923077      -0.40000000       0.18181818 </v>
   <v>       0.30769231      -0.40000000       0.18181818 </v>
   <v>       0.34615385      -0.40000000       0.18181818 </v>
   <v>       0.38461538      -0.40000000       0.18181818 </v>
   <v>       0.42307692      -0.40000000       0.18181818 </v>
   <v>       0.46153846      -0.40000000       0.18181818 </v>
   <v>       0.50000000      -0.40000000       0.18181818 </v>
   <v>      -0.46153846      -0.40000000       0.18181818 </v>
   <v>      -0.42307692      -0.40000000       0.18181818 </v>
   <v>      -0.38461538      -0.40000000       0.18181818 </v>
   <v>      -0.34615385      -0.40000000       0.18181818 </v>
   <v>      -0.30769231      -0.40000000       0.18181818 </v>
   <v>      -0.26923077      -0.40000000       0.18181818 </v>
   <v>      -0.23076923      -0.40000000       0.18181818 </v>
   <v>      -0.19230769      -0.40000000       0.18181818 </v>
   <v>      -0.15384615      -0.40000000       0.18181818 </v>
   <v>      -0.11538462      -0.40000000       0.18181818 </v>
   <v>      -0.07692308      -0.40000000       0.18181818 </v>
   <v>      -0.03846154      -0.40000000       0.18181818 </v>
   <v>       0.00000000      -0.33333333       0.18181818 </v>
   <v>       0.03846154      -0.33333333       0.18181818 </v>
   <v>       0.07692308      -0.33333333       0.18181818 </v>
   <v>       0.11538462      -0.33333333       0.18181818 </v>
   <v>       0.15384615      -0.33333333       0.18181818 </v>
   <v>       0.19230769      -0.33333333       0.18181818 </v>
   <v>       0.23076923      -0.33333333       0.18181818 </v>
   <v>       0.26923077      -0.33333333       0.18181818 </v>
   <v>       0.30769231      -0.33333333       0.18181818 </v>
   <v>       0.34615385      -0.33333333       0.18181818 </v>
   <v>       0.38461538      -0.33333333       0.18181818 </v>
   <v>       0.42307692      -0.33333333       0.18181818 </v>
   <v>       0.46153846      -0.33333333       0.18181818 </v>
   <v>       0.50000000      -0.33333333       0.18181818 </v>
   <v>      -0.46153846      -0.33333333       0.18181818 </v>
   <v>      -0.42307692      -0.33333333       0.18181818 </v>
   <v>      -0.38461538      -0.33333333       0.18181818 </v>
   <v>      -0.34615385      -0.33333333       0.18181818 </v>
   <v>      -0.30769231      -0.33333333       0.18181818 </v>
   <v>      -0.26923077      -0.33333333       0.18181818 </v>
   <v>      -0.23076923      -0.33333333       0.18181818 </v>
   <v>      -0.19230769      -0.33333333       0.18181818 </v>
   <v>      -0.15384615      -0.33333333       0.18181818 </v>
   <v>      -0.11538462      -0.33333333       0.18181818 </v>
   <v>      -0.07692308      -0.33333333       0.18181818 </v>
   <v>      -0.03846154      -0.33333333       0.18181818 </v>
   <v>       0.00000000      -0.26666667       0.18181818 </v>
   <v>       0.03846154      -0.26666667       0.18181818 </v>
   <v>       0.07692308      -0.26666667       0.18181818 </v>
   <v>       0.11538462      -0.26666667       0.18181818 </v>
   <v>       0.15384615      -0.26666667       0.18181818 </v>
   <v>       0.19230769      -0.26666667       0.18181818 </v>
   <v>       0.23076923      -0.26666667       0.18181818 </v>
   <v>       0.26923077      -0.26666667       0.18181818 </v>
   <v>       0.30769231      -0.26666667       0.18181818 </v>
   <v>       0.34615385      -0.26666667       0.18181818 </v>
   <v>       0.38461538      -0.26666667       0.18181818 </v>
   <v>       0.42307692      -0.26666667       0.18181818 </v>
   <v>       0.46153846      -0.26666667       0.18181818 </v>
   <v>       0.50000000      -0.26666667       0.18181818 </v>
   <v>      -0.46153846      -0.26666667       0.18181818 </v>
   <v>      -0.42307692      -0.26666667       0.18181818 </v>
   <v>      -0.38461538      -0.26666667       0.18181818 </v>
   <v>      -0.34615385      -0.26666667       0.18181818 </v>
   <v>      -0.30769231      -0.26666667       0.18181818 </v>
   <v>      -0.26923077      -0.26666667       0.18181818 </v>
   <v>      -0.23076923      -0.26666667       0.18181818 </v>
   <v>      -0.19230769      -0.26666667       0.18181818 </v>
   <v>      -0.15384615      -0.26666667       0.18181818 </v>
   <v>      -0.11538462      -0.26666667       0.18181818 </v>
   <v>      -0.07692308      -0.26666667       0.18181818 </v>
   <v>      -0.03846154      -0.26666667       0.18181818 </v>
   <v>       0.00000000      -0.20000000       0.18181818 </v>
   <v>       0.03846154      -0.20000000       0.18181818 </v>
   <v>       0.07692308      -0.20000000       0.18181818 </v>
   <v>       0.11538462      -0.20000000       0.18181818 </v>
   <v>       0.15384615      -0.20000000       0.18181818 </v>
   <v>       0.19230769      -0.20000000       0.18181818 </v>
   <v>       0.23076923      -0.20000000       0.18181818 </v>
   <v>       0.26923077      -0.20000000       0.18181818 </v>
   <v>       0.30769231      -0.20000000       0.18181818 </v>
   <v>       0.34615385      -0.20000000       0.18181818 </v>
   <v>       0.38461538      -0.20000000       0.18181818 </v>
   <v>       0.42307692      -0.20000000       0.18181818 </v>
   <v>       0.46153846      -0.20000000       0.18181818 </v>
   <v>       0.50000000      -0.20000000       0.18181818 </v>
   <v>      -0.46153846      -0.20000000       0.18181818 </v>
   <v>      -0.42307692      -0.20000000       0.18181818 </v>
   <v>      -0.38461538      -0.20000000       0.18181818 </v>
   <v>      -0.34615385      -0.20000000       0.18181818 </v>
   <v>      -0.30769231      -0.20000000       0.18181818 </v>
   <v>      -0.26923077      -0.20000000       0.18181818 </v>
   <v>      -0.23076923      -0.20000000       0.18181818 </v>
   <v>      -0.19230769      -0.20000000       0.18181818 </v>
   <v>      -0.15384615      -0.20000000       0.18181818 </v>
   <v>      -0.11538462      -0.20000000       0.18181818 </v>
   <v>      -0.07692308      -0.20000000       0.18181818 </v>
   <v>      -0.03846154      -0.20000000       0.18181818 </v>
   <v>       0.00000000      -0.13333333       0.18181818 </v>
   <v>       0.03846154      -0.13333333       0.18181818 </v>
   <v>       0.07692308      -0.13333333       0.18181818 </v>
   <v>       0.11538462      -0.13333333       0.18181818 </v>
   <v>       0.15384615      -0.13333333       0.18181818 </v>
   <v>       0.19230769      -0.13333333       0.18181818 </v>
   <v>       0.23076923      -0.13333333       0.18181818 </v>
   <v>       0.26923077      -0.13333333       0.18181818 </v>
   <v>       0.30769231      -0.13333333       0.18181818 </v>
   <v>       0.34615385      -0.13333333       0.18181818 </v>
   <v>       0.38461538      -0.13333333       0.18181818 </v>
   <v>       0.42307692      -0.13333333       0.18181818 </v>
   <v>       0.46153846      -0.13333333       0.18181818 </v>
   <v>       0.50000000      -0.13333333       0.18181818 </v>
   <v>      -0.46153846      -0.13333333       0.18181818 </v>
   <v>      -0.42307692      -0.13333333       0.18181818 </v>
   <v>      -0.38461538      -0.13333333       0.18181818 </v>
   <v>      -0.34615385      -0.13333333       0.18181818 </v>
   <v>      -0.30769231      -0.13333333       0.18181818 </v>
   <v>      -0.26923077      -0.13333333       0.18181818 </v>
   <v>      -0.23076923      -0.13333333       0.18181818 </v>
   <v>      -0.19230769      -0.13333333       0.18181818 </v>
   <v>      -0.15384615      -0.13333333       0.18181818 </v>
   <v>      -0.11538462      -0.13333333       0.18181818 </v>
   <v>      -0.07692308      -0.13333333       0.18181818 </v>
   <v>      -0.03846154      -0.13333333       0.18181818 </v>
   <v>       0.00000000      -0.06666667       0.18181818 </v>
   <v>       0.03846154      -0.06666667       0.18181818 </v>
   <v>       0.07692308      -0.06666667       0.18181818 </v>
   <v>       0.11538462      -0.06666667       0.18181818 </v>
   <v>       0.15384615      -0.06666667       0.18181818 </v>
   <v>       0.19230769      -0.06666667       0.18181818 </v>
   <v>       0.23076923      -0.06666667       0.18181818 </v>
   <v>       0.26923077      -0.06666667       0.18181818 </v>
   <v>       0.30769231      -0.06666667       0.18181818 </v>
   <v>       0.34615385      -0.06666667       0.18181818 </v>
   <v>       0.38461538      -0.06666667       0.18181818 </v>
   <v>       0.42307692      -0.06666667       0.18181818 </v>
   <v>       0.46153846      -0.06666667       0.18181818 </v>
   <v>       0.50000000      -0.06666667       0.18181818 </v>
   <v>      -0.46153846      -0.06666667       0.18181818 </v>
   <v>      -0.42307692      -0.06666667       0.18181818 </v>
   <v>      -0.38461538      -0.06666667       0.18181818 </v>
   <v>      -0.34615385      -0.06666667       0.18181818 </v>
   <v>      -0.30769231      -0.06666667       0.18181818 </v>
   <v>      -0.26923077      -0.06666667       0.18181818 </v>
   <v>      -0.23076923      -0.06666667       0.18181818 </v>
   <v>      -0.19230769      -0.06666667       0.18181818 </v>
   <v>      -0.15384615      -0.06666667       0.18181818 </v>
   <v>      -0.11538462      -0.06666667       0.18181818 </v>
   <v>      -0.07692308      -0.06666667       0.18181818 </v>
   <v>      -0.03846154      -0.06666667       0.18181818 </v>
   <v>       0.00000000       0.00000000       0.27272727 </v>
   <v>       0.03846154       0.00000000       0.27272727 </v>
   <v>       0.07692308       0.00000000       0.27272727 </v>
   <v>       0.11538462       0.00000000       0.27272727 </v>
   <v>       0.15384615       0.00000000       0.27272727 </v>
   <v>       0.19230769       0.00000000       0.27272727 </v>
   <v>       0.23076923       0.00000000       0.27272727 </v>
   <v>       0.26923077       0.00000000       0.27272727 </v>
   <v>       0.30769231       0.00000000       0.27272727 </v>
   <v>       0.34615385       0.00000000       0.27272727 </v>
   <v>       0.38461538       0.00000000       0.27272727 </v>
   <v>       0.42307692       0.00000000       0.27272727 </v>
   <v>       0.46153846       0.00000000       0.27272727 </v>
   <v>       0.50000000       0.00000000       0.27272727 </v>
   <v>      -0.46153846       0.00000000       0.27272727 </v>
   <v>      -0.42307692       0.00000000       0.27272727 </v>
   <v>      -0.38461538       0.00000000       0.27272727 </v>
   <v>      -0.34615385       0.00000000       0.27272727 </v>
   <v>      -0.30769231       0.00000000       0.27272727 </v>
   <v>      -0.26923077       0.00000000       0.27272727 </v>
   <v>      -0.23076923       0.00000000       0.27272727 </v>
   <v>      -0.19230769       0.00000000       0.27272727 </v>
   <v>      -0.15384615       0.00000000       0.27272727 </v>
   <v>      -0.11538462       0.00000000       0.27272727 </v>
   <v>      -0.07692308       0.00000000       0.27272727 </v>
   <v>      -0.03846154       0.00000000       0.27272727 </v>
   <v>       0.00000000       0.06666667       0.27272727 </v>
   <v>       0.03846154       0.06666667       0.27272727 </v>
   <v>       0.07692308       0.06666667       0.27272727 </v>
   <v>       0.11538462       0.06666667       0.27272727 </v>
   <v>       0.15384615       0.06666667       0.27272727 </v>
   <v>       0.19230769       0.06666667       0.27272727 </v>
   <v>       0.23076923       0.06666667       0.27272727 </v>
   <v>       0.26923077       0.06666667       0.27272727 </v>
   <v>       0.30769231       0.06666667       0.27272727 </v>
   <v>       0.34615385       0.06666667       0.27272727 </v>
   <v>       0.38461538       0.06666667       0.27272727 </v>
   <v>       0.42307692       0.06666667       0.27272727 </v>
   <v>       0.46153846       0.06666667       0.27272727 </v>
   <v>       0.50000000       0.06666667       0.27272727 </v>
   <v>      -0.46153846       0.06666667       0.27272727 </v>
   <v>      -0.42307692       0.06666667       0.27272727 </v>
   <v>      -0.38461538       0.06666667       0.27272727 </v>
   <v>      -0.34615385       0.06666667       0.27272727 </v>
   <v>      -0.30769231       0.06666667       0.27272727 </v>
   <v>      -0.26923077       0.06666667       0.27272727 </v>
   <v>      -0.23076923       0.06666667       0.27272727 </v>
   <v>      -0.19230769       0.06666667       0.27272727 </v>
   <v>      -0.15384615       0.06666667       0.27272727 </v>
   <v>      -0.11538462       0.06666667       0.27272727 </v>
   <v>      -0.07692308       0.06666667       0.27272727 </v>
   <v>      -0.03846154       0.06666667       0.27272727 </v>
   <v>       0.00000000       0.13333333       0.27272727 </v>
   <v>       0.03846154       0.13333333       0.27272727 </v>
   <v>       0.07692308       0.13333333       0.27272727 </v>
   <v>       0.11538462       0.13333333       0.27272727 </v>
   <v>       0.15384615       0.13333333       0.27272727 </v>
   <v>       0.19230769       0.13333333       0.27272727 </v>
   <v>       0.23076923       0.13333333       0.27272727 </v>
   <v>       0.26923077       0.13333333       0.27272727 </v>
   <v>       0.30769231       0.13333333       0.27272727 </v>
   <v>       0.34615385       0.13333333       0.27272727 </v>
   <v>       0.38461538       0.13333333       0.27272727 </v>
   <v>       0.42307692       0.13333333       0.27272727 </v>
   <v>       0.46153846       0.13333333       0.27272727 </v>
   <v>       0.50000000       0.13333333       0.27272727 </v>
   <v>      -0.46153846       0.13333333       0.27272727 </v>
   <v>      -0.42307692       0.13333333       0.27272727 </v>
   <v>      -0.38461538       0.13333333       0.27272727 </v>
   <v>      -0.34615385       0.13333333       0.27272727 </v>
   <v>      -0.30769231       0.13333333       0.27272727 </v>
   <v>      -0.26923077       0.13333333       0.27272727 </v>
   <v>      -0.23076923       0.13333333       0.27272727 </v>
   <v>      -0.19230769       0.13333333       0.27272727 </v>
   <v>      -0.15384615       0.13333333       0.27272727 </v>
   <v>      -0.11538462       0.13333333       0.27272727 </v>
   <v>      -0.07692308       0.13333333       0.27272727 </v>
   <v>      -0.03846154       0.13333333       0.27272727 </v>
   <v>       0.00000000       0.20000000       0.27272727 </v>
   <v>       0.03846154       0.20000000       0.27272727 </v>
   <v>       0.07692308       0.20000000       0.27272727 </v>
   <v>       0.11538462       0.20000000       0.27272727 </v>
   <v>       0.15384615       0.20000000       0.27272727 </v>
   <v>       0.19230769       0.20000000       0.27272727 </v>
   <v>       0.23076923       0.20000000       0.27272727 </v>
   <v>       0.26923077       0.20000000       0.27272727 </v>
   <v>       0.30769231       0.20000000       0.27272727 </v>
   <v>       0.34615385       0.20000000       0.27272727 </v>
   <v>       0.38461538       0.20000000       0.27272727 </v>
   <v>       0.42307692       0.20000000       0.27272727 </v>
   <v>       0.46153846       0.20000000       0.27272727 </v>
   <v>       0.50000000       0.20000000       0.27272727 </v>
   <v>      -0.46153846       0.20000000       0.27272727 </v>
   <v>      -0.42307692       0.20000000       0.27272727 </v>
   <v>      -0.38461538       0.20000000       0.27272727 </v>
   <v>      -0.34615385       0.20000000       0.27272727 </v>
   <v>      -0.30769231       0.20000000       0.27272727 </v>
   <v>      -0.26923077       0.20000000       0.27272727 </v>
   <v>      -0.23076923       0.20000000       0.27272727 </v>
   <v>      -0.19230769       0.20000000       0.27272727 </v>
   <v>      -0.15384615       0.20000000       0.27272727 </v>
   <v>      -0.11538462       0.20000000       0.27272727 </v>
   <v>      -0.07692308       0.20000000       0.27272727 </v>
   <v>      -0.03846154       0.20000000       0.27272727 </v>
   <v>       0.00000000       0.26666667       0.27272727 </v>
   <v>       0.03846154       0.26666667       0.27272727 </v>
   <v>       0.07692308       0.26666667       0.27272727 </v>
   <v>       0.11538462       0.26666667       0.27272727 </v>
   <v>       0.15384615       0.26666667       0.27272727 </v>
   <v>       0.19230769       0.26666667       0.27272727 </v>
   <v>       0.23076923       0.26666667       0.27272727 </v>
   <v>       0.26923077       0.26666667       0.27272727 </v>
   <v>       0.30769231       0.26666667       0.27272727 </v>
   <v>       0.34615385       0.26666667       0.27272727 </v>
   <v>       0.38461538       0.26666667       0.27272727 </v>
   <v>       0.42307692       0.26666667       0.27272727 </v>
   <v>       0.46153846       0.26666667       0.27272727 </v>
   <v>       0.50000000       0.26666667       0.27272727 </v>
   <v>      -0.46153846       0.26666667       0.27272727 </v>
   <v>      -0.42307692       0.26666667       0.27272727 </v>
   <v>      -0.38461538       0.26666667       0.27272727 </v>
   <v>      -0.34615385       0.26666667       0.27272727 </v>
   <v>      -0.30769231       0.26666667       0.27272727 </v>
   <v>      -0.26923077       0.26666667       0.27272727 </v>
   <v>      -0.23076923       0.26666667       0.27272727 </v>
   <v>      -0.19230769       0.26666667       0.27272727 </v>
   <v>      -0.15384615       0.26666667       0.27272727 </v>
   <v>      -0.11538462       0.26666667       0.27272727 </v>
   <v>      -0.07692308       0.26666667       0.27272727 </v>
   <v>      -0.03846154       0.26666667       0.27272727 </v>
   <v>       0.00000000       0.33333333       0.27272727 </v>
   <v>       0.03846154       0.33333333       0.27272727 </v>
   <v>       0.07692308       0.33333333       0.27272727 </v>
   <v>       0.11538462       0.33333333       0.27272727 </v>
   <v>       0.15384615       0.33333333       0.27272727 </v>
   <v>       0.19230769       0.33333333       0.27272727 </v>
   <v>       0.23076923       0.33333333       0.27272727 </v>
   <v>       0.26923077       0.33333333       0.27272727 </v>
   <v>       0.30769231       0.33333333       0.27272727 </v>
   <v>       0.34615385       0.33333333       0.27272727 </v>
   <v>       0.38461538       0.33333333       0.27272727 </v>
   <v>       0.42307692       0.33333333       0.27272727 </v>
   <v>       0.46153846       0.33333333       0.27272727 </v>
   <v>       0.50000000       0.33333333       0.27272727 </v>
   <v>      -0.46153846       0.33333333       0.27272727 </v>
   <v>      -0.42307692       0.33333333       0.27272727 </v>
   <v>      -0.38461538       0.33333333       0.27272727 </v>
   <v>      -0.34615385       0.33333333       0.27272727 </v>
   <v>      -0.30769231       0.33333333       0.27272727 </v>
   <v>      -0.26923077       0.33333333       0.27272727 </v>
   <v>      -0.23076923       0.33333333       0.27272727 </v>
   <v>      -0.19230769       0.33333333       0.27272727 </v>
   <v>      -0.15384615       0.33333333       0.27272727 </v>
   <v>      -0.11538462       0.33333333       0.27272727 </v>
   <v>      -0.07692308       0.33333333       0.27272727 </v>
   <v>      -0.03846154       0.33333333       0.27272727 </v>
   <v>       0.00000000       0.40000000       0.27272727 </v>
   <v>       0.03846154       0.40000000       0.27272727 </v>
   <v>       0.07692308       0.40000000       0.27272727 </v>
   <v>       0.11538462       0.40000000       0.27272727 </v>
   <v>       0.15384615       0.40000000       0.27272727 </v>
   <v>       0.19230769       0.40000000       0.27272727 </v>
   <v>       0.23076923       0.40000000       0.27272727 </v>
   <v>       0.26923077       0.40000000       0.27272727 </v>
   <v>       0.30769231       0.40000000       0.27272727 </v>
   <v>       0.34615385       0.40000000       0.27272727 </v>
   <v>       0.38461538       0.40000000       0.27272727 </v>
   <v>       0.42307692       0.40000000       0.27272727 </v>
   <v>       0.46153846       0.40000000       0.27272727 </v>
   <v>       0.50000000       0.40000000       0.27272727 </v>
   <v>      -0.46153846       0.40000000       0.27272727 </v>
   <v>      -0.42307692       0.40000000       0.27272727 </v>
   <v>      -0.38461538       0.40000000       0.27272727 </v>
   <v>      -0.34615385       0.40000000       0.27272727 </v>
   <v>      -0.30769231       0.40000000       0.27272727 </v>
   <v>      -0.26923077       0.40000000       0.27272727 </v>
   <v>      -0.23076923       0.40000000       0.27272727 </v>
   <v>      -0.19230769       0.40000000       0.27272727 </v>
   <v>      -0.15384615       0.40000000       0.27272727 </v>
   <v>      -0.11538462       0.40000000       0.27272727 </v>
   <v>      -0.07692308       0.40000000       0.27272727 </v>
   <v>      -0.03846154       0.40000000       0.27272727 </v>
   <v>       0.00000000       0.46666667       0.27272727 </v>
   <v>       0.03846154       0.46666667       0.27272727 </v>
   <v>       0.07692308       0.46666667       0.27272727 </v>
   <v>       0.11538462       0.46666667       0.27272727 </v>
   <v>       0.15384615       0.46666667       0.27272727 </v>
   <v>       0.19230769       0.46666667       0.27272727 </v>
   <v>       0.23076923       0.46666667       0.27272727 </v>
   <v>       0.26923077       0.46666667       0.27272727 </v>
   <v>       0.30769231       0.46666667       0.27272727 </v>
   <v>       0.34615385       0.46666667       0.27272727 </v>
   <v>       0.38461538       0.46666667       0.27272727 </v>
   <v>       0.42307692       0.46666667       0.27272727 </v>
   <v>       0.46153846       0.46666667       0.27272727 </v>
   <v>       0.50000000       0.46666667       0.27272727 </v>
   <v>      -0.46153846       0.46666667       0.27272727 </v>
   <v>      -0.42307692       0.46666667       0.27272727 </v>
   <v>      -0.38461538       0.46666667       0.27272727 </v>
   <v>      -0.34615385       0.46666667       0.27272727 </v>
   <v>      -0.30769231       0.46666667       0.27272727 </v>
   <v>      -0.26923077       0.46666667       0.27272727 </v>
   <v>      -0.23076923       0.46666667       0.27272727 </v>
   <v>      -0.19230769       0.46666667       0.27272727 </v>
   <v>      -0.15384615       0.46666667       0.27272727 </v>
   <v>      -0.11538462       0.46666667       0.27272727 </v>
   <v>      -0.07692308       0.46666667       0.27272727 </v>
   <v>      -0.03846154       0.46666667       0.27272727 </v>
   <v>       0.00000000      -0.46666667       0.27272727 </v>
   <v>       0.03846154      -0.46666667       0.27272727 </v>
   <v>       0.07692308      -0.46666667       0.27272727 </v>
   <v>       0.11538462      -0.46666667       0.27272727 </v>
   <v>       0.15384615      -0.46666667       0.27272727 </v>
   <v>       0.19230769      -0.46666667       0.27272727 </v>
   <v>       0.23076923      -0.46666667       0.27272727 </v>
   <v>       0.26923077      -0.46666667       0.27272727 </v>
   <v>       0.30769231      -0.46666667       0.27272727 </v>
   <v>       0.34615385      -0.46666667       0.27272727 </v>
   <v>       0.38461538      -0.46666667       0.27272727 </v>
   <v>       0.42307692      -0.46666667       0.27272727 </v>
   <v>       0.46153846      -0.46666667       0.27272727 </v>
   <v>       0.50000000      -0.46666667       0.27272727 </v>
   <v>      -0.46153846      -0.46666667       0.27272727 </v>
   <v>      -0.42307692      -0.46666667       0.27272727 </v>
   <v>      -0.38461538      -0.46666667       0.27272727 </v>
   <v>      -0.34615385      -0.46666667       0.27272727 </v>
   <v>      -0.30769231      -0.46666667       0.27272727 </v>
   <v>      -0.26923077      -0.46666667       0.27272727 </v>
   <v>      -0.23076923      -0.46666667       0.27272727 </v>
   <v>      -0.19230769      -0.46666667       0.27272727 </v>
   <v>      -0.15384615      -0.46666667       0.27272727 </v>
   <v>      -0.11538462      -0.46666667       0.27272727 </v>
   <v>      -0.07692308      -0.46666667       0.27272727 </v>
   <v>      -0.03846154      -0.46666667       0.27272727 </v>
   <v>       0.00000000      -0.40000000       0.27272727 </v>
   <v>       0.03846154      -0.40000000       0.27272727 </v>
   <v>       0.07692308      -0.40000000       0.27272727 </v>
   <v>       0.11538462      -0.40000000       0.27272727 </v>
   <v>       0.15384615      -0.40000000       0.27272727 </v>
   <v>       0.19230769      -0.40000000       0.27272727 </v>
   <v>       0.23076923      -0.40000000       0.27272727 </v>
   <v>       0.26923077      -0.40000000       0.27272727 </v>
   <v>       0.30769231      -0.40000000       0.27272727 </v>
   <v>       0.34615385      -0.40000000       0.27272727 </v>
   <v>       0.38461538      -0.40000000       0.27272727 </v>
   <v>       0.42307692      -0.40000000       0.27272727 </v>
   <v>       0.46153846      -0.40000000       0.27272727 </v>
   <v>       0.50000000      -0.40000000       0.27272727 </v>
   <v>      -0.46153846      -0.40000000       0.27272727 </v>
   <v>      -0.42307692      -0.40000000       0.27272727 </v>
   <v>      -0.38461538      -0.40000000       0.27272727 </v>
   <v>      -0.34615385      -0.40000000       0.27272727 </v>
   <v>      -0.30769231      -0.40000000       0.27272727 </v>
   <v>      -0.26923077      -0.40000000       0.27272727 </v>
   <v>      -0.23076923      -0.40000000       0.27272727 </v>
   <v>      -0.19230769      -0.40000000       0.27272727 </v>
   <v>      -0.15384615      -0.40000000       0.27272727 </v>
   <v>      -0.11538462      -0.40000000       0.27272727 </v>
   <v>      -0.07692308      -0.40000000       0.27272727 </v>
   <v>      -0.03846154      -0.40000000       0.27272727 </v>
   <v>       0.00000000      -0.33333333       0.27272727 </v>
   <v>       0.03846154      -0.33333333       0.27272727 </v>
   <v>       0.07692308      -0.33333333       0.27272727 </v>
   <v>       0.11538462      -0.33333333       0.27272727 </v>
   <v>       0.15384615      -0.33333333       0.27272727 </v>
   <v>       0.19230769      -0.33333333       0.27272727 </v>
[...]
       <r>    3.6322    1.0000 </r>
       <r>    3.7006    1.0000 </r>
       <r>    3.7991    1.0000 </r>
       <r>    3.8574    1.0000 </r>
       <r>    4.2132    1.0000 </r>
       <r>    4.2699    1.0000 </r>
       <r>    4.3038    1.0000 </r>
       <r>    4.3543    1.0000 </r>
       <r>    4.4772    1.0000 </r>
       <r>    4.5670    1.0000 </r>
       <r>    4.9118    1.0000 </r>
       <r>    5.0875    1.0000 </r>
       <r>    5.1885    1.0000 </r>
       <r>    5.3252    1.0000 </r>
       <r>    5.4625    1.0000 </r>
       <r>    5.6998    1.0000 </r>
       <r>    5.9542    1.0000 </r>
       <r>    6.0915    1.0000 </r>
       <r>    6.1796    1.0000 </r>
       <r>    6.5151    1.0000 </r>
       <r>    8.5790    0.2761 </r>
       <r>   10.1168    0.0000 </r>
       <r>   10.7984    0.0000 </r>
       <r>   12.3887    0.0000 </r>
       <r>   14.3104    0.0000 </r>
       <r>   14.7617    0.0000 </r>
       <r>   16.9615    0.0000 </r>
       <r>   17.1026    0.0000 </r>
       <r>   19.0450    0.0000 </r>
      </set>
      <set comment="kpoint 2145">
       <r>    0.2983    1.0000 </r>
       <r>    1.2544    1.0000 </r>
       <r>    2.0055    1.0000 </r>
       <r>    2.5484    1.0000 </r>
       <r>    3.0004    1.0000 </r>
       <r>    3.0034    1.0000 </r>
       <r>    3.5090    1.0000 </r>
       <r>    3.6507    1.0000 </r>
       <r>    3.6657    1.0000 </r>
       <r>    3.9103    1.0000 </r>
       <r>    3.9723    1.0000 </r>
       <r>    4.1289    1.0000 </r>
       <r>    4.2806    1.0000 </r>
       <r>    4.3209    1.0000 </r>
       <r>    4.3793    1.0000 </r>
       <r>    4.4668    1.0000 </r>
       <r>    4.6685    1.0000 </r>
       <r>    4.9221    1.0000 </r>
       <r>    5.0163    1.0000 </r>
       <r>    5.1955    1.0000 </r>
       <r>    5.4553    1.0000 </r>
       <r>    5.6390    1.0000 </r>
       <r>    5.6873    1.0000 </r>
       <r>    5.8376    1.0000 </r>
       <r>    5.9951    1.0000 </r>
       <r>    6.2613    1.0000 </r>
       <r>    6.4996    1.0000 </r>
       <r>    8.2492    0.9959 </r>
       <r>   10.2753    0.0000 </r>
       <r>   10.8816    0.0000 </r>
       <r>   12.1231    0.0000 </r>
       <r>   13.8187    0.0000 </r>
       <r>   14.3277    0.0000 </r>
       <r>   16.8508    0.0000 </r>
       <r>   17.0358    0.0000 </r>
       <r>   19.9031    0.0000 </r>
      </set>
      <set comment="kpoint 2146">
       <r>    0.2509    1.0000 </r>
       <r>    1.0722    1.0000 </r>
       <r>    1.9016    1.0000 </r>
       <r>    2.4957    1.0000 </r>
       <r>    2.8790    1.0000 </r>
       <r>    3.0568    1.0000 </r>
       <r>    3.5637    1.0000 </r>
       <r>    3.6255    1.0000 </r>
       <r>    3.6641    1.0000 </r>
       <r>    3.9253    1.0000 </r>
       <r>    4.0813    1.0000 </r>
       <r>    4.1128    1.0000 </r>
       <r>    4.2921    1.0000 </r>
       <r>    4.3373    1.0000 </r>
       <r>    4.3922    1.0000 </r>
       <r>    4.4753    1.0000 </r>
       <r>    4.7334    1.0000 </r>
       <r>    4.9128    1.0000 </r>
       <r>    4.9887    1.0000 </r>
       <r>    5.2182    1.0000 </r>
       <r>    5.4242    1.0000 </r>
       <r>    5.6088    1.0000 </r>
       <r>    5.7181    1.0000 </r>
       <r>    5.9308    1.0000 </r>
       <r>    6.0324    1.0000 </r>
       <r>    6.3451    1.0000 </r>
       <r>    6.4850    1.0000 </r>
       <r>    7.9431    1.0128 </r>
       <r>   10.4861    0.0000 </r>
       <r>   11.0181    0.0000 </r>
       <r>   11.9777    0.0000 </r>
       <r>   13.3566    0.0000 </r>
       <r>   13.9303    0.0000 </r>
       <r>   16.7574    0.0000 </r>
       <r>   16.9488    0.0000 </r>
       <r>   20.6815    0.0000 </r>
      </set>
     </set>
    </set>
   </array>
  </eigenvalues>
  <separator name="orbital magnetization" >
   <v name="MAGDIPOLOUT">      0.00000000      0.00000000      0.00000000</v>
  </separator>
  <dos>
   <i name="efermi">      8.49625743 </i>
   <total>
    <array>
     <dimension dim="1">gridpoints</dimension>
     <dimension dim="2">spin</dimension>
     <field>energy</field>
     <field>total</field>
     <field>integrated</field>
     <set>
      <set comment="spin 1">
       <r>    -3.5405     0.0000     0.0000 </r>
       <r>    -3.4450     0.0000     0.0000 </r>
       <r>    -3.3494     0.0000     0.0000 </r>
       <r>    -3.2538     0.0000     0.0000 </r>
       <r>    -3.1583     0.0000     0.0000 </r>
       <r>    -3.0627     0.0000     0.0000 </r>
       <r>    -2.9672     0.0000     0.0000 </r>
       <r>    -2.8716     0.0000     0.0000 </r>
       <r>    -2.7760     0.0000     0.0000 </r>
       <r>    -2.6805     0.0000     0.0000 </r>
       <r>    -2.5849     0.0000     0.0000 </r>
       <r>    -2.4893     0.0000     0.0000 </r>
       <r>    -2.3938     0.0000     0.0000 </r>
       <r>    -2.2982     0.0000     0.0000 </r>
       <r>    -2.2026     0.0000     0.0000 </r>
       <r>    -2.1071     0.0000     0.0000 </r>
       <r>    -2.0115     0.0000     0.0000 </r>
       <r>    -1.9159     0.0000     0.0000 </r>
       <r>    -1.8204     0.0000     0.0000 </r>
       <r>    -1.7248     0.0000     0.0000 </r>
       <r>    -1.6292     0.0000     0.0000 </r>
       <r>    -1.5337     0.0000     0.0000 </r>
       <r>    -1.4381     0.0000     0.0000 </r>
       <r>    -1.3425     0.0000     0.0000 </r>
       <r>    -1.2470    -0.0001     0.0000 </r>
       <r>    -1.1514    -0.0005    -0.0001 </r>
       <r>    -1.0558    -0.0014    -0.0002 </r>
       <r>    -0.9603    -0.0034    -0.0005 </r>
       <r>    -0.8647    -0.0061    -0.0011 </r>
       <r>    -0.7691    -0.0064    -0.0017 </r>
       <r>    -0.6736     0.0019    -0.0015 </r>
       <r>    -0.5780     0.0260     0.0010 </r>
       <r>    -0.4825     0.0692     0.0076 </r>
       <r>    -0.3869     0.1266     0.0197 </r>
       <r>    -0.2913     0.1880     0.0376 </r>
       <r>    -0.1958     0.2447     0.0610 </r>
       <r>    -0.1002     0.2938     0.0891 </r>
       <r>    -0.0046     0.3377     0.1214 </r>
       <r>     0.0909     0.3803     0.1577 </r>
       <r>     0.1865     0.4239     0.1982 </r>
       <r>     0.2821     0.4669     0.2428 </r>
       <r>     0.3776     0.5048     0.2911 </r>
       <r>     0.4732     0.5338     0.3421 </r>
       <r>     0.5688     0.5549     0.3951 </r>
       <r>     0.6643     0.5738     0.4500 </r>
       <r>     0.7599     0.5993     0.5072 </r>
       <r>     0.8555     0.6387     0.5683 </r>
       <r>     0.9510     0.6924     0.6344 </r>
       <r>     1.0466     0.7533     0.7064 </r>
       <r>     1.1422     0.8138     0.7842 </r>
       <r>     1.2377     0.8730     0.8676 </r>
       <r>     1.3333     0.9384     0.9573 </r>
       <r>     1.4289     1.0261     1.0554 </r>
       <r>     1.5244     1.1672     1.1669 </r>
       <r>     1.6200     1.4125     1.3019 </r>
       <r>     1.7156     1.8121     1.4751 </r>
       <r>     1.8111     2.3808     1.7026 </r>
       <r>     1.9067     3.0911     1.9980 </r>
       <r>     2.0022     3.9106     2.3717 </r>
       <r>     2.0978     4.8385     2.8341 </r>
       <r>     2.1934     5.8895     3.3969 </r>
       <r>     2.2889     7.0420     4.0699 </r>
       <r>     2.3845     8.2048     4.8540 </r>
       <r>     2.4801     9.2311     5.7362 </r>
       <r>     2.5756     9.9754     6.6895 </r>
       <r>     2.6712    10.3617     7.6797 </r>
       <r>     2.7668    10.4013     8.6737 </r>
       <r>     2.8623    10.1408     9.6428 </r>
       <r>     2.9579     9.6280    10.5629 </r>
       <r>     3.0535     8.9740    11.4205 </r>
       <r>     3.1490     8.4296    12.2261 </r>
       <r>     3.2446     8.3051    13.0198 </r>
       <r>     3.3402     8.7445    13.8554 </r>
       <r>     3.4357     9.5819    14.7711 </r>
       <r>     3.5313    10.4522    15.7700 </r>
       <r>     3.6269    11.0569    16.8267 </r>
       <r>     3.7224    11.3524    17.9116 </r>
       <r>     3.8180    11.5529    19.0156 </r>
       <r>     3.9136    12.0000    20.1624 </r>
       <r>     4.0091    12.9670    21.4016 </r>
       <r>     4.1047    14.4204    22.7797 </r>
       <r>     4.2002    15.8628    24.2956 </r>
       <r>     4.2958    16.5122    25.8736 </r>
       <r>     4.3914    15.8550    27.3888 </r>
       <r>     4.4869    14.1116    28.7374 </r>
       <r>     4.5825    12.1021    29.8939 </r>
       <r>     4.6781    10.6345    30.9102 </r>
       <r>     4.7736    10.0313    31.8689 </r>
       <r>     4.8692    10.1355    32.8375 </r>
       <r>     4.9648    10.5971    33.8502 </r>
       <r>     5.0603    11.1179    34.9127 </r>
       <r>     5.1559    11.5204    36.0136 </r>
       <r>     5.2515    11.6963    37.1314 </r>
       <r>     5.3470    11.5662    38.2367 </r>
       <r>     5.4426    11.1289    39.3003 </r>
       <r>     5.5382    10.5276    40.3063 </r>
       <r>     5.6337    10.0153    41.2634 </r>
       <r>     5.7293     9.8093    42.2009 </r>
       <r>     5.8249     9.9476    43.1515 </r>
       <r>     5.9204    10.2846    44.1344 </r>
       <r>     6.0160    10.6587    45.1530 </r>
       <r>     6.1116    11.0632    46.2102 </r>
       <r>     6.2071    11.5768    47.3166 </r>
       <r>     6.3027    12.0714    48.4702 </r>
       <r>     6.3983    12.0766    49.6243 </r>
       <r>     6.4938    11.0867    50.6838 </r>
       <r>     6.5894     9.0384    51.5475 </r>
       <r>     6.6849     6.4362    52.1626 </r>
       <r>     6.7805     4.0148    52.5463 </r>
       <r>     6.8761     2.3030    52.7664 </r>
       <r>     6.9716     1.4247    52.9025 </r>
       <r>     7.0672     1.1742    53.0148 </r>
       <r>     7.1628     1.2255    53.1319 </r>
       <r>     7.2583     1.3227    53.2583 </r>
       <r>     7.3539     1.3629    53.3885 </r>
       <r>     7.4495     1.3617    53.5186 </r>
       <r>     7.5450     1.3661    53.6492 </r>
       <r>     7.6406     1.3917    53.7822 </r>
       <r>     7.7362     1.4198    53.9179 </r>
       <r>     7.8317     1.4285    54.0544 </r>
       <r>     7.9273     1.4151    54.1896 </r>
       <r>     8.0229     1.3966    54.3231 </r>
       <r>     8.1184     1.3936    54.4563 </r>
       <r>     8.2140     1.4133    54.5913 </r>
       <r>     8.3096     1.4428    54.7292 </r>
       <r>     8.4051     1.4578    54.8685 </r>
       <r>     8.5007     1.4416    55.0063 </r>
       <r>     8.5963     1.4003    55.1401 </r>
       <r>     8.6918     1.3633    55.2704 </r>
       <r>     8.7874     1.3608    55.4005 </r>
       <r>     8.8829     1.3945    55.5337 </r>
       <r>     8.9785     1.4338    55.6708 </r>
       <r>     9.0741     1.4455    55.8089 </r>
       <r>     9.1696     1.4244    55.9450 </r>
       <r>     9.2652     1.3901    56.0779 </r>
       <r>     9.3608     1.3637    56.2082 </r>
       <r>     9.4563     1.3541    56.3376 </r>
       <r>     9.5519     1.3609    56.4677 </r>
       <r>     9.6475     1.3801    56.5995 </r>
       <r>     9.7430     1.4022    56.7335 </r>
       <r>     9.8386     1.4135    56.8686 </r>
       <r>     9.9342     1.4049    57.0029 </r>
       <r>    10.0297     1.3781    57.1346 </r>
       <r>    10.1253     1.3418    57.2628 </r>
       <r>    10.2209     1.3070    57.3877 </r>
       <r>    10.3164     1.2867    57.5107 </r>
       <r>    10.4120     1.2912    57.6341 </r>
       <r>    10.5076     1.3159    57.7598 </r>
       <r>    10.6031     1.3370    57.8876 </r>
       <r>    10.6987     1.3299    58.0147 </r>
       <r>    10.7943     1.2906    58.1380 </r>
       <r>    10.8898     1.2388    58.2564 </r>
       <r>    10.9854     1.2027    58.3714 </r>
       <r>    11.0810     1.2061    58.4866 </r>
       <r>    11.1765     1.2639    58.6074 </r>
       <r>    11.2721     1.3790    58.7392 </r>
       <r>    11.3676     1.5360    58.8860 </r>
       <r>    11.4632     1.6984    59.0483 </r>
       <r>    11.5588     1.8213    59.2223 </r>
       <r>    11.6543     1.8717    59.4012 </r>
       <r>    11.7499     1.8416    59.5772 </r>
       <r>    11.8455     1.7525    59.7447 </r>
       <r>    11.9410     1.6484    59.9022 </r>
       <r>    12.0366     1.5752    60.0528 </r>
       <r>    12.1322     1.5518    60.2011 </r>
       <r>    12.2277     1.5618    60.3503 </r>
       <r>    12.3233     1.5710    60.5004 </r>
       <r>    12.4189     1.5538    60.6489 </r>
       <r>    12.5144     1.5066    60.7929 </r>
       <r>    12.6100     1.4493    60.9314 </r>
       <r>    12.7056     1.4123    61.0664 </r>
       <r>    12.8011     1.4153    61.2016 </r>
       <r>    12.8967     1.4501    61.3402 </r>
       <r>    12.9923     1.4887    61.4825 </r>
       <r>    13.0878     1.5131    61.6271 </r>
       <r>    13.1834     1.5332    61.7736 </r>
       <r>    13.2790     1.5701    61.9236 </r>
       <r>    13.3745     1.6271    62.0791 </r>
       <r>    13.4701     1.6861    62.2403 </r>
       <r>    13.5657     1.7295    62.4055 </r>
       <r>    13.6612     1.7566    62.5734 </r>
       <r>    13.7568     1.7782    62.7433 </r>
       <r>    13.8523     1.8005    62.9154 </r>
       <r>    13.9479     1.8185    63.0892 </r>
       <r>    14.0435     1.8223    63.2634 </r>
       <r>    14.1390     1.8071    63.4361 </r>
       <r>    14.2346     1.7750    63.6057 </r>
       <r>    14.3302     1.7290    63.7709 </r>
       <r>    14.4257     1.6703    63.9305 </r>
       <r>    14.5213     1.6035    64.0838 </r>
       <r>    14.6169     1.5426    64.2312 </r>
       <r>    14.7124     1.5068    64.3752 </r>
       <r>    14.8080     1.5062    64.5191 </r>
       <r>    14.9036     1.5299    64.6653 </r>
       <r>    14.9991     1.5493    64.8134 </r>
       <r>    15.0947     1.5379    64.9604 </r>
       <r>    15.1903     1.4970    65.1034 </r>
       <r>    15.2858     1.4648    65.2434 </r>
       <r>    15.3814     1.4906    65.3859 </r>
       <r>    15.4770     1.5917    65.5380 </r>
       <r>    15.5725     1.7334    65.7036 </r>
       <r>    15.6681     1.8537    65.8808 </r>
       <r>    15.7637     1.9101    66.0633 </r>
       <r>    15.8592     1.9061    66.2455 </r>
       <r>    15.9548     1.8778    66.4249 </r>
       <r>    16.0503     1.8599    66.6027 </r>
       <r>    16.1459     1.8626    66.7807 </r>
       <r>    16.2415     1.8728    66.9596 </r>
       <r>    16.3370     1.8693    67.1383 </r>
       <r>    16.4326     1.8417    67.3143 </r>
       <r>    16.5282     1.7999    67.4863 </r>
       <r>    16.6237     1.7630    67.6548 </r>
       <r>    16.7193     1.7406    67.8211 </r>
       <r>    16.8149     1.7255    67.9860 </r>
       <r>    16.9104     1.7053    68.1490 </r>
       <r>    17.0060     1.6740    68.3090 </r>
       <r>    17.1016     1.6327    68.4650 </r>
       <r>    17.1971     1.5838    68.6163 </r>
       <r>    17.2927     1.5324    68.7628 </r>
       <r>    17.3883     1.4901    68.9052 </r>
       <r>    17.4838     1.4672    69.0454 </r>
       <r>    17.5794     1.4602    69.1849 </r>
       <r>    17.6750     1.4531    69.3238 </r>
       <r>    17.7705     1.4315    69.4606 </r>
       <r>    17.8661     1.3913    69.5936 </r>
       <r>    17.9617     1.3382    69.7215 </r>
       <r>    18.0572     1.2852    69.8443 </r>
       <r>    18.1528     1.2483    69.9636 </r>
       <r>    18.2484     1.2360    70.0817 </r>
       <r>    18.3439     1.2384    70.2001 </r>
       <r>    18.4395     1.2347    70.3181 </r>
       <r>    18.5350     1.2120    70.4339 </r>
       <r>    18.6306     1.1765    70.5463 </r>
       <r>    18.7262     1.1395    70.6552 </r>
       <r>    18.8217     1.1011    70.7604 </r>
       <r>    18.9173     1.0536    70.8611 </r>
       <r>    19.0129     0.9986    70.9566 </r>
       <r>    19.1084     0.9490    71.0472 </r>
       <r>    19.2040     0.9135    71.1345 </r>
       <r>    19.2996     0.8850    71.2191 </r>
       <r>    19.3951     0.8485    71.3002 </r>
       <r>    19.4907     0.7974    71.3764 </r>
       <r>    19.5863     0.7379    71.4469 </r>
       <r>    19.6818     0.6800    71.5119 </r>
       <r>    19.7774     0.6281    71.5719 </r>
       <r>    19.8730     0.5806    71.6274 </r>
       <r>    19.9685     0.5355    71.6786 </r>
       <r>    20.0641     0.4910    71.7255 </r>
       <r>    20.1597     0.4410    71.7677 </r>
       <r>    20.2552     0.3782    71.8038 </r>
       <r>    20.3508     0.3049    71.8329 </r>
       <r>    20.4464     0.2379    71.8557 </r>
       <r>    20.5419     0.1953    71.8743 </r>
       <r>    20.6375     0.1783    71.8914 </r>
       <r>    20.7331     0.1711    71.9077 </r>
       <r>    20.8286     0.1580    71.9228 </r>
       <r>    20.9242     0.1368    71.9359 </r>
       <r>    21.0197     0.1159    71.9470 </r>
       <r>    21.1153     0.1010    71.9566 </r>
       <r>    21.2109     0.0901    71.9652 </r>
       <r>    21.3064     0.0791    71.9728 </r>
       <r>    21.4020     0.0679    71.9793 </r>
       <r>    21.4976     0.0583    71.9849 </r>
       <r>    21.5931     0.0498    71.9896 </r>
       <r>    21.6887     0.0399    71.9934 </r>
       <r>    21.7843     0.0282    71.9961 </r>
       <r>    21.8798     0.0173    71.9978 </r>
       <r>    21.9754     0.0100    71.9987 </r>
       <r>    22.0710     0.0062    71.9993 </r>
       <r>    22.1665     0.0042    71.9997 </r>
       <r>    22.2621     0.0025    72.0000 </r>
       <r>    22.3577     0.0010    72.0001 </r>
       <r>    22.4532     0.0001    72.0001 </r>
       <r>    22.5488    -0.0003    72.0000 </r>
       <r>    22.6444    -0.0003    72.0000 </r>
       <r>    22.7399    -0.0002    72.0000 </r>
       <r>    22.8355    -0.0001    72.0000 </r>
       <r>    22.9311     0.0000    72.0000 </r>
       <r>    23.0266     0.0000    72.0000 </r>
       <r>    23.1222     0.0000    72.0000 </r>
       <r>    23.2177     0.0000    72.0000 </r>
       <r>    23.3133     0.0000    72.0000 </r>
       <r>    23.4089     0.0000    72.0000 </r>
       <r>    23.5044     0.0000    72.0000 </r>
       <r>    23.6000     0.0000    72.0000 </r>
       <r>    23.6956     0.0000    72.0000 </r>
       <r>    23.7911     0.0000    72.0000 </r>
       <r>    23.8867     0.0000    72.0000 </r>
       <r>    23.9823     0.0000    72.0000 </r>
       <r>    24.0778     0.0000    72.0000 </r>
       <r>    24.1734     0.0000    72.0000 </r>
       <r>    24.2690     0.0000    72.0000 </r>
       <r>    24.3645     0.0000    72.0000 </r>
       <r>    24.4601     0.0000    72.0000 </r>
       <r>    24.5557     0.0000    72.0000 </r>
       <r>    24.6512     0.0000    72.0000 </r>
       <r>    24.7468     0.0000    72.0000 </r>
       <r>    24.8424     0.0000    72.0000 </r>
       <r>    24.9379     0.0000    72.0000 </r>
       <r>    25.0335     0.0000    72.0000 </r>
       <r>    25.1291     0.0000    72.0000 </r>
      </set>
     </set>
    </array>
   </total>
  </dos>
 </calculation>
 <structure name="finalpos" >
  <crystal>
   <varray name="basis" >
    <v>       0.00000000      -2.06263269      -2.06263269 </v>
    <v>      -2.08556286       4.14336209      -2.08072940 </v>
    <v>       6.26730202       2.07220129      -0.00956860 </v>
   </varray>
   <i name="volume">     89.41496878 </i>
   <varray name="rec_basis" >
    <v>       0.04777773      -0.14606632      -0.33875097 </v>
    <v>      -0.04802246       0.14457470      -0.14457470 </v>
    <v>       0.14357791       0.04810996      -0.04810996 </v>
   </varray>
  </crystal>
  <varray name="positions" >
   <v>       0.20000000       0.80000000       0.60000000 </v>
   <v>       0.99948161       0.99834255       0.00062067 </v>
   <v>       0.80239852       0.20297097       0.40182607 </v>
   <v>       0.59760148       0.39702903       0.79817393 </v>
   <v>       0.40051839       0.60165745       0.19937933 </v>
  </varray>
 </structure>
</modeling>
