<?xml version="1.0" encoding="ISO-8859-1"?>
<modeling>
 <generator>
  <i name="program" type="string">vasp </i>
  <i name="version" type="string">5.3.5  </i>
  <i name="subversion" type="string">31Mar14 (build Jun 20 2014 13:15:13) complex                          parallel </i>
  <i name="platform" type="string">LinuxIFC </i>
  <i name="date" type="string">2025 11 28 </i>
  <i name="time" type="string">12:19:33 </i>
 </generator>
 <incar>
  <i type="string" name="PREC">accurate</i>
  <i type="int" name="IALGO">    68</i>
  <i type="logical" name="ADDGRID"> T  </i>
  <i type="int" name="NELM">   200</i>
  <i type="int" name="NELMIN">     4</i>
  <i type="int" name="IBRION">     2</i>
  <i name="EDIFF">      0.00000100</i>
  <i name="EDIFFG">     -0.02000000</i>
  <i type="int" name="NSW">    30</i>
  <i type="int" name="ISIF">     3</i>
  <i name="ENCUT">    500.00000000</i>
  <i type="logical" name="LREAL"> F  </i>
  <i type="int" name="ISMEAR">     1</i>
  <i name="SIGMA">      0.30000000</i>
  <i type="logical" name="LWAVE"> F  </i>
  <i type="logical" name="LCHARG"> F  </i>
  <i type="int" name="NELM">   200</i>
 </incar>
 <kpoints>
  <generation param="Auto">
   <i name="subdivisionlength">     70.00000000 </i>
   <v type="int" name="divisions">      24       24        6 </v>
   <v name="usershift">      0.00000000       0.00000000       0.00000000 </v>
   <v name="genvec1">      0.04166667       0.00000000       0.00000000 </v>
   <v name="genvec2">      0.00000000       0.04166667       0.00000000 </v>
   <v name="genvec3">      0.00000000       0.00000000       0.16666667 </v>
   <v name="shift">      0.00000000       0.00000000       0.00000000 </v>
  </generation>
  <varray name="kpointlist" >
   <v>       0.00000000       0.00000000       0.00000000 </v>
   <v>       0.04166667       0.00000000       0.00000000 </v>
   <v>       0.08333333       0.00000000       0.00000000 </v>
   <v>       0.12500000       0.00000000       0.00000000 </v>
   <v>       0.16666667       0.00000000       0.00000000 </v>
   <v>       0.20833333       0.00000000       0.00000000 </v>
   <v>       0.25000000       0.00000000       0.00000000 </v>
   <v>       0.29166667       0.00000000       0.00000000 </v>
   <v>       0.33333333       0.00000000       0.00000000 </v>
   <v>       0.37500000       0.00000000       0.00000000 </v>
   <v>       0.41666667       0.00000000       0.00000000 </v>
   <v>       0.45833333       0.00000000       0.00000000 </v>
   <v>       0.50000000       0.00000000       0.00000000 </v>
   <v>       0.04166667       0.04166667       0.00000000 </v>
   <v>       0.08333333       0.04166667       0.00000000 </v>
   <v>       0.12500000       0.04166667       0.00000000 </v>
   <v>       0.16666667       0.04166667       0.00000000 </v>
   <v>       0.20833333       0.04166667       0.00000000 </v>
   <v>       0.25000000       0.04166667       0.00000000 </v>
   <v>       0.29166667       0.04166667       0.00000000 </v>
   <v>       0.33333333       0.04166667       0.00000000 </v>
   <v>       0.37500000       0.04166667       0.00000000 </v>
   <v>       0.41666667       0.04166667       0.00000000 </v>
   <v>       0.45833333       0.04166667       0.00000000 </v>
   <v>       0.50000000       0.04166667       0.00000000 </v>
   <v>       0.08333333       0.08333333       0.00000000 </v>
   <v>       0.12500000       0.08333333       0.00000000 </v>
   <v>       0.16666667       0.08333333       0.00000000 </v>
   <v>       0.20833333       0.08333333       0.00000000 </v>
   <v>       0.25000000       0.08333333       0.00000000 </v>
   <v>       0.29166667       0.08333333       0.00000000 </v>
   <v>       0.33333333       0.08333333       0.00000000 </v>
   <v>       0.37500000       0.08333333       0.00000000 </v>
   <v>       0.41666667       0.08333333       0.00000000 </v>
   <v>       0.45833333       0.08333333       0.00000000 </v>
   <v>       0.50000000       0.08333333       0.00000000 </v>
   <v>       0.12500000       0.12500000       0.00000000 </v>
   <v>       0.16666667       0.12500000       0.00000000 </v>
   <v>       0.20833333       0.12500000       0.00000000 </v>
   <v>       0.25000000       0.12500000       0.00000000 </v>
   <v>       0.29166667       0.12500000       0.00000000 </v>
   <v>       0.33333333       0.12500000       0.00000000 </v>
   <v>       0.37500000       0.12500000       0.00000000 </v>
   <v>       0.41666667       0.12500000       0.00000000 </v>
   <v>       0.45833333       0.12500000       0.00000000 </v>
   <v>       0.50000000       0.12500000       0.00000000 </v>
   <v>       0.16666667       0.16666667       0.00000000 </v>
   <v>       0.20833333       0.16666667       0.00000000 </v>
   <v>       0.25000000       0.16666667       0.00000000 </v>
   <v>       0.29166667       0.16666667       0.00000000 </v>
   <v>       0.33333333       0.16666667       0.00000000 </v>
   <v>       0.37500000       0.16666667       0.00000000 </v>
   <v>       0.41666667       0.16666667       0.00000000 </v>
   <v>       0.45833333       0.16666667       0.00000000 </v>
   <v>       0.50000000       0.16666667       0.00000000 </v>
   <v>       0.20833333       0.20833333       0.00000000 </v>
   <v>       0.25000000       0.20833333       0.00000000 </v>
   <v>       0.29166667       0.20833333       0.00000000 </v>
   <v>       0.33333333       0.20833333       0.00000000 </v>
   <v>       0.37500000       0.20833333       0.00000000 </v>
   <v>       0.41666667       0.20833333       0.00000000 </v>
   <v>       0.45833333       0.20833333       0.00000000 </v>
   <v>       0.50000000       0.20833333       0.00000000 </v>
   <v>       0.25000000       0.25000000       0.00000000 </v>
   <v>       0.29166667       0.25000000       0.00000000 </v>
   <v>       0.33333333       0.25000000       0.00000000 </v>
   <v>       0.37500000       0.25000000       0.00000000 </v>
   <v>       0.41666667       0.25000000       0.00000000 </v>
   <v>       0.45833333       0.25000000       0.00000000 </v>
   <v>       0.50000000       0.25000000       0.00000000 </v>
   <v>       0.29166667       0.29166667       0.00000000 </v>
   <v>       0.33333333       0.29166667       0.00000000 </v>
   <v>       0.37500000       0.29166667       0.00000000 </v>
   <v>       0.41666667       0.29166667       0.00000000 </v>
   <v>       0.45833333       0.29166667       0.00000000 </v>
   <v>       0.50000000       0.29166667       0.00000000 </v>
   <v>       0.33333333       0.33333333       0.00000000 </v>
   <v>       0.37500000       0.33333333       0.00000000 </v>
   <v>       0.41666667       0.33333333       0.00000000 </v>
   <v>       0.45833333       0.33333333       0.00000000 </v>
   <v>       0.50000000       0.33333333       0.00000000 </v>
   <v>       0.37500000       0.37500000       0.00000000 </v>
   <v>       0.41666667       0.37500000       0.00000000 </v>
   <v>       0.45833333       0.37500000       0.00000000 </v>
   <v>       0.50000000       0.37500000       0.00000000 </v>
   <v>       0.41666667       0.41666667       0.00000000 </v>
   <v>       0.45833333       0.41666667       0.00000000 </v>
   <v>       0.50000000       0.41666667       0.00000000 </v>
   <v>       0.45833333       0.45833333       0.00000000 </v>
   <v>       0.50000000       0.45833333       0.00000000 </v>
   <v>       0.50000000       0.50000000       0.00000000 </v>
   <v>       0.00000000       0.00000000       0.16666667 </v>
   <v>       0.04166667       0.00000000       0.16666667 </v>
   <v>       0.08333333       0.00000000       0.16666667 </v>
   <v>       0.12500000       0.00000000       0.16666667 </v>
   <v>       0.16666667       0.00000000       0.16666667 </v>
   <v>       0.20833333       0.00000000       0.16666667 </v>
   <v>       0.25000000       0.00000000       0.16666667 </v>
   <v>       0.29166667       0.00000000       0.16666667 </v>
   <v>       0.33333333       0.00000000       0.16666667 </v>
   <v>       0.37500000       0.00000000       0.16666667 </v>
   <v>       0.41666667       0.00000000       0.16666667 </v>
   <v>       0.45833333       0.00000000       0.16666667 </v>
   <v>       0.50000000       0.00000000       0.16666667 </v>
   <v>       0.04166667       0.04166667       0.16666667 </v>
   <v>       0.08333333       0.04166667       0.16666667 </v>
   <v>       0.12500000       0.04166667       0.16666667 </v>
   <v>       0.16666667       0.04166667       0.16666667 </v>
   <v>       0.20833333       0.04166667       0.16666667 </v>
   <v>       0.25000000       0.04166667       0.16666667 </v>
   <v>       0.29166667       0.04166667       0.16666667 </v>
   <v>       0.33333333       0.04166667       0.16666667 </v>
   <v>       0.37500000       0.04166667       0.16666667 </v>
   <v>       0.41666667       0.04166667       0.16666667 </v>
   <v>       0.45833333       0.04166667       0.16666667 </v>
   <v>       0.50000000       0.04166667       0.16666667 </v>
   <v>       0.08333333       0.08333333       0.16666667 </v>
   <v>       0.12500000       0.08333333       0.16666667 </v>
   <v>       0.16666667       0.08333333       0.16666667 </v>
   <v>       0.20833333       0.08333333       0.16666667 </v>
   <v>       0.25000000       0.08333333       0.16666667 </v>
   <v>       0.29166667       0.08333333       0.16666667 </v>
   <v>       0.33333333       0.08333333       0.16666667 </v>
   <v>       0.37500000       0.08333333       0.16666667 </v>
   <v>       0.41666667       0.08333333       0.16666667 </v>
   <v>       0.45833333       0.08333333       0.16666667 </v>
   <v>       0.50000000       0.08333333       0.16666667 </v>
   <v>       0.12500000       0.12500000       0.16666667 </v>
   <v>       0.16666667       0.12500000       0.16666667 </v>
   <v>       0.20833333       0.12500000       0.16666667 </v>
   <v>       0.25000000       0.12500000       0.16666667 </v>
   <v>       0.29166667       0.12500000       0.16666667 </v>
   <v>       0.33333333       0.12500000       0.16666667 </v>
   <v>       0.37500000       0.12500000       0.16666667 </v>
   <v>       0.41666667       0.12500000       0.16666667 </v>
   <v>       0.45833333       0.12500000       0.16666667 </v>
   <v>       0.50000000       0.12500000       0.16666667 </v>
   <v>       0.16666667       0.16666667       0.16666667 </v>
   <v>       0.20833333       0.16666667       0.16666667 </v>
   <v>       0.25000000       0.16666667       0.16666667 </v>
   <v>       0.29166667       0.16666667       0.16666667 </v>
   <v>       0.33333333       0.16666667       0.16666667 </v>
   <v>       0.37500000       0.16666667       0.16666667 </v>
   <v>       0.41666667       0.16666667       0.16666667 </v>
   <v>       0.45833333       0.16666667       0.16666667 </v>
   <v>       0.50000000       0.16666667       0.16666667 </v>
   <v>       0.20833333       0.20833333       0.16666667 </v>
   <v>       0.25000000       0.20833333       0.16666667 </v>
   <v>       0.29166667       0.20833333       0.16666667 </v>
   <v>       0.33333333       0.20833333       0.16666667 </v>
   <v>       0.37500000       0.20833333       0.16666667 </v>
   <v>       0.41666667       0.20833333       0.16666667 </v>
   <v>       0.45833333       0.20833333       0.16666667 </v>
   <v>       0.50000000       0.20833333       0.16666667 </v>
   <v>       0.25000000       0.25000000       0.16666667 </v>
   <v>       0.29166667       0.25000000       0.16666667 </v>
   <v>       0.33333333       0.25000000       0.16666667 </v>
   <v>       0.37500000       0.25000000       0.16666667 </v>
   <v>       0.41666667       0.25000000       0.16666667 </v>
   <v>       0.45833333       0.25000000       0.16666667 </v>
   <v>       0.50000000       0.25000000       0.16666667 </v>
   <v>       0.29166667       0.29166667       0.16666667 </v>
   <v>       0.33333333       0.29166667       0.16666667 </v>
   <v>       0.37500000       0.29166667       0.16666667 </v>
   <v>       0.41666667       0.29166667       0.16666667 </v>
   <v>       0.45833333       0.29166667       0.16666667 </v>
   <v>       0.50000000       0.29166667       0.16666667 </v>
   <v>       0.33333333       0.33333333       0.16666667 </v>
   <v>       0.37500000       0.33333333       0.16666667 </v>
   <v>       0.41666667       0.33333333       0.16666667 </v>
   <v>       0.45833333       0.33333333       0.16666667 </v>
   <v>       0.50000000       0.33333333       0.16666667 </v>
   <v>       0.37500000       0.37500000       0.16666667 </v>
   <v>       0.41666667       0.37500000       0.16666667 </v>
   <v>       0.45833333       0.37500000       0.16666667 </v>
   <v>       0.50000000       0.37500000       0.16666667 </v>
   <v>       0.41666667       0.41666667       0.16666667 </v>
   <v>       0.45833333       0.41666667       0.16666667 </v>
   <v>       0.50000000       0.41666667       0.16666667 </v>
   <v>       0.45833333       0.45833333       0.16666667 </v>
   <v>       0.50000000       0.45833333       0.16666667 </v>
   <v>       0.50000000       0.50000000       0.16666667 </v>
   <v>       0.00000000       0.00000000       0.33333333 </v>
   <v>       0.04166667       0.00000000       0.33333333 </v>
   <v>       0.08333333       0.00000000       0.33333333 </v>
   <v>       0.12500000       0.00000000       0.33333333 </v>
   <v>       0.16666667       0.00000000       0.33333333 </v>
   <v>       0.20833333       0.00000000       0.33333333 </v>
   <v>       0.25000000       0.00000000       0.33333333 </v>
   <v>       0.29166667       0.00000000       0.33333333 </v>
   <v>       0.33333333       0.00000000       0.33333333 </v>
   <v>       0.37500000       0.00000000       0.33333333 </v>
   <v>       0.41666667       0.00000000       0.33333333 </v>
   <v>       0.45833333       0.00000000       0.33333333 </v>
   <v>       0.50000000       0.00000000       0.33333333 </v>
   <v>       0.04166667       0.04166667       0.33333333 </v>
   <v>       0.08333333       0.04166667       0.33333333 </v>
   <v>       0.12500000       0.04166667       0.33333333 </v>
   <v>       0.16666667       0.04166667       0.33333333 </v>
   <v>       0.20833333       0.04166667       0.33333333 </v>
   <v>       0.25000000       0.04166667       0.33333333 </v>
   <v>       0.29166667       0.04166667       0.33333333 </v>
   <v>       0.33333333       0.04166667       0.33333333 </v>
   <v>       0.37500000       0.04166667       0.33333333 </v>
   <v>       0.41666667       0.04166667       0.33333333 </v>
   <v>       0.45833333       0.04166667       0.33333333 </v>
   <v>       0.50000000       0.04166667       0.33333333 </v>
   <v>       0.08333333       0.08333333       0.33333333 </v>
   <v>       0.12500000       0.08333333       0.33333333 </v>
   <v>       0.16666667       0.08333333       0.33333333 </v>
   <v>       0.20833333       0.08333333       0.33333333 </v>
   <v>       0.25000000       0.08333333       0.33333333 </v>
   <v>       0.29166667       0.08333333       0.33333333 </v>
   <v>       0.33333333       0.08333333       0.33333333 </v>
   <v>       0.37500000       0.08333333       0.33333333 </v>
   <v>       0.41666667       0.08333333       0.33333333 </v>
   <v>       0.45833333       0.08333333       0.33333333 </v>
   <v>       0.50000000       0.08333333       0.33333333 </v>
   <v>       0.12500000       0.12500000       0.33333333 </v>
   <v>       0.16666667       0.12500000       0.33333333 </v>
   <v>       0.20833333       0.12500000       0.33333333 </v>
   <v>       0.25000000       0.12500000       0.33333333 </v>
   <v>       0.29166667       0.12500000       0.33333333 </v>
   <v>       0.33333333       0.12500000       0.33333333 </v>
   <v>       0.37500000       0.12500000       0.33333333 </v>
   <v>       0.41666667       0.12500000       0.33333333 </v>
   <v>       0.45833333       0.12500000       0.33333333 </v>
   <v>       0.50000000       0.12500000       0.33333333 </v>
   <v>       0.16666667       0.16666667       0.33333333 </v>
   <v>       0.20833333       0.16666667       0.33333333 </v>
   <v>       0.25000000       0.16666667       0.33333333 </v>
   <v>       0.29166667       0.16666667       0.33333333 </v>
   <v>       0.33333333       0.16666667       0.33333333 </v>
   <v>       0.37500000       0.16666667       0.33333333 </v>
   <v>       0.41666667       0.16666667       0.33333333 </v>
   <v>       0.45833333       0.16666667       0.33333333 </v>
   <v>       0.50000000       0.16666667       0.33333333 </v>
   <v>       0.20833333       0.20833333       0.33333333 </v>
   <v>       0.25000000       0.20833333       0.33333333 </v>
   <v>       0.29166667       0.20833333       0.33333333 </v>
   <v>       0.33333333       0.20833333       0.33333333 </v>
   <v>       0.37500000       0.20833333       0.33333333 </v>
   <v>       0.41666667       0.20833333       0.33333333 </v>
   <v>       0.45833333       0.20833333       0.33333333 </v>
   <v>       0.50000000       0.20833333       0.33333333 </v>
   <v>       0.25000000       0.25000000       0.33333333 </v>
   <v>       0.29166667       0.25000000       0.33333333 </v>
   <v>       0.33333333       0.25000000       0.33333333 </v>
   <v>       0.37500000       0.25000000       0.33333333 </v>
   <v>       0.41666667       0.25000000       0.33333333 </v>
   <v>       0.45833333       0.25000000       0.33333333 </v>
   <v>       0.50000000       0.25000000       0.33333333 </v>
   <v>       0.29166667       0.29166667       0.33333333 </v>
   <v>       0.33333333       0.29166667       0.33333333 </v>
   <v>       0.37500000       0.29166667       0.33333333 </v>
   <v>       0.41666667       0.29166667       0.33333333 </v>
   <v>       0.45833333       0.29166667       0.33333333 </v>
   <v>       0.50000000       0.29166667       0.33333333 </v>
   <v>       0.33333333       0.33333333       0.33333333 </v>
   <v>       0.37500000       0.33333333       0.33333333 </v>
   <v>       0.41666667       0.33333333       0.33333333 </v>
   <v>       0.45833333       0.33333333       0.33333333 </v>
   <v>       0.50000000       0.33333333       0.33333333 </v>
   <v>       0.37500000       0.37500000       0.33333333 </v>
   <v>       0.41666667       0.37500000       0.33333333 </v>
   <v>       0.45833333       0.37500000       0.33333333 </v>
   <v>       0.50000000       0.37500000       0.33333333 </v>
   <v>       0.41666667       0.41666667       0.33333333 </v>
   <v>       0.45833333       0.41666667       0.33333333 </v>
   <v>       0.50000000       0.41666667       0.33333333 </v>
   <v>       0.45833333       0.45833333       0.33333333 </v>
   <v>       0.50000000       0.45833333       0.33333333 </v>
   <v>       0.50000000       0.50000000       0.33333333 </v>
   <v>       0.00000000       0.00000000       0.50000000 </v>
   <v>       0.04166667       0.00000000       0.50000000 </v>
   <v>       0.08333333       0.00000000       0.50000000 </v>
   <v>       0.12500000       0.00000000       0.50000000 </v>
   <v>       0.16666667       0.00000000       0.50000000 </v>
   <v>       0.20833333       0.00000000       0.50000000 </v>
   <v>       0.25000000       0.00000000       0.50000000 </v>
   <v>       0.29166667       0.00000000       0.50000000 </v>
   <v>       0.33333333       0.00000000       0.50000000 </v>
   <v>       0.37500000       0.00000000       0.50000000 </v>
   <v>       0.41666667       0.00000000       0.50000000 </v>
   <v>       0.45833333       0.00000000       0.50000000 </v>
   <v>       0.50000000       0.00000000       0.50000000 </v>
   <v>       0.04166667       0.04166667       0.50000000 </v>
   <v>       0.08333333       0.04166667       0.50000000 </v>
   <v>       0.12500000       0.04166667       0.50000000 </v>
   <v>       0.16666667       0.04166667       0.50000000 </v>
   <v>       0.20833333       0.04166667       0.50000000 </v>
   <v>       0.25000000       0.04166667       0.50000000 </v>
   <v>       0.29166667       0.04166667       0.50000000 </v>
   <v>       0.33333333       0.04166667       0.50000000 </v>
   <v>       0.37500000       0.04166667       0.50000000 </v>
   <v>       0.41666667       0.04166667       0.50000000 </v>
   <v>       0.45833333       0.04166667       0.50000000 </v>
   <v>       0.50000000       0.04166667       0.50000000 </v>
   <v>       0.08333333       0.08333333       0.50000000 </v>
   <v>       0.12500000       0.08333333       0.50000000 </v>
   <v>       0.16666667       0.08333333       0.50000000 </v>
   <v>       0.20833333       0.08333333       0.50000000 </v>
   <v>       0.25000000       0.08333333       0.50000000 </v>
   <v>       0.29166667       0.08333333       0.50000000 </v>
   <v>       0.33333333       0.08333333       0.50000000 </v>
   <v>       0.37500000       0.08333333       0.50000000 </v>
   <v>       0.41666667       0.08333333       0.50000000 </v>
   <v>       0.45833333       0.08333333       0.50000000 </v>
   <v>       0.50000000       0.08333333       0.50000000 </v>
   <v>       0.12500000       0.12500000       0.50000000 </v>
   <v>       0.16666667       0.12500000       0.50000000 </v>
   <v>       0.20833333       0.12500000       0.50000000 </v>
   <v>       0.25000000       0.12500000       0.50000000 </v>
   <v>       0.29166667       0.12500000       0.50000000 </v>
   <v>       0.33333333       0.12500000       0.50000000 </v>
   <v>       0.37500000       0.12500000       0.50000000 </v>
   <v>       0.41666667       0.12500000       0.50000000 </v>
   <v>       0.45833333       0.12500000       0.50000000 </v>
   <v>       0.50000000       0.12500000       0.50000000 </v>
   <v>       0.16666667       0.16666667       0.50000000 </v>
   <v>       0.20833333       0.16666667       0.50000000 </v>
   <v>       0.25000000       0.16666667       0.50000000 </v>
   <v>       0.29166667       0.16666667       0.50000000 </v>
   <v>       0.33333333       0.16666667       0.50000000 </v>
   <v>       0.37500000       0.16666667       0.50000000 </v>
   <v>       0.41666667       0.16666667       0.50000000 </v>
   <v>       0.45833333       0.16666667       0.50000000 </v>
   <v>       0.50000000       0.16666667       0.50000000 </v>
   <v>       0.20833333       0.20833333       0.50000000 </v>
   <v>       0.25000000       0.20833333       0.50000000 </v>
   <v>       0.29166667       0.20833333       0.50000000 </v>
   <v>       0.33333333       0.20833333       0.50000000 </v>
   <v>       0.37500000       0.20833333       0.50000000 </v>
   <v>       0.41666667       0.20833333       0.50000000 </v>
   <v>       0.45833333       0.20833333       0.50000000 </v>
   <v>       0.50000000       0.20833333       0.50000000 </v>
   <v>       0.25000000       0.25000000       0.50000000 </v>
   <v>       0.29166667       0.25000000       0.50000000 </v>
   <v>       0.33333333       0.25000000       0.50000000 </v>
   <v>       0.37500000       0.25000000       0.50000000 </v>
   <v>       0.41666667       0.25000000       0.50000000 </v>
   <v>       0.45833333       0.25000000       0.50000000 </v>
   <v>       0.50000000       0.25000000       0.50000000 </v>
   <v>       0.29166667       0.29166667       0.50000000 </v>
   <v>       0.33333333       0.29166667       0.50000000 </v>
   <v>       0.37500000       0.29166667       0.50000000 </v>
   <v>       0.41666667       0.29166667       0.50000000 </v>
   <v>       0.45833333       0.29166667       0.50000000 </v>
   <v>       0.50000000       0.29166667       0.50000000 </v>
   <v>       0.33333333       0.33333333       0.50000000 </v>
   <v>       0.37500000       0.33333333       0.50000000 </v>
   <v>       0.41666667       0.33333333       0.50000000 </v>
   <v>       0.45833333       0.33333333       0.50000000 </v>
   <v>       0.50000000       0.33333333       0.50000000 </v>
   <v>       0.37500000       0.37500000       0.50000000 </v>
   <v>       0.41666667       0.37500000       0.50000000 </v>
   <v>       0.45833333       0.37500000       0.50000000 </v>
   <v>       0.50000000       0.37500000       0.50000000 </v>
   <v>       0.41666667       0.41666667       0.50000000 </v>
   <v>       0.45833333       0.41666667       0.50000000 </v>
   <v>       0.50000000       0.41666667       0.50000000 </v>
   <v>       0.45833333       0.45833333       0.50000000 </v>
   <v>       0.50000000       0.45833333       0.50000000 </v>
   <v>       0.50000000       0.50000000       0.50000000 </v>
  </varray>
  <varray name="weights" >
   <v>       0.00028935 </v>
   <v>       0.00115741 </v>
   <v>       0.00115741 </v>
   <v>       0.00115741 </v>
   <v>       0.00115741 </v>
   <v>       0.00115741 </v>
   <v>       0.00115741 </v>
   <v>       0.00115741 </v>
   <v>       0.00115741 </v>
   <v>       0.00115741 </v>
   <v>       0.00115741 </v>
   <v>       0.00115741 </v>
   <v>       0.00057870 </v>
   <v>       0.00115741 </v>
   <v>       0.00231481 </v>
   <v>       0.00231481 </v>
   <v>       0.00231481 </v>
   <v>       0.00231481 </v>
   <v>       0.00231481 </v>
   <v>       0.00231481 </v>
   <v>       0.00231481 </v>
   <v>       0.00231481 </v>
   <v>       0.00231481 </v>
   <v>       0.00231481 </v>
   <v>       0.00115741 </v>
   <v>       0.00115741 </v>
   <v>       0.00231481 </v>
   <v>       0.00231481 </v>
   <v>       0.00231481 </v>
   <v>       0.00231481 </v>
   <v>       0.00231481 </v>
   <v>       0.00231481 </v>
   <v>       0.00231481 </v>
   <v>       0.00231481 </v>
   <v>       0.00231481 </v>
   <v>       0.00115741 </v>
   <v>       0.00115741 </v>
   <v>       0.00231481 </v>
   <v>       0.00231481 </v>
   <v>       0.00231481 </v>
   <v>       0.00231481 </v>
   <v>       0.00231481 </v>
   <v>       0.00231481 </v>
   <v>       0.00231481 </v>
   <v>       0.00231481 </v>
   <v>       0.00115741 </v>
   <v>       0.00115741 </v>
   <v>       0.00231481 </v>
   <v>       0.00231481 </v>
   <v>       0.00231481 </v>
   <v>       0.00231481 </v>
   <v>       0.00231481 </v>
   <v>       0.00231481 </v>
   <v>       0.00231481 </v>
   <v>       0.00115741 </v>
   <v>       0.00115741 </v>
   <v>       0.00231481 </v>
   <v>       0.00231481 </v>
   <v>       0.00231481 </v>
   <v>       0.00231481 </v>
   <v>       0.00231481 </v>
   <v>       0.00231481 </v>
   <v>       0.00115741 </v>
   <v>       0.00115741 </v>
   <v>       0.00231481 </v>
   <v>       0.00231481 </v>
   <v>       0.00231481 </v>
   <v>       0.00231481 </v>
   <v>       0.00231481 </v>
   <v>       0.00115741 </v>
   <v>       0.00115741 </v>
   <v>       0.00231481 </v>
   <v>       0.00231481 </v>
   <v>       0.00231481 </v>
   <v>       0.00231481 </v>
   <v>       0.00115741 </v>
   <v>       0.00115741 </v>
   <v>       0.00231481 </v>
   <v>       0.00231481 </v>
   <v>       0.00231481 </v>
   <v>       0.00115741 </v>
   <v>       0.00115741 </v>
   <v>       0.00231481 </v>
   <v>       0.00231481 </v>
   <v>       0.00115741 </v>
   <v>       0.00115741 </v>
   <v>       0.00231481 </v>
   <v>       0.00115741 </v>
   <v>       0.00115741 </v>
   <v>       0.00115741 </v>
   <v>       0.00028935 </v>
   <v>       0.00057870 </v>
   <v>       0.00231481 </v>
   <v>       0.00231481 </v>
   <v>       0.00231481 </v>
   <v>       0.00231481 </v>
   <v>       0.00231481 </v>
   <v>       0.00231481 </v>
   <v>       0.00231481 </v>
   <v>       0.00231481 </v>
   <v>       0.00231481 </v>
   <v>       0.00231481 </v>
   <v>       0.00231481 </v>
   <v>       0.00115741 </v>
   <v>       0.00231481 </v>
   <v>       0.00462963 </v>
   <v>       0.00462963 </v>
   <v>       0.00462963 </v>
   <v>       0.00462963 </v>
   <v>       0.00462963 </v>
   <v>       0.00462963 </v>
   <v>       0.00462963 </v>
   <v>       0.00462963 </v>
   <v>       0.00462963 </v>
   <v>       0.00462963 </v>
   <v>       0.00231481 </v>
   <v>       0.00231481 </v>
   <v>       0.00462963 </v>
   <v>       0.00462963 </v>
   <v>       0.00462963 </v>
   <v>       0.00462963 </v>
   <v>       0.00462963 </v>
   <v>       0.00462963 </v>
   <v>       0.00462963 </v>
   <v>       0.00462963 </v>
   <v>       0.00462963 </v>
   <v>       0.00231481 </v>
   <v>       0.00231481 </v>
   <v>       0.00462963 </v>
   <v>       0.00462963 </v>
   <v>       0.00462963 </v>
   <v>       0.00462963 </v>
   <v>       0.00462963 </v>
   <v>       0.00462963 </v>
   <v>       0.00462963 </v>
   <v>       0.00462963 </v>
   <v>       0.00231481 </v>
   <v>       0.00231481 </v>
   <v>       0.00462963 </v>
   <v>       0.00462963 </v>
   <v>       0.00462963 </v>
   <v>       0.00462963 </v>
   <v>       0.00462963 </v>
   <v>       0.00462963 </v>
   <v>       0.00462963 </v>
   <v>       0.00231481 </v>
   <v>       0.00231481 </v>
   <v>       0.00462963 </v>
   <v>       0.00462963 </v>
   <v>       0.00462963 </v>
   <v>       0.00462963 </v>
   <v>       0.00462963 </v>
   <v>       0.00462963 </v>
   <v>       0.00231481 </v>
   <v>       0.00231481 </v>
   <v>       0.00462963 </v>
   <v>       0.00462963 </v>
   <v>       0.00462963 </v>
   <v>       0.00462963 </v>
   <v>       0.00462963 </v>
   <v>       0.00231481 </v>
   <v>       0.00231481 </v>
   <v>       0.00462963 </v>
   <v>       0.00462963 </v>
   <v>       0.00462963 </v>
   <v>       0.00462963 </v>
   <v>       0.00231481 </v>
   <v>       0.00231481 </v>
   <v>       0.00462963 </v>
   <v>       0.00462963 </v>
   <v>       0.00462963 </v>
   <v>       0.00231481 </v>
   <v>       0.00231481 </v>
   <v>       0.00462963 </v>
   <v>       0.00462963 </v>
   <v>       0.00231481 </v>
   <v>       0.00231481 </v>
   <v>       0.00462963 </v>
   <v>       0.00231481 </v>
   <v>       0.00231481 </v>
   <v>       0.00231481 </v>
   <v>       0.00057870 </v>
   <v>       0.00057870 </v>
   <v>       0.00231481 </v>
   <v>       0.00231481 </v>
   <v>       0.00231481 </v>
   <v>       0.00231481 </v>
   <v>       0.00231481 </v>
   <v>       0.00231481 </v>
   <v>       0.00231481 </v>
   <v>       0.00231481 </v>
   <v>       0.00231481 </v>
   <v>       0.00231481 </v>
   <v>       0.00231481 </v>
   <v>       0.00115741 </v>
   <v>       0.00231481 </v>
   <v>       0.00462963 </v>
   <v>       0.00462963 </v>
   <v>       0.00462963 </v>
   <v>       0.00462963 </v>
   <v>       0.00462963 </v>
   <v>       0.00462963 </v>
   <v>       0.00462963 </v>
   <v>       0.00462963 </v>
   <v>       0.00462963 </v>
   <v>       0.00462963 </v>
   <v>       0.00231481 </v>
   <v>       0.00231481 </v>
   <v>       0.00462963 </v>
   <v>       0.00462963 </v>
   <v>       0.00462963 </v>
   <v>       0.00462963 </v>
   <v>       0.00462963 </v>
   <v>       0.00462963 </v>
   <v>       0.00462963 </v>
   <v>       0.00462963 </v>
   <v>       0.00462963 </v>
   <v>       0.00231481 </v>
   <v>       0.00231481 </v>
   <v>       0.00462963 </v>
   <v>       0.00462963 </v>
   <v>       0.00462963 </v>
   <v>       0.00462963 </v>
   <v>       0.00462963 </v>
   <v>       0.00462963 </v>
   <v>       0.00462963 </v>
   <v>       0.00462963 </v>
   <v>       0.00231481 </v>
   <v>       0.00231481 </v>
   <v>       0.00462963 </v>
   <v>       0.00462963 </v>
   <v>       0.00462963 </v>
   <v>       0.00462963 </v>
   <v>       0.00462963 </v>
   <v>       0.00462963 </v>
   <v>       0.00462963 </v>
   <v>       0.00231481 </v>
   <v>       0.00231481 </v>
   <v>       0.00462963 </v>
   <v>       0.00462963 </v>
   <v>       0.00462963 </v>
   <v>       0.00462963 </v>
   <v>       0.00462963 </v>
   <v>       0.00462963 </v>
   <v>       0.00231481 </v>
   <v>       0.00231481 </v>
   <v>       0.00462963 </v>
   <v>       0.00462963 </v>
   <v>       0.00462963 </v>
   <v>       0.00462963 </v>
   <v>       0.00462963 </v>
   <v>       0.00231481 </v>
   <v>       0.00231481 </v>
   <v>       0.00462963 </v>
   <v>       0.00462963 </v>
   <v>       0.00462963 </v>
   <v>       0.00462963 </v>
   <v>       0.00231481 </v>
   <v>       0.00231481 </v>
   <v>       0.00462963 </v>
   <v>       0.00462963 </v>
   <v>       0.00462963 </v>
   <v>       0.00231481 </v>
   <v>       0.00231481 </v>
   <v>       0.00462963 </v>
   <v>       0.00462963 </v>
   <v>       0.00231481 </v>
   <v>       0.00231481 </v>
   <v>       0.00462963 </v>
   <v>       0.00231481 </v>
   <v>       0.00231481 </v>
   <v>       0.00231481 </v>
   <v>       0.00057870 </v>
   <v>       0.00028935 </v>
   <v>       0.00115741 </v>
   <v>       0.00115741 </v>
   <v>       0.00115741 </v>
   <v>       0.00115741 </v>
   <v>       0.00115741 </v>
   <v>       0.00115741 </v>
   <v>       0.00115741 </v>
   <v>       0.00115741 </v>
   <v>       0.00115741 </v>
   <v>       0.00115741 </v>
   <v>       0.00115741 </v>
   <v>       0.00057870 </v>
   <v>       0.00115741 </v>
   <v>       0.00231481 </v>
   <v>       0.00231481 </v>
   <v>       0.00231481 </v>
   <v>       0.00231481 </v>
   <v>       0.00231481 </v>
   <v>       0.00231481 </v>
   <v>       0.00231481 </v>
   <v>       0.00231481 </v>
   <v>       0.00231481 </v>
   <v>       0.00231481 </v>
   <v>       0.00115741 </v>
   <v>       0.00115741 </v>
   <v>       0.00231481 </v>
   <v>       0.00231481 </v>
   <v>       0.00231481 </v>
   <v>       0.00231481 </v>
   <v>       0.00231481 </v>
   <v>       0.00231481 </v>
   <v>       0.00231481 </v>
   <v>       0.00231481 </v>
   <v>       0.00231481 </v>
   <v>       0.00115741 </v>
   <v>       0.00115741 </v>
   <v>       0.00231481 </v>
   <v>       0.00231481 </v>
   <v>       0.00231481 </v>
   <v>       0.00231481 </v>
   <v>       0.00231481 </v>
   <v>       0.00231481 </v>
   <v>       0.00231481 </v>
   <v>       0.00231481 </v>
   <v>       0.00115741 </v>
   <v>       0.00115741 </v>
   <v>       0.00231481 </v>
   <v>       0.00231481 </v>
   <v>       0.00231481 </v>
   <v>       0.00231481 </v>
   <v>       0.00231481 </v>
   <v>       0.00231481 </v>
   <v>       0.00231481 </v>
   <v>       0.00115741 </v>
   <v>       0.00115741 </v>
   <v>       0.00231481 </v>
   <v>       0.00231481 </v>
   <v>       0.00231481 </v>
   <v>       0.00231481 </v>
   <v>       0.00231481 </v>
   <v>       0.00231481 </v>
   <v>       0.00115741 </v>
   <v>       0.00115741 </v>
   <v>       0.00231481 </v>
   <v>       0.00231481 </v>
   <v>       0.00231481 </v>
   <v>       0.00231481 </v>
   <v>       0.00231481 </v>
   <v>       0.00115741 </v>
   <v>       0.00115741 </v>
   <v>       0.00231481 </v>
   <v>       0.00231481 </v>
   <v>       0.00231481 </v>
   <v>       0.00231481 </v>
   <v>       0.00115741 </v>
   <v>       0.00115741 </v>
   <v>       0.00231481 </v>
   <v>       0.00231481 </v>
   <v>       0.00231481 </v>
   <v>       0.00115741 </v>
   <v>       0.00115741 </v>
   <v>       0.00231481 </v>
   <v>       0.00231481 </v>
   <v>       0.00115741 </v>
   <v>       0.00115741 </v>
   <v>       0.00231481 </v>
   <v>       0.00115741 </v>
   <v>       0.00115741 </v>
   <v>       0.00115741 </v>
   <v>       0.00028935 </v>
  </varray>
 </kpoints>
 <parameters>
  <separator name="general" >
   <i type="string" name="SYSTEM">unknown system</i>
   <i type="logical" name="LCOMPAT"> F  </i>
  </separator>
  <separator name="electronic" >
   <i type="string" name="PREC">accura</i>
   <i name="ENMAX">    500.00000000</i>
   <i name="ENAUG">    586.98000000</i>
   <i name="EDIFF">      0.00000100</i>
   <i type="int" name="IALGO">    68</i>
   <i type="int" name="IWAVPR">    11</i>
   <i type="int" name="NBANDS">    40</i>
   <i name="NELECT">     66.00000000</i>
   <i type="int" name="TURBO">     0</i>
   <i type="int" name="IRESTART">     0</i>
   <i type="int" name="NREBOOT">     0</i>
   <i type="int" name="NMIN">     0</i>
   <i name="EREF">      0.00000000</i>
   <separator name="electronic smearing" >
    <i type="int" name="ISMEAR">     1</i>
    <i name="SIGMA">      0.30000000</i>
    <i name="KSPACING">      0.50000000</i>
    <i type="logical" name="KGAMMA"> T  </i>
   </separator>
   <separator name="electronic projectors" >
    <i type="logical" name="LREAL"> F  </i>
    <v name="ROPT">      0.00000000      0.00000000      0.00000000</v>
    <i type="int" name="LMAXPAW">  -100</i>
    <i type="int" name="LMAXMIX">     2</i>
    <i type="logical" name="NLSPLINE"> F  </i>
   </separator>
   <separator name="electronic startup" >
    <i type="int" name="ISTART">     0</i>
    <i type="int" name="ICHARG">     2</i>
    <i type="int" name="INIWAV">     1</i>
   </separator>
   <separator name="electronic spin" >
    <i type="int" name="ISPIN">     1</i>
    <i type="logical" name="LNONCOLLINEAR"> F  </i>
    <v name="MAGMOM">      1.00000000      1.00000000      1.00000000      1.00000000      1.00000000      1.00000000</v>
    <i name="NUPDOWN">     -1.00000000</i>
    <i type="logical" name="LSORBIT"> F  </i>
    <v name="SAXIS">      0.00000000      0.00000000      1.00000000</v>
    <i type="logical" name="LSPIRAL"> F  </i>
    <v name="QSPIRAL">      0.00000000      0.00000000      0.00000000</v>
    <i type="logical" name="LZEROZ"> F  </i>
   </separator>
   <separator name="electronic exchange-correlation" >
    <i type="logical" name="LASPH"> F  </i>
    <i type="logical" name="LMETAGGA"> F  </i>
   </separator>
   <separator name="electronic convergence" >
    <i type="int" name="NELM">   200</i>
    <i type="int" name="NELMDL">     0</i>
    <i type="int" name="NELMIN">     4</i>
    <i name="ENINI">    500.00000000</i>
    <separator name="electronic convergence detail" >
     <i type="logical" name="LDIAG"> T  </i>
     <i type="logical" name="LSUBROT"> F  </i>
     <i name="WEIMIN">      0.00100000</i>
     <i name="EBREAK">      0.00000001</i>
     <i name="DEPER">      0.30000000</i>
     <i type="int" name="NRMM">     4</i>
     <i name="TIME">      0.40000000</i>
    </separator>
   </separator>
   <separator name="electronic mixer" >
    <i name="AMIX">      0.40000000</i>
    <i name="BMIX">      1.00000000</i>
    <i name="AMIN">      0.10000000</i>
    <i name="AMIX_MAG">      1.60000000</i>
    <i name="BMIX_MAG">      1.00000000</i>
    <separator name="electronic mixer details" >
     <i type="int" name="IMIX">     4</i>
     <i type="int" name="MAXMIX">   -45</i>
     <i name="WC">    100.00000000</i>
     <i type="int" name="INIMIX">     1</i>
     <i type="int" name="MIXPRE">     1</i>
     <i type="int" name="MREMOVE">     5</i>
    </separator>
   </separator>
   <separator name="electronic dipolcorrection" >
    <i type="logical" name="LDIPOL"> F  </i>
    <i type="logical" name="LMONO"> F  </i>
    <i type="int" name="IDIPOL">     0</i>
    <i name="EPSILON">      1.00000000</i>
    <v name="DIPOL">   -100.00000000   -100.00000000   -100.00000000</v>
    <i name="EFIELD">      0.00000000</i>
   </separator>
  </separator>
  <separator name="grids" >
   <i type="int" name="NGX">    24</i>
   <i type="int" name="NGY">    24</i>
   <i type="int" name="NGZ">    84</i>
   <i type="int" name="NGXF">    48</i>
   <i type="int" name="NGYF">    48</i>
   <i type="int" name="NGZF">   168</i>
   <i type="logical" name="ADDGRID"> T  </i>
  </separator>
  <separator name="ionic" >
   <i type="int" name="NSW">    30</i>
   <i type="int" name="IBRION">     2</i>
   <i type="int" name="ISIF">     3</i>
   <i name="PSTRESS">      0.00000000</i>
   <i name="EDIFFG">     -0.02000000</i>
   <i type="int" name="NFREE">     1</i>
   <i name="POTIM">      0.50000000</i>
   <i name="SMASS">     -3.00000000</i>
   <i name="SCALEE">      1.00000000</i>
  </separator>
  <separator name="ionic md" >
   <i name="TEBEG">      0.00010000</i>
   <i name="TEEND">      0.00010000</i>
   <i type="int" name="NBLOCK">     1</i>
   <i type="int" name="KBLOCK">    30</i>
   <i type="int" name="NPACO">   256</i>
   <i name="APACO">     16.00000000</i>
  </separator>
  <separator name="symmetry" >
   <i type="int" name="ISYM">     2</i>
   <i name="SYMPREC">      0.00001000</i>
  </separator>
  <separator name="dos" >
   <i type="logical" name="LORBIT"> F  </i>
   <v name="RWIGS">     -1.00000000     -1.00000000     -1.00000000</v>
   <i type="int" name="NEDOS">   301</i>
   <i name="EMIN">     10.00000000</i>
   <i name="EMAX">    -10.00000000</i>
   <i name="EFERMI">      0.00000000</i>
  </separator>
  <separator name="writing" >
   <i type="int" name="NWRITE">     2</i>
   <i type="logical" name="LWAVE"> F  </i>
   <i type="logical" name="LCHARG"> F  </i>
   <i type="logical" name="LPARD"> F  </i>
   <i type="logical" name="LVTOT"> F  </i>
   <i type="logical" name="LVHAR"> F  </i>
   <i type="logical" name="LELF"> F  </i>
   <i type="logical" name="LOPTICS"> F  </i>
   <v name="STM">      0.00000000      0.00000000      0.00000000      0.00000000      0.00000000      0.00000000      0.00000000</v>
  </separator>
  <separator name="performance" >
   <i type="int" name="NPAR">     4</i>
   <i type="int" name="NSIM">     4</i>
   <i type="int" name="NBLK">    -1</i>
   <i type="logical" name="LPLANE"> T  </i>
   <i type="logical" name="LSCALAPACK"> T  </i>
   <i type="logical" name="LSCAAWARE"> F  </i>
   <i type="logical" name="LSCALU"> F  </i>
   <i type="logical" name="LASYNC"> F  </i>
   <i type="logical" name="LORBITALREAL"> F  </i>
  </separator>
  <separator name="miscellaneous" >
   <i type="int" name="IDIOT">     3</i>
   <i type="logical" name="LMUSIC"> F  </i>
   <v name="POMASS">     63.54600000    107.86800000    196.96600000</v>
   <v name="DARWINR">      0.00000000      0.00000000      0.00000000</v>
   <v name="DARWINV">      1.00000000      1.00000000      1.00000000</v>
   <i type="logical" name="LCORR"> T  </i>
  </separator>
  <i type="logical" name="GGA_COMPAT"> T  </i>
  <i type="logical" name="LBERRY"> F  </i>
  <i type="int" name="ICORELEVEL">     0</i>
  <i type="logical" name="LDAU"> F  </i>
  <i type="int" name="I_CONSTRAINED_M">     0</i>
  <separator name="electronic exchange-correlation" >
   <i type="string" name="GGA">--</i>
   <i type="int" name="VOSKOWN">     0</i>
   <i type="logical" name="LHFCALC"> F  </i>
   <i type="string" name="PRECFOCK"></i>
   <i type="logical" name="LSYMGRAD"> F  </i>
   <i type="logical" name="LHFONE"> F  </i>
   <i type="logical" name="LRHFCALC"> F  </i>
   <i type="logical" name="LTHOMAS"> F  </i>
   <i type="logical" name="LMODELHF"> F  </i>
   <i name="ENCUT4O">     -1.00000000</i>
   <i type="int" name="EXXOEP">     0</i>
   <i type="int" name="FOURORBIT">     0</i>
   <i name="AEXX">      0.00000000</i>
   <i name="HFALPHA">      0.00000000</i>
   <i name="MCALPHA">      0.00000000</i>
   <i name="ALDAX">      1.00000000</i>
   <i name="AGGAX">      1.00000000</i>
   <i name="ALDAC">      1.00000000</i>
   <i name="AGGAC">      1.00000000</i>
   <i type="int" name="NKREDX">     1</i>
   <i type="int" name="NKREDY">     1</i>
   <i type="int" name="NKREDZ">     1</i>
   <i type="logical" name="SHIFTRED"> F  </i>
   <i type="logical" name="ODDONLY"> F  </i>
   <i type="logical" name="EVENONLY"> F  </i>
   <i type="int" name="LMAXFOCK">     0</i>
   <i type="int" name="NMAXFOCKAE">     0</i>
   <i type="logical" name="LFOCKAEDFT"> F  </i>
   <i name="HFSCREEN">      0.00000000</i>
   <i name="HFSCREENC">      0.00000000</i>
   <i type="int" name="NBANDSGWLOW">     0</i>
  </separator>
  <separator name="vdW DFT" >
   <i type="logical" name="LUSE_VDW"> F  </i>
   <i name="Zab_VDW">     -0.84910000</i>
   <i name="PARAM1">      0.12340000</i>
   <i name="PARAM2">      1.00000000</i>
   <i name="PARAM3">      0.00000000</i>
  </separator>
  <separator name="model GW" >
   <i type="int" name="MODEL_GW">     0</i>
   <i name="MODEL_EPS0">      9.55952585</i>
   <i name="MODEL_ALPHA">      1.00000000</i>
  </separator>
  <separator name="linear response parameters" >
   <i type="logical" name="LEPSILON"> F  </i>
   <i type="logical" name="LRPA"> F  </i>
   <i type="logical" name="LNABLA"> F  </i>
   <i type="logical" name="LVEL"> F  </i>
   <i type="int" name="KINTER">     0</i>
   <i name="CSHIFT">      0.10000000</i>
   <i name="OMEGAMAX">     -1.00000000</i>
   <i name="DEG_THRESHOLD">      0.00200000</i>
  </separator>
  <separator name="orbital magnetization" >
   <i type="logical" name="NUCIND"> F  </i>
   <v name="MAGPOS">      0.00000000      0.00000000      0.00000000</v>
   <i type="logical" name="LNICSALL"> T  </i>
   <i type="logical" name="ORBITALMAG"> F  </i>
   <i type="logical" name="LMAGBLOCH"> F  </i>
   <i type="logical" name="LCHIMAG"> F  </i>
   <i type="logical" name="LGAUGE"> T  </i>
   <i type="int" name="MAGATOM">     0</i>
   <v name="MAGDIPOL">      0.00000000      0.00000000      0.00000000</v>
   <v name="AVECCONST">      0.00000000      0.00000000      0.00000000</v>
  </separator>
  <separator name="response functions" >
   <i type="logical" name="LADDER"> F  </i>
   <i type="logical" name="LFXC"> F  </i>
   <i type="logical" name="LHARTREE"> T  </i>
   <i type="int" name="IBSE">     0</i>
   <i type="logical" name="LTCTE"> F  </i>
   <i type="logical" name="LTETE"> F  </i>
   <i type="logical" name="LTRIPLET"> F  </i>
   <i type="logical" name="LFXCEPS"> F  </i>
   <i type="logical" name="LFXHEG"> F  </i>
   <i type="logical" name="L2ORDER"> F  </i>
   <i type="logical" name="LUSEW"> F  </i>
   <i name="ENCUTGW">     -2.00000000</i>
   <i name="ENCUTGWSOFT">     -2.00000000</i>
   <i name="ENCUTLF">     -1.00000000</i>
   <i type="int" name="LMAXMP2">    -1</i>
   <i name="SCISSOR">      0.00000000</i>
   <i type="int" name="NOMEGA">     0</i>
   <i type="int" name="NOMEGAR">     0</i>
   <i type="int" name="NBANDSGW">    -1</i>
   <i type="int" name="NBANDSO">    -1</i>
   <i type="int" name="NBANDSV">    -1</i>
   <i type="int" name="NELM">   200</i>
   <i type="int" name="DIM">     3</i>
   <i type="int" name="ANTIRES">     0</i>
   <i name="OMEGAMAX">    -30.00000000</i>
   <i name="OMEGAMIN">    -30.00000000</i>
   <i name="OMEGATL">   -200.00000000</i>
   <i type="int" name="OMEGAGRID">     0</i>
   <i name="CSHIFT">     -0.10000000</i>
   <i type="logical" name="SELFENERGY"> F  </i>
   <i type="logical" name="LSPECTRAL"> F  </i>
   <i type="logical" name="ODDONLYGW"> F  </i>
   <i type="logical" name="EVENONLYGW"> F  </i>
   <i type="int" name="NKREDLFX">     1</i>
   <i type="int" name="NKREDLFY">     1</i>
   <i type="int" name="NKREDLFZ">     1</i>
   <i type="int" name="MAXMEM">  1800</i>
   <i type="int" name="TELESCOPE">     0</i>
   <i type="int" name="TAUPAR">     1</i>
  </separator>
  <separator name="External order field" >
   <i name="OFIELD_KAPPA">      0.00000000</i>
   <v name="OFIELD_K">      0.00000000      0.00000000      0.00000000</v>
   <i name="OFIELD_Q6_NEAR">      0.00000000</i>
   <i name="OFIELD_Q6_FAR">      0.00000000</i>
   <i name="OFIELD_A">      0.00000000</i>
  </separator>
 </parameters>
 <atominfo>
  <atoms>       6 </atoms>
  <types>       3 </types>
  <array name="atoms" >
   <dimension dim="1">ion</dimension>
   <field type="string">element</field>
   <field type="int">atomtype</field>
   <set>
    <rc><c>Cu</c><c>   1</c></rc>
    <rc><c>Cu</c><c>   1</c></rc>
    <rc><c>Ag</c><c>   2</c></rc>
    <rc><c>Ag</c><c>   2</c></rc>
    <rc><c>Au</c><c>   3</c></rc>
    <rc><c>Au</c><c>   3</c></rc>
   </set>
  </array>
  <array name="atomtypes" >
   <dimension dim="1">type</dimension>
   <field type="int">atomspertype</field>
   <field type="string">element</field>
   <field>mass</field>
   <field>valence</field>
   <field type="string">pseudopotential</field>
   <set>
    <rc><c>   2</c><c>Cu</c><c>     63.54600000</c><c>     11.00000000</c><c>  PAW_PBE Cu 22Jun2005                  </c></rc>
    <rc><c>   2</c><c>Ag</c><c>    107.86800000</c><c>     11.00000000</c><c>  PAW_PBE Ag 02Apr2005                  </c></rc>
    <rc><c>   2</c><c>Au</c><c>    196.96600000</c><c>     11.00000000</c><c>  PAW_PBE Au 04Oct2007                  </c></rc>
   </set>
  </array>
 </atominfo>
 <structure name="initialpos" >
  <crystal>
   <varray name="basis" >
    <v>       0.00000000       2.03151026      -2.03151026 </v>
    <v>       0.00000000      -2.03151026      -2.03151026 </v>
    <v>     -11.58159349       0.00000000       0.00000000 </v>
   </varray>
   <i name="volume">     95.59525853 </i>
   <varray name="rec_basis" >
    <v>       0.00000000       0.24612231      -0.24612231 </v>
    <v>       0.00000000      -0.24612231      -0.24612231 </v>
    <v>      -0.08634390       0.00000000       0.00000000 </v>
   </varray>
  </crystal>
  <varray name="positions" >
   <v>       0.50000000       0.50000000       0.48956182 </v>
   <v>       0.50000000       0.50000000       0.17710485 </v>
   <v>       0.00000000       0.00000000       0.01877142 </v>
   <v>       0.00000000       0.00000000       0.64789524 </v>
   <v>       0.50000000       0.50000000       0.83333333 </v>
   <v>       0.00000000       0.00000000       0.33333333 </v>
  </varray>
 </structure>
 <calculation>
  <scstep>
   <time name="dav">    6.07    6.07</time>
   <time name="total">    6.14    6.15</time>
   <energy>
    <i name="alphaZ">    344.79142980 </i>
    <i name="ewald">  -5922.73503413 </i>
    <i name="hartreedc">  -1534.80460690 </i>
    <i name="XCdc">    101.31039863 </i>
    <i name="pawpsdc">   6211.53262512 </i>
    <i name="pawaedc">  -6284.81575236 </i>
    <i name="eentropy">     -0.00002333 </i>
    <i name="bandstr">    993.29034720 </i>
    <i name="atom">   6708.64263504 </i>
    <i name="e_fr_energy">    617.21201905 </i>
    <i name="e_wo_entrp">    617.21204238 </i>
    <i name="e_0_energy">    617.21202683 </i>
   </energy>
  </scstep>
  <scstep>
   <time name="dav">    6.35    6.35</time>
   <time name="total">    6.37    6.38</time>
   <energy>
    <i name="e_fr_energy">     36.24618297 </i>
    <i name="e_wo_entrp">     36.24563379 </i>
    <i name="e_0_energy">     36.24599991 </i>
   </energy>
  </scstep>
  <scstep>
   <time name="dav">    6.79    6.79</time>
   <time name="total">    6.82    6.83</time>
   <energy>
    <i name="e_fr_energy">    -20.20563289 </i>
    <i name="e_wo_entrp">    -20.20690506 </i>
    <i name="e_0_energy">    -20.20605695 </i>
   </energy>
  </scstep>
  <scstep>
   <time name="dav">    7.21    7.21</time>
   <time name="total">    7.23    7.24</time>
   <energy>
    <i name="e_fr_energy">    -21.81615782 </i>
    <i name="e_wo_entrp">    -21.81731142 </i>
    <i name="e_0_energy">    -21.81654235 </i>
   </energy>
  </scstep>
  <scstep>
   <time name="dav">    7.53    7.53</time>
   <time name="total">    7.99    8.00</time>
   <energy>
    <i name="e_fr_energy">    -21.85586106 </i>
    <i name="e_wo_entrp">    -21.85701603 </i>
    <i name="e_0_energy">    -21.85624605 </i>
   </energy>
  </scstep>
  <scstep>
   <time name="diag">    1.62    1.62</time>
   <time name="diis">    3.08    3.08</time>
   <time name="orth">    0.23    0.23</time>
   <time name="total">    5.43    5.45</time>
   <energy>
    <i name="e_fr_energy">    -20.67618901 </i>
    <i name="e_wo_entrp">    -20.67308938 </i>
    <i name="e_0_energy">    -20.67515580 </i>
   </energy>
  </scstep>
  <scstep>
   <time name="diag">    1.61    1.61</time>
   <time name="diis">    3.25    3.26</time>
   <time name="orth">    0.22    0.22</time>
   <time name="total">    5.59    5.61</time>
   <energy>
    <i name="e_fr_energy">    -19.61277063 </i>
    <i name="e_wo_entrp">    -19.61328048 </i>
    <i name="e_0_energy">    -19.61294058 </i>
   </energy>
  </scstep>
  <scstep>
   <time name="diag">    1.61    1.61</time>
   <time name="diis">    3.15    3.15</time>
   <time name="orth">    0.23    0.23</time>
   <time name="total">    5.50    5.52</time>
   <energy>
    <i name="e_fr_energy">    -19.37627953 </i>
    <i name="e_wo_entrp">    -19.37486075 </i>
    <i name="e_0_energy">    -19.37580661 </i>
   </energy>
  </scstep>
  <scstep>
   <time name="diag">    1.61    1.61</time>
   <time name="diis">    3.11    3.11</time>
   <time name="orth">    0.22    0.22</time>
   <time name="total">    5.45    5.47</time>
   <energy>
    <i name="e_fr_energy">    -19.38368194 </i>
    <i name="e_wo_entrp">    -19.38320891 </i>
    <i name="e_0_energy">    -19.38352427 </i>
   </energy>
  </scstep>
  <scstep>
   <time name="diag">    1.62    1.62</time>
   <time name="diis">    3.15    3.15</time>
   <time name="orth">    0.23    0.23</time>
   <time name="total">    5.52    5.54</time>
   <energy>
    <i name="e_fr_energy">    -19.36439950 </i>
    <i name="e_wo_entrp">    -19.36301537 </i>
    <i name="e_0_energy">    -19.36393812 </i>
   </energy>
  </scstep>
  <scstep>
   <time name="diag">    1.62    1.62</time>
   <time name="diis">    3.61    3.61</time>
   <time name="orth">    0.22    0.22</time>
   <time name="total">    5.96    5.98</time>
   <energy>
    <i name="e_fr_energy">    -19.36478868 </i>
    <i name="e_wo_entrp">    -19.36342499 </i>
    <i name="e_0_energy">    -19.36433412 </i>
   </energy>
  </scstep>
  <scstep>
   <time name="diag">    1.62    1.62</time>
   <time name="diis">    3.23    3.23</time>
   <time name="orth">    0.23    0.23</time>
   <time name="total">    5.59    5.61</time>
   <energy>
    <i name="e_fr_energy">    -19.36466239 </i>
    <i name="e_wo_entrp">    -19.36330123 </i>
    <i name="e_0_energy">    -19.36420867 </i>
   </energy>
  </scstep>
  <scstep>
   <time name="diag">    1.61    1.61</time>
   <time name="diis">    3.45    3.45</time>
   <time name="orth">    0.22    0.22</time>
   <time name="total">    5.80    5.82</time>
   <energy>
    <i name="e_fr_energy">    -19.36466177 </i>
    <i name="e_wo_entrp">    -19.36332016 </i>
    <i name="e_0_energy">    -19.36421457 </i>
   </energy>
  </scstep>
  <scstep>
   <time name="diag">    1.61    1.61</time>
   <time name="diis">    3.09    3.09</time>
   <time name="orth">    0.23    0.23</time>
   <time name="total">    5.45    5.49</time>
   <energy>
    <i name="e_fr_energy">    -19.36466054 </i>
    <i name="e_wo_entrp">    -19.36331650 </i>
    <i name="e_0_energy">    -19.36421252 </i>
   </energy>
  </scstep>
  <scstep>
   <time name="diag">    1.61    1.61</time>
   <time name="diis">    2.05    2.05</time>
   <time name="orth">    0.22    0.22</time>
   <time name="total">    3.96    3.97</time>
   <energy>
    <i name="alphaZ">    344.79142980 </i>
    <i name="ewald">  -5922.73503413 </i>
    <i name="hartreedc">  -1446.67977308 </i>
    <i name="XCdc">     97.51240791 </i>
    <i name="pawpsdc">   6861.60080424 </i>
    <i name="pawaedc">  -6949.12516855 </i>
    <i name="eentropy">     -0.00134449 </i>
    <i name="bandstr">    286.62938266 </i>
    <i name="atom">   6708.64263504 </i>
    <i name="e_fr_energy">    -19.36466061 </i>
    <i name="e_wo_entrp">    -19.36331612 </i>
    <i name="e_0_energy">    -19.36421245 </i>
   </energy>
  </scstep>
  <structure>
   <crystal>
    <varray name="basis" >
     <v>       0.00000000       2.03151026      -2.03151026 </v>
     <v>       0.00000000      -2.03151026      -2.03151026 </v>
     <v>     -11.58159349       0.00000000       0.00000000 </v>
    </varray>
    <i name="volume">     95.59525853 </i>
    <varray name="rec_basis" >
     <v>       0.00000000       0.24612231      -0.24612231 </v>
     <v>       0.00000000      -0.24612231      -0.24612231 </v>
     <v>      -0.08634390       0.00000000       0.00000000 </v>
    </varray>
   </crystal>
   <varray name="positions" >
    <v>       0.50000000       0.50000000       0.48956182 </v>
    <v>       0.50000000       0.50000000       0.17710485 </v>
    <v>       0.00000000       0.00000000       0.01877142 </v>
    <v>       0.00000000       0.00000000       0.64789524 </v>
    <v>       0.50000000       0.50000000       0.83333333 </v>
    <v>       0.00000000       0.00000000       0.33333333 </v>
   </varray>
  </structure>
  <varray name="forces" >
   <v>      -0.00175369       0.00000000       0.00000000 </v>
   <v>       0.00175369       0.00000000       0.00000000 </v>
   <v>      -0.00151139       0.00000000       0.00000000 </v>
   <v>       0.00151139       0.00000000       0.00000000 </v>
   <v>       0.00000000       0.00000000       0.00000000 </v>
   <v>       0.00000000       0.00000000       0.00000000 </v>
  </varray>
  <varray name="stress" >
   <v>      -0.99126007       0.00000000       0.00000000 </v>
   <v>       0.00000000       0.33145277       0.00000000 </v>
   <v>       0.00000000       0.00000000       0.33145277 </v>
  </varray>
  <energy>
   <i name="e_fr_energy">    -19.36466061 </i>
   <i name="e_wo_entrp">    -19.36421245 </i>
   <i name="e_0_energy">     -0.00134449 </i>
  </energy>
  <time name="totalsc">   93.73   94.02</time>
  <eigenvalues>
   <array>
    <dimension dim="1">band</dimension>
    <dimension dim="2">kpoint</dimension>
    <dimension dim="3">spin</dimension>
    <field>eigene</field>
    <field>occ</field>
    <set>
     <set comment="spin 1">
      <set comment="kpoint 1">
       <r>   -0.8690    1.0000 </r>
       <r>    0.1304    1.0000 </r>
       <r>    1.1840    1.0000 </r>
       <r>    1.7140    1.0000 </r>
       <r>    1.8713    1.0000 </r>
       <r>    1.9994    1.0000 </r>
       <r>    2.1304    1.0000 </r>
       <r>    2.4102    1.0000 </r>
       <r>    2.5937    1.0000 </r>
       <r>    2.9327    1.0000 </r>
       <r>    3.7485    1.0000 </r>
       <r>    3.7485    1.0000 </r>
       <r>    4.1124    1.0000 </r>
       <r>    4.1124    1.0000 </r>
       <r>    4.2210    1.0000 </r>
       <r>    4.2210    1.0000 </r>
       <r>    4.2317    1.0000 </r>
       <r>    4.6307    1.0000 </r>
       <r>    4.6858    1.0000 </r>
       <r>    5.1396    1.0000 </r>
       <r>    5.1469    1.0000 </r>
       <r>    5.2425    1.0000 </r>
       <r>    5.3575    1.0000 </r>
       <r>    5.3788    1.0000 </r>
       <r>    5.3788    1.0000 </r>
       <r>    5.7501    1.0000 </r>
       <r>    5.9370    1.0000 </r>
       <r>    5.9713    1.0000 </r>
       <r>    5.9713    1.0000 </r>
       <r>    6.1428    1.0000 </r>
       <r>    6.1929    1.0000 </r>
       <r>    6.3165    1.0000 </r>
       <r>    6.3577    1.0000 </r>
       <r>    6.4410    1.0000 </r>
       <r>    6.4410    1.0000 </r>
       <r>   10.2426    0.0000 </r>
       <r>   15.1761    0.0000 </r>
       <r>   14.6852    0.0000 </r>
       <r>   14.3707    0.0000 </r>
       <r>   16.9223    0.0000 </r>
      </set>
      <set comment="kpoint 2">
       <r>   -0.8307    1.0000 </r>
       <r>    0.1676    1.0000 </r>
       <r>    1.2098    1.0000 </r>
       <r>    1.7405    1.0000 </r>
       <r>    1.8910    1.0000 </r>
       <r>    2.0184    1.0000 </r>
       <r>    2.1474    1.0000 </r>
       <r>    2.4233    1.0000 </r>
       <r>    2.6060    1.0000 </r>
       <r>    2.9468    1.0000 </r>
       <r>    3.7367    1.0000 </r>
       <r>    3.7547    1.0000 </r>
       <r>    4.0515    1.0000 </r>
       <r>    4.1088    1.0000 </r>
       <r>    4.1906    1.0000 </r>
       <r>    4.2198    1.0000 </r>
       <r>    4.2797    1.0000 </r>
       <r>    4.6175    1.0000 </r>
       <r>    4.6670    1.0000 </r>
       <r>    5.0370    1.0000 </r>
       <r>    5.1099    1.0000 </r>
       <r>    5.1687    1.0000 </r>
       <r>    5.3661    1.0000 </r>
       <r>    5.3831    1.0000 </r>
       <r>    5.5093    1.0000 </r>
       <r>    5.7238    1.0000 </r>
       <r>    5.8049    1.0000 </r>
       <r>    5.9644    1.0000 </r>
       <r>    5.9898    1.0000 </r>
       <r>    6.1925    1.0000 </r>
       <r>    6.3166    1.0000 </r>
       <r>    6.3465    1.0000 </r>
       <r>    6.3527    1.0000 </r>
       <r>    6.4410    1.0000 </r>
       <r>    6.4630    1.0000 </r>
       <r>   10.3447    0.0000 </r>
       <r>   15.1659    0.0000 </r>
       <r>   14.3077    0.0000 </r>
       <r>   14.3793    0.0000 </r>
       <r>   16.2182    0.0000 </r>
      </set>
      <set comment="kpoint 3">
       <r>   -0.7172    1.0000 </r>
       <r>    0.2763    1.0000 </r>
       <r>    1.2829    1.0000 </r>
       <r>    1.8096    1.0000 </r>
       <r>    1.9486    1.0000 </r>
       <r>    2.0793    1.0000 </r>
       <r>    2.2029    1.0000 </r>
       <r>    2.4570    1.0000 </r>
       <r>    2.6480    1.0000 </r>
       <r>    2.9900    1.0000 </r>
       <r>    3.7027    1.0000 </r>
       <r>    3.7724    1.0000 </r>
       <r>    3.9447    1.0000 </r>
       <r>    4.0976    1.0000 </r>
       <r>    4.1036    1.0000 </r>
       <r>    4.2160    1.0000 </r>
       <r>    4.3507    1.0000 </r>
       <r>    4.5790    1.0000 </r>
       <r>    4.6143    1.0000 </r>
       <r>    4.7655    1.0000 </r>
       <r>    5.0262    1.0000 </r>
       <r>    5.2212    1.0000 </r>
       <r>    5.3899    1.0000 </r>
       <r>    5.3949    1.0000 </r>
       <r>    5.6056    1.0000 </r>
       <r>    5.6397    1.0000 </r>
       <r>    5.6620    1.0000 </r>
       <r>    5.9614    1.0000 </r>
       <r>    6.0233    1.0000 </r>
       <r>    6.1899    1.0000 </r>
       <r>    6.2356    1.0000 </r>
       <r>    6.3421    1.0000 </r>
       <r>    6.4416    1.0000 </r>
       <r>    6.5895    1.0000 </r>
       <r>    6.7090    1.0000 </r>
       <r>   10.6327    0.0000 </r>
       <r>   15.1226    0.0000 </r>
       <r>   15.8314    0.0000 </r>
       <r>   14.4929    0.0000 </r>
       <r>   15.0815    0.0000 </r>
      </set>
      <set comment="kpoint 4">
       <r>   -0.5324    1.0000 </r>
       <r>    0.4473    1.0000 </r>
       <r>    1.3908    1.0000 </r>
       <r>    1.8933    1.0000 </r>
       <r>    2.0375    1.0000 </r>
       <r>    2.1883    1.0000 </r>
       <r>    2.3159    1.0000 </r>
       <r>    2.4940    1.0000 </r>
       <r>    2.7350    1.0000 </r>
       <r>    3.0656    1.0000 </r>
       <r>    3.6487    1.0000 </r>
       <r>    3.7993    1.0000 </r>
       <r>    3.8278    1.0000 </r>
       <r>    3.9721    1.0000 </r>
       <r>    4.0781    1.0000 </r>
       <r>    4.2103    1.0000 </r>
       <r>    4.4174    1.0000 </r>
       <r>    4.5183    1.0000 </r>
       <r>    4.5255    1.0000 </r>
       <r>    4.5370    1.0000 </r>
       <r>    4.9017    1.0000 </r>
       <r>    5.2925    1.0000 </r>
       <r>    5.4118    1.0000 </r>
       <r>    5.4227    1.0000 </r>
       <r>    5.5145    1.0000 </r>
       <r>    5.5820    1.0000 </r>
       <r>    5.6546    1.0000 </r>
       <r>    5.9608    1.0000 </r>
       <r>    6.0449    1.0000 </r>
       <r>    6.0694    1.0000 </r>
       <r>    6.1817    1.0000 </r>
       <r>    6.3359    1.0000 </r>
       <r>    6.4438    1.0000 </r>
       <r>    6.8923    1.0000 </r>
       <r>    7.0599    1.0000 </r>
       <r>   11.0666    0.0000 </r>
       <r>   14.9715    0.0000 </r>
       <r>   16.1380    0.0000 </r>
       <r>   13.8497    0.0000 </r>
       <r>   13.9979    0.0000 </r>
      </set>
      <set comment="kpoint 5">
       <r>   -0.2835    1.0000 </r>
       <r>    0.6643    1.0000 </r>
       <r>    1.5125    1.0000 </r>
       <r>    1.9707    1.0000 </r>
       <r>    2.1411    1.0000 </r>
       <r>    2.3387    1.0000 </r>
       <r>    2.5142    1.0000 </r>
       <r>    2.5147    1.0000 </r>
       <r>    2.8824    1.0000 </r>
       <r>    3.1792    1.0000 </r>
       <r>    3.5698    1.0000 </r>
       <r>    3.7137    1.0000 </r>
       <r>    3.8225    1.0000 </r>
       <r>    3.8300    1.0000 </r>
       <r>    4.0491    1.0000 </r>
       <r>    4.2030    1.0000 </r>
       <r>    4.3527    1.0000 </r>
       <r>    4.4400    1.0000 </r>
       <r>    4.4484    1.0000 </r>
       <r>    4.4810    1.0000 </r>
       <r>    4.7522    1.0000 </r>
       <r>    5.3663    1.0000 </r>
       <r>    5.4309    1.0000 </r>
       <r>    5.4331    1.0000 </r>
       <r>    5.4585    1.0000 </r>
       <r>    5.4905    1.0000 </r>
       <r>    5.6769    1.0000 </r>
       <r>    5.9103    1.0000 </r>
       <r>    5.9687    1.0000 </r>
       <r>    6.0457    1.0000 </r>
       <r>    6.1658    1.0000 </r>
       <r>    6.3412    1.0000 </r>
       <r>    6.4476    1.0000 </r>
       <r>    7.2160    1.0001 </r>
       <r>    7.4509    1.0051 </r>
       <r>   11.6079    0.0000 </r>
       <r>   14.4502    0.0000 </r>
       <r>   15.6102    0.0000 </r>
       <r>   16.2680    0.0000 </r>
       <r>   16.3334    0.0000 </r>
      </set>
      <set comment="kpoint 6">
       <r>    0.0189    1.0000 </r>
       <r>    0.9026    1.0000 </r>
       <r>    1.6227    1.0000 </r>
       <r>    2.0395    1.0000 </r>
       <r>    2.2443    1.0000 </r>
       <r>    2.5065    1.0000 </r>
       <r>    2.5311    1.0000 </r>
       <r>    2.7908    1.0000 </r>
       <r>    3.0832    1.0000 </r>
       <r>    3.3371    1.0000 </r>
       <r>    3.4664    1.0000 </r>
       <r>    3.6153    1.0000 </r>
       <r>    3.6958    1.0000 </r>
       <r>    3.8552    1.0000 </r>
       <r>    4.0103    1.0000 </r>
       <r>    4.1936    1.0000 </r>
       <r>    4.2678    1.0000 </r>
       <r>    4.3491    1.0000 </r>
       <r>    4.3669    1.0000 </r>
       <r>    4.5505    1.0000 </r>
       <r>    4.5924    1.0000 </r>
       <r>    5.3930    1.0000 </r>
       <r>    5.4032    1.0000 </r>
       <r>    5.4284    1.0000 </r>
       <r>    5.4493    1.0000 </r>
       <r>    5.4792    1.0000 </r>
       <r>    5.6423    1.0000 </r>
       <r>    5.8319    1.0000 </r>
       <r>    5.9936    1.0000 </r>
       <r>    6.0319    1.0000 </r>
       <r>    6.1430    1.0000 </r>
       <r>    6.3547    1.0000 </r>
       <r>    6.4514    1.0000 </r>
       <r>    7.5571    1.0153 </r>
       <r>    7.8547    0.9866 </r>
       <r>   12.2275    0.0000 </r>
       <r>   13.5397    0.0000 </r>
       <r>   15.1884    0.0000 </r>
       <r>   15.4580    0.0000 </r>
       <r>   15.9992    0.0000 </r>
      </set>
      <set comment="kpoint 7">
       <r>    0.3591    1.0000 </r>
       <r>    1.1328    1.0000 </r>
       <r>    1.7018    1.0000 </r>
       <r>    2.1025    1.0000 </r>
       <r>    2.3440    1.0000 </r>
       <r>    2.4616    1.0000 </r>
       <r>    2.7637    1.0000 </r>
       <r>    3.1105    1.0000 </r>
       <r>    3.2148    1.0000 </r>
       <r>    3.4149    1.0000 </r>
       <r>    3.5107    1.0000 </r>
       <r>    3.5796    1.0000 </r>
       <r>    3.6641    1.0000 </r>
       <r>    3.8609    1.0000 </r>
       <r>    3.9626    1.0000 </r>
       <r>    4.1747    1.0000 </r>
       <r>    4.2497    1.0000 </r>
       <r>    4.2805    1.0000 </r>
       <r>    4.3207    1.0000 </r>
       <r>    4.4363    1.0000 </r>
       <r>    4.6479    1.0000 </r>
       <r>    5.2966    1.0000 </r>
       <r>    5.4144    1.0000 </r>
       <r>    5.4598    1.0000 </r>
       <r>    5.4635    1.0000 </r>
       <r>    5.4832    1.0000 </r>
       <r>    5.5604    1.0000 </r>
       <r>    5.8562    1.0000 </r>
       <r>    6.0136    1.0000 </r>
       <r>    6.0430    1.0000 </r>
       <r>    6.1174    1.0000 </r>
       <r>    6.3696    1.0000 </r>
       <r>    6.4527    1.0000 </r>
       <r>    7.9148    0.9138 </r>
       <r>    8.2516    0.1107 </r>
       <r>   12.5323    0.0000 </r>
       <r>   12.9025    0.0000 </r>
       <r>   14.2962    0.0000 </r>
       <r>   14.4069    0.0000 </r>
       <r>   15.7804    0.0000 </r>
      </set>
      <set comment="kpoint 8">
       <r>    0.7139    1.0000 </r>
       <r>    1.3284    1.0000 </r>
       <r>    1.7444    1.0000 </r>
       <r>    2.1665    1.0000 </r>
       <r>    2.3802    1.0000 </r>
       <r>    2.4428    1.0000 </r>
       <r>    3.0134    1.0000 </r>
       <r>    3.1656    1.0000 </r>
       <r>    3.3515    1.0000 </r>
       <r>    3.3521    1.0000 </r>
       <r>    3.5790    1.0000 </r>
       <r>    3.8121    1.0000 </r>
       <r>    3.8366    1.0000 </r>
       <r>    3.8998    1.0000 </r>
       <r>    3.9089    1.0000 </r>
       <r>    4.1431    1.0000 </r>
       <r>    4.1447    1.0000 </r>
       <r>    4.2964    1.0000 </r>
       <r>    4.3287    1.0000 </r>
       <r>    4.3970    1.0000 </r>
       <r>    4.8168    1.0000 </r>
       <r>    5.2084    1.0000 </r>
       <r>    5.4251    1.0000 </r>
       <r>    5.4470    1.0000 </r>
       <r>    5.4690    1.0000 </r>
       <r>    5.4814    1.0000 </r>
       <r>    5.5395    1.0000 </r>
       <r>    5.9166    1.0000 </r>
       <r>    5.9975    1.0000 </r>
       <r>    6.0952    1.0000 </r>
       <r>    6.1195    1.0000 </r>
       <r>    6.3814    1.0000 </r>
       <r>    6.4496    1.0000 </r>
       <r>    8.2878    0.0561 </r>
       <r>    8.6126   -0.0169 </r>
       <r>   11.5344    0.0000 </r>
       <r>   13.2486    0.0000 </r>
       <r>   13.3759    0.0000 </r>
       <r>   13.6994    0.0000 </r>
       <r>   15.7708    0.0000 </r>
      </set>
      <set comment="kpoint 9">
       <r>    1.0500    1.0000 </r>
       <r>    1.4741    1.0000 </r>
       <r>    1.7575    1.0000 </r>
       <r>    2.2483    1.0000 </r>
       <r>    2.2766    1.0000 </r>
       <r>    2.5443    1.0000 </r>
       <r>    3.1066    1.0000 </r>
       <r>    3.2461    1.0000 </r>
       <r>    3.2522    1.0000 </r>
       <r>    3.3599    1.0000 </r>
       <r>    3.7848    1.0000 </r>
       <r>    3.7883    1.0000 </r>
       <r>    3.8542    1.0000 </r>
       <r>    4.0388    1.0000 </r>
       <r>    4.1140    1.0000 </r>
       <r>    4.1578    1.0000 </r>
       <r>    4.1720    1.0000 </r>
       <r>    4.1814    1.0000 </r>
       <r>    4.3732    1.0000 </r>
       <r>    4.6674    1.0000 </r>
       <r>    5.1105    1.0000 </r>
       <r>    5.1336    1.0000 </r>
       <r>    5.3831    1.0000 </r>
       <r>    5.4320    1.0000 </r>
       <r>    5.4619    1.0000 </r>
       <r>    5.5403    1.0000 </r>
       <r>    5.5500    1.0000 </r>
       <r>    5.9861    1.0000 </r>
       <r>    5.9931    1.0000 </r>
       <r>    6.0819    1.0000 </r>
       <r>    6.2260    1.0000 </r>
       <r>    6.3888    1.0000 </r>
       <r>    6.4412    1.0000 </r>
       <r>    8.6638   -0.0106 </r>
       <r>    8.8752   -0.0007 </r>
       <r>   10.5839    0.0000 </r>
       <r>   12.2335    0.0000 </r>
       <r>   12.6431    0.0000 </r>
       <r>   14.3918    0.0000 </r>
       <r>   15.4389    0.0000 </r>
      </set>
      <set comment="kpoint 10">
       <r>    1.3247    1.0000 </r>
       <r>    1.5681    1.0000 </r>
       <r>    1.7534    1.0000 </r>
       <r>    2.1716    1.0000 </r>
       <r>    2.3654    1.0000 </r>
       <r>    2.6530    1.0000 </r>
       <r>    3.0536    1.0000 </r>
       <r>    3.1779    1.0000 </r>
       <r>    3.3183    1.0000 </r>
       <r>    3.4441    1.0000 </r>
       <r>    3.7334    1.0000 </r>
       <r>    3.8041    1.0000 </r>
       <r>    3.9046    1.0000 </r>
       <r>    3.9421    1.0000 </r>
       <r>    4.0926    1.0000 </r>
       <r>    4.0928    1.0000 </r>
       <r>    4.3324    1.0000 </r>
       <r>    4.4320    1.0000 </r>
       <r>    4.5773    1.0000 </r>
       <r>    5.0747    1.0000 </r>
       <r>    5.0751    1.0000 </r>
       <r>    5.3818    1.0000 </r>
       <r>    5.3851    1.0000 </r>
       <r>    5.4421    1.0000 </r>
       <r>    5.5305    1.0000 </r>
       <r>    5.5692    1.0000 </r>
       <r>    5.6665    1.0000 </r>
       <r>    5.9794    1.0000 </r>
       <r>    6.0802    1.0000 </r>
       <r>    6.0971    1.0000 </r>
       <r>    6.3747    1.0000 </r>
       <r>    6.3924    1.0000 </r>
       <r>    6.4284    1.0000 </r>
       <r>    8.9159   -0.0004 </r>
       <r>    8.9621   -0.0002 </r>
       <r>    9.7214    0.0000 </r>
       <r>   11.3565    0.0000 </r>
       <r>   12.1709    0.0000 </r>
       <r>   14.5174    0.0000 </r>
       <r>   14.9653    0.0000 </r>
      </set>
      <set comment="kpoint 11">
       <r>    1.5041    1.0000 </r>
       <r>    1.6246    1.0000 </r>
       <r>    1.7436    1.0000 </r>
       <r>    2.0836    1.0000 </r>
       <r>    2.5016    1.0000 </r>
       <r>    2.7798    1.0000 </r>
       <r>    2.9983    1.0000 </r>
       <r>    3.1444    1.0000 </r>
       <r>    3.2687    1.0000 </r>
       <r>    3.5822    1.0000 </r>
       <r>    3.6863    1.0000 </r>
       <r>    3.7641    1.0000 </r>
       <r>    3.8658    1.0000 </r>
       <r>    3.9561    1.0000 </r>
       <r>    4.0290    1.0000 </r>
       <r>    4.0777    1.0000 </r>
       <r>    4.4216    1.0000 </r>
       <r>    4.4891    1.0000 </r>
       <r>    4.9607    1.0000 </r>
       <r>    5.0335    1.0000 </r>
       <r>    5.3153    1.0000 </r>
       <r>    5.3602    1.0000 </r>
       <r>    5.4152    1.0000 </r>
       <r>    5.4701    1.0000 </r>
       <r>    5.6481    1.0000 </r>
       <r>    5.6800    1.0000 </r>
       <r>    5.9763    1.0000 </r>
       <r>    6.0872    1.0000 </r>
       <r>    6.1980    1.0000 </r>
       <r>    6.3135    1.0000 </r>
       <r>    6.3933    1.0000 </r>
       <r>    6.4138    1.0000 </r>
       <r>    6.5984    1.0000 </r>
       <r>    8.6238   -0.0153 </r>
       <r>    8.7383   -0.0046 </r>
       <r>    9.1483    0.0000 </r>
       <r>   10.9062    0.0000 </r>
       <r>   12.1278    0.0000 </r>
       <r>   13.5537    0.0000 </r>
       <r>   14.4611    0.0000 </r>
      </set>
      <set comment="kpoint 12">
       <r>    1.5826    1.0000 </r>
       <r>    1.6675    1.0000 </r>
       <r>    1.7356    1.0000 </r>
       <r>    2.0253    1.0000 </r>
       <r>    2.6000    1.0000 </r>
       <r>    2.9303    1.0000 </r>
       <r>    2.9567    1.0000 </r>
       <r>    3.1339    1.0000 </r>
       <r>    3.1971    1.0000 </r>
       <r>    3.6553    1.0000 </r>
       <r>    3.6630    1.0000 </r>
       <r>    3.7384    1.0000 </r>
       <r>    3.8175    1.0000 </r>
       <r>    3.9737    1.0000 </r>
       <r>    3.9901    1.0000 </r>
       <r>    4.0688    1.0000 </r>
       <r>    4.4677    1.0000 </r>
       <r>    4.5310    1.0000 </r>
       <r>    5.0089    1.0000 </r>
       <r>    5.2198    1.0000 </r>
       <r>    5.3468    1.0000 </r>
       <r>    5.3655    1.0000 </r>
       <r>    5.3916    1.0000 </r>
       <r>    5.4942    1.0000 </r>
       <r>    5.6845    1.0000 </r>
       <r>    5.8346    1.0000 </r>
       <r>    5.9753    1.0000 </r>
       <r>    6.0965    1.0000 </r>
       <r>    6.3930    1.0000 </r>
       <r>    6.4017    1.0000 </r>
       <r>    6.7851    1.0000 </r>
       <r>    6.8354    1.0000 </r>
       <r>    6.9871    1.0000 </r>
       <r>    8.0718    0.5532 </r>
       <r>    8.0858    0.5140 </r>
       <r>    8.5573   -0.0251 </r>
       <r>   11.1420    0.0000 </r>
       <r>   12.4551    0.0000 </r>
       <r>   12.6615    0.0000 </r>
       <r>   13.6993    0.0000 </r>
      </set>
      <set comment="kpoint 13">
       <r>    1.5991    1.0000 </r>
       <r>    1.6874    1.0000 </r>
       <r>    1.7328    1.0000 </r>
       <r>    2.0049    1.0000 </r>
       <r>    2.6328    1.0000 </r>
       <r>    2.9417    1.0000 </r>
       <r>    3.0452    1.0000 </r>
       <r>    3.1191    1.0000 </r>
       <r>    3.1317    1.0000 </r>
       <r>    3.6446    1.0000 </r>
       <r>    3.6889    1.0000 </r>
       <r>    3.7295    1.0000 </r>
       <r>    3.8011    1.0000 </r>
       <r>    3.9770    1.0000 </r>
       <r>    3.9771    1.0000 </r>
       <r>    4.0658    1.0000 </r>
       <r>    4.4818    1.0000 </r>
       <r>    4.5465    1.0000 </r>
       <r>    5.0007    1.0000 </r>
       <r>    5.2929    1.0000 </r>
       <r>    5.3622    1.0000 </r>
       <r>    5.3819    1.0000 </r>
       <r>    5.3822    1.0000 </r>
       <r>    5.4933    1.0000 </r>
       <r>    5.6924    1.0000 </r>
       <r>    5.8758    1.0000 </r>
       <r>    5.9751    1.0000 </r>
       <r>    6.1006    1.0000 </r>
       <r>    6.3928    1.0000 </r>
       <r>    6.3969    1.0000 </r>
       <r>    7.1850    1.0001 </r>
       <r>    7.4024    1.0028 </r>
       <r>    7.4344    1.0042 </r>
       <r>    7.5411    1.0132 </r>
       <r>    7.6693    1.0316 </r>
       <r>    7.9464    0.8596 </r>
       <r>   11.5801    0.0000 </r>
       <r>   12.0525    0.0000 </r>
       <r>   13.0085    0.0000 </r>
       <r>   13.0105    0.0000 </r>
      </set>
      <set comment="kpoint 14">
       <r>   -0.7924    1.0000 </r>
       <r>    0.2050    1.0000 </r>
       <r>    1.2356    1.0000 </r>
       <r>    1.7683    1.0000 </r>
       <r>    1.9109    1.0000 </r>
       <r>    2.0365    1.0000 </r>
       <r>    2.1635    1.0000 </r>
       <r>    2.4372    1.0000 </r>
       <r>    2.6176    1.0000 </r>
       <r>    2.9604    1.0000 </r>
       <r>    3.7175    1.0000 </r>
       <r>    3.7678    1.0000 </r>
       <r>    4.0169    1.0000 </r>
       <r>    4.0992    1.0000 </r>
       <r>    4.1702    1.0000 </r>
       <r>    4.2077    1.0000 </r>
       <r>    4.3060    1.0000 </r>
       <r>    4.6050    1.0000 </r>
       <r>    4.6357    1.0000 </r>
       <r>    4.9504    1.0000 </r>
       <r>    5.0763    1.0000 </r>
       <r>    5.1763    1.0000 </r>
       <r>    5.3749    1.0000 </r>
       <r>    5.3805    1.0000 </r>
       <r>    5.5633    1.0000 </r>
       <r>    5.6923    1.0000 </r>
       <r>    5.7738    1.0000 </r>
       <r>    5.9666    1.0000 </r>
       <r>    5.9715    1.0000 </r>
       <r>    6.1812    1.0000 </r>
       <r>    6.3082    1.0000 </r>
       <r>    6.3169    1.0000 </r>
       <r>    6.4426    1.0000 </r>
       <r>    6.4576    1.0000 </r>
       <r>    6.5583    1.0000 </r>
       <r>   10.4430    0.0000 </r>
       <r>   15.1569    0.0000 </r>
       <r>   14.3080    0.0000 </r>
       <r>   14.1717    0.0000 </r>
       <r>   16.3856    0.0000 </r>
      </set>
      <set comment="kpoint 15">
       <r>   -0.6789    1.0000 </r>
       <r>    0.3141    1.0000 </r>
       <r>    1.3092    1.0000 </r>
       <r>    1.8409    1.0000 </r>
       <r>    1.9692    1.0000 </r>
       <r>    2.0953    1.0000 </r>
       <r>    2.2162    1.0000 </r>
       <r>    2.4734    1.0000 </r>
       <r>    2.6575    1.0000 </r>
       <r>    3.0022    1.0000 </r>
       <r>    3.6787    1.0000 </r>
       <r>    3.7890    1.0000 </r>
       <r>    3.9295    1.0000 </r>
       <r>    4.0862    1.0000 </r>
       <r>    4.0899    1.0000 </r>
       <r>    4.1936    1.0000 </r>
       <r>    4.3549    1.0000 </r>
       <r>    4.5375    1.0000 </r>
       <r>    4.5692    1.0000 </r>
       <r>    4.7835    1.0000 </r>
       <r>    4.9854    1.0000 </r>
       <r>    5.2194    1.0000 </r>
       <r>    5.3922    1.0000 </r>
       <r>    5.3991    1.0000 </r>
       <r>    5.6304    1.0000 </r>
       <r>    5.6324    1.0000 </r>
       <r>    5.6664    1.0000 </r>
       <r>    5.9617    1.0000 </r>
       <r>    6.0000    1.0000 </r>
       <r>    6.1474    1.0000 </r>
       <r>    6.2163    1.0000 </r>
       <r>    6.3044    1.0000 </r>
       <r>    6.4425    1.0000 </r>
       <r>    6.6885    1.0000 </r>
       <r>    6.8104    1.0000 </r>
       <r>   10.7219    0.0000 </r>
       <r>   15.1179    0.0000 </r>
       <r>   15.5904    0.0000 </r>
       <r>   14.1634    0.0000 </r>
       <r>   14.9111    0.0000 </r>
      </set>
      <set comment="kpoint 16">
       <r>   -0.4941    1.0000 </r>
       <r>    0.4859    1.0000 </r>
       <r>    1.4178    1.0000 </r>
       <r>    1.9283    1.0000 </r>
       <r>    2.0598    1.0000 </r>
       <r>    2.2015    1.0000 </r>
       <r>    2.3249    1.0000 </r>
       <r>    2.5136    1.0000 </r>
       <r>    2.7417    1.0000 </r>
       <r>    3.0753    1.0000 </r>
       <r>    3.6248    1.0000 </r>
       <r>    3.8104    1.0000 </r>
       <r>    3.8217    1.0000 </r>
       <r>    3.9617    1.0000 </r>
[...]
       <r>    6.0736    1.0000 </r>
       <r>    6.0975    1.0000 </r>
       <r>    6.1395    1.0000 </r>
       <r>    6.1735    1.0000 </r>
       <r>    6.2272    1.0000 </r>
       <r>    6.3051    1.0000 </r>
       <r>    6.4360    1.0000 </r>
       <r>    6.4567    1.0000 </r>
       <r>    6.5332    1.0000 </r>
       <r>    9.2175    0.0000 </r>
       <r>    9.8255    0.0000 </r>
       <r>    9.9297    0.0000 </r>
       <r>   10.5895    0.0000 </r>
       <r>   12.5407    0.0000 </r>
       <r>   12.7624    0.0000 </r>
       <r>   13.5988    0.0000 </r>
       <r>   13.6967    0.0000 </r>
       <r>   14.1091    0.0000 </r>
       <r>   14.2893    0.0000 </r>
      </set>
      <set comment="kpoint 363">
       <r>    1.4913    1.0000 </r>
       <r>    1.8258    1.0000 </r>
       <r>    1.9385    1.0000 </r>
       <r>    2.1488    1.0000 </r>
       <r>    2.1491    1.0000 </r>
       <r>    2.2778    1.0000 </r>
       <r>    2.5169    1.0000 </r>
       <r>    2.5454    1.0000 </r>
       <r>    2.8966    1.0000 </r>
       <r>    2.9286    1.0000 </r>
       <r>    3.0329    1.0000 </r>
       <r>    4.1598    1.0000 </r>
       <r>    4.2558    1.0000 </r>
       <r>    4.3015    1.0000 </r>
       <r>    4.5797    1.0000 </r>
       <r>    5.3027    1.0000 </r>
       <r>    5.3050    1.0000 </r>
       <r>    5.3448    1.0000 </r>
       <r>    5.4934    1.0000 </r>
       <r>    5.5010    1.0000 </r>
       <r>    5.5460    1.0000 </r>
       <r>    6.1002    1.0000 </r>
       <r>    6.1061    1.0000 </r>
       <r>    6.1509    1.0000 </r>
       <r>    6.1695    1.0000 </r>
       <r>    6.2557    1.0000 </r>
       <r>    6.3106    1.0000 </r>
       <r>    6.4499    1.0000 </r>
       <r>    6.4621    1.0000 </r>
       <r>    6.5839    1.0000 </r>
       <r>    9.6227    0.0000 </r>
       <r>    9.6585    0.0000 </r>
       <r>   10.2554    0.0000 </r>
       <r>   10.3133    0.0000 </r>
       <r>   12.9541    0.0000 </r>
       <r>   13.0410    0.0000 </r>
       <r>   13.6387    0.0000 </r>
       <r>   13.6712    0.0000 </r>
       <r>   13.7089    0.0000 </r>
       <r>   13.8322    0.0000 </r>
      </set>
      <set comment="kpoint 364">
       <r>    1.4686    1.0000 </r>
       <r>    1.8095    1.0000 </r>
       <r>    1.9176    1.0000 </r>
       <r>    2.1383    1.0000 </r>
       <r>    2.1383    1.0000 </r>
       <r>    2.2565    1.0000 </r>
       <r>    2.5232    1.0000 </r>
       <r>    2.5232    1.0000 </r>
       <r>    2.9118    1.0000 </r>
       <r>    2.9118    1.0000 </r>
       <r>    3.0319    1.0000 </r>
       <r>    4.1547    1.0000 </r>
       <r>    4.2956    1.0000 </r>
       <r>    4.2956    1.0000 </r>
       <r>    4.5737    1.0000 </r>
       <r>    5.3115    1.0000 </r>
       <r>    5.3658    1.0000 </r>
       <r>    5.3660    1.0000 </r>
       <r>    5.5053    1.0000 </r>
       <r>    5.5563    1.0000 </r>
       <r>    5.5563    1.0000 </r>
       <r>    6.1229    1.0000 </r>
       <r>    6.1455    1.0000 </r>
       <r>    6.1455    1.0000 </r>
       <r>    6.1615    1.0000 </r>
       <r>    6.2799    1.0000 </r>
       <r>    6.3181    1.0000 </r>
       <r>    6.4649    1.0000 </r>
       <r>    6.4661    1.0000 </r>
       <r>    6.6408    1.0000 </r>
       <r>    9.7419    0.0000 </r>
       <r>    9.7419    0.0000 </r>
       <r>   10.4004    0.0000 </r>
       <r>   10.4004    0.0000 </r>
       <r>   12.9477    0.0000 </r>
       <r>   13.2855    0.0000 </r>
       <r>   13.4364    0.0000 </r>
       <r>   13.9718    0.0000 </r>
       <r>   13.9750    0.0000 </r>
       <r>   14.0364    0.0000 </r>
      </set>
     </set>
    </set>
   </array>
  </eigenvalues>
  <separator name="orbital magnetization" >
   <v name="MAGDIPOLOUT">      0.00000000      0.00000000      0.00000000</v>
  </separator>
  <dos>
   <i name="efermi">      8.09075146 </i>
   <total>
    <array>
     <dimension dim="1">gridpoints</dimension>
     <dimension dim="2">spin</dimension>
     <field>energy</field>
     <field>total</field>
     <field>integrated</field>
     <set>
      <set comment="spin 1">
       <r>    -3.8690     0.0000     0.0000 </r>
       <r>    -3.7897     0.0000     0.0000 </r>
       <r>    -3.7104     0.0000     0.0000 </r>
       <r>    -3.6311     0.0000     0.0000 </r>
       <r>    -3.5518     0.0000     0.0000 </r>
       <r>    -3.4725     0.0000     0.0000 </r>
       <r>    -3.3931     0.0000     0.0000 </r>
       <r>    -3.3138     0.0000     0.0000 </r>
       <r>    -3.2345     0.0000     0.0000 </r>
       <r>    -3.1552     0.0000     0.0000 </r>
       <r>    -3.0759     0.0000     0.0000 </r>
       <r>    -2.9966     0.0000     0.0000 </r>
       <r>    -2.9173     0.0000     0.0000 </r>
       <r>    -2.8380     0.0000     0.0000 </r>
       <r>    -2.7587     0.0000     0.0000 </r>
       <r>    -2.6794     0.0000     0.0000 </r>
       <r>    -2.6001     0.0000     0.0000 </r>
       <r>    -2.5208     0.0000     0.0000 </r>
       <r>    -2.4415     0.0000     0.0000 </r>
       <r>    -2.3622     0.0000     0.0000 </r>
       <r>    -2.2829     0.0000     0.0000 </r>
       <r>    -2.2036     0.0000     0.0000 </r>
       <r>    -2.1243     0.0000     0.0000 </r>
       <r>    -2.0450     0.0000     0.0000 </r>
       <r>    -1.9657     0.0000     0.0000 </r>
       <r>    -1.8864     0.0000     0.0000 </r>
       <r>    -1.8071     0.0000     0.0000 </r>
       <r>    -1.7278     0.0000     0.0000 </r>
       <r>    -1.6485    -0.0001     0.0000 </r>
       <r>    -1.5692    -0.0002     0.0000 </r>
       <r>    -1.4898    -0.0008    -0.0001 </r>
       <r>    -1.4105    -0.0019    -0.0002 </r>
       <r>    -1.3312    -0.0042    -0.0006 </r>
       <r>    -1.2519    -0.0074    -0.0012 </r>
       <r>    -1.1726    -0.0097    -0.0019 </r>
       <r>    -1.0933    -0.0065    -0.0024 </r>
       <r>    -1.0140     0.0087    -0.0018 </r>
       <r>    -0.9347     0.0416     0.0015 </r>
       <r>    -0.8554     0.0927     0.0089 </r>
       <r>    -0.7761     0.1546     0.0212 </r>
       <r>    -0.6968     0.2146     0.0382 </r>
       <r>    -0.6175     0.2610     0.0589 </r>
       <r>    -0.5382     0.2883     0.0817 </r>
       <r>    -0.4589     0.2996     0.1055 </r>
       <r>    -0.3796     0.3029     0.1295 </r>
       <r>    -0.3003     0.3076     0.1539 </r>
       <r>    -0.2210     0.3220     0.1794 </r>
       <r>    -0.1417     0.3517     0.2073 </r>
       <r>    -0.0624     0.3981     0.2389 </r>
       <r>     0.0169     0.4570     0.2751 </r>
       <r>     0.0962     0.5191     0.3163 </r>
       <r>     0.1755     0.5750     0.3619 </r>
       <r>     0.2548     0.6191     0.4110 </r>
       <r>     0.3341     0.6512     0.4627 </r>
       <r>     0.4135     0.6733     0.5160 </r>
       <r>     0.4928     0.6883     0.5706 </r>
       <r>     0.5721     0.7007     0.6262 </r>
       <r>     0.6514     0.7145     0.6829 </r>
       <r>     0.7307     0.7310     0.7408 </r>
       <r>     0.8100     0.7482     0.8002 </r>
       <r>     0.8893     0.7637     0.8607 </r>
       <r>     0.9686     0.7789     0.9225 </r>
       <r>     1.0479     0.8005     0.9860 </r>
       <r>     1.1272     0.8435     1.0529 </r>
       <r>     1.2065     0.9345     1.1270 </r>
       <r>     1.2858     1.1110     1.2151 </r>
       <r>     1.3651     1.4097     1.3269 </r>
       <r>     1.4444     1.8498     1.4736 </r>
       <r>     1.5237     2.4255     1.6659 </r>
       <r>     1.6030     3.1211     1.9135 </r>
       <r>     1.6823     3.9342     2.2255 </r>
       <r>     1.7616     4.8821     2.6126 </r>
       <r>     1.8409     5.9780     3.0867 </r>
       <r>     1.9202     7.1923     3.6571 </r>
       <r>     1.9995     8.4305     4.3257 </r>
       <r>     2.0788     9.5476     5.0828 </r>
       <r>     2.1581    10.4047     5.9080 </r>
       <r>     2.2374    10.9409     6.7756 </r>
       <r>     2.3168    11.2092     7.6646 </r>
       <r>     2.3961    11.3301     8.5631 </r>
       <r>     2.4754    11.3943     9.4667 </r>
       <r>     2.5547    11.4056    10.3712 </r>
       <r>     2.6340    11.3259    11.2694 </r>
       <r>     2.7133    11.1781    12.1559 </r>
       <r>     2.7926    11.0946    13.0357 </r>
       <r>     2.8719    11.2477    13.9277 </r>
       <r>     2.9512    11.7119    14.8565 </r>
       <r>     3.0305    12.3741    15.8378 </r>
       <r>     3.1098    12.9838    16.8675 </r>
       <r>     3.1891    13.3167    17.9236 </r>
       <r>     3.2684    13.3220    18.9801 </r>
       <r>     3.3477    13.1371    20.0219 </r>
       <r>     3.4270    12.9743    21.0508 </r>
       <r>     3.5063    12.9911    22.0810 </r>
       <r>     3.5856    13.2322    23.1304 </r>
       <r>     3.6649    13.6408    24.2122 </r>
       <r>     3.7442    14.0957    25.3300 </r>
       <r>     3.8235    14.4568    26.4765 </r>
       <r>     3.9028    14.6136    27.6354 </r>
       <r>     3.9821    14.5200    28.7869 </r>
       <r>     4.0614    14.1996    29.9130 </r>
       <r>     4.1407    13.7192    31.0010 </r>
       <r>     4.2200    13.1466    32.0436 </r>
       <r>     4.2994    12.5168    33.0362 </r>
       <r>     4.3787    11.8313    33.9745 </r>
       <r>     4.4580    11.0921    34.8541 </r>
       <r>     4.5373    10.3349    35.6737 </r>
       <r>     4.6166     9.6226    36.4369 </r>
       <r>     4.6959     9.0097    37.1514 </r>
       <r>     4.7752     8.5214    37.8271 </r>
       <r>     4.8545     8.1683    38.4749 </r>
       <r>     4.9338     7.9819    39.1079 </r>
       <r>     5.0131     8.0403    39.7456 </r>
       <r>     5.0924     8.4709    40.4173 </r>
       <r>     5.1717     9.4116    41.1637 </r>
       <r>     5.2510    10.9105    42.0290 </r>
       <r>     5.3303    12.7966    43.0438 </r>
       <r>     5.4096    14.6359    44.2045 </r>
       <r>     5.4889    15.8815    45.4639 </r>
       <r>     5.5682    16.1843    46.7474 </r>
       <r>     5.6475    15.6666    47.9898 </r>
       <r>     5.7268    14.9429    49.1749 </r>
       <r>     5.8061    14.8104    50.3494 </r>
       <r>     5.8854    15.7610    51.5993 </r>
       <r>     5.9647    17.6285    52.9973 </r>
       <r>     6.0440    19.6497    54.5556 </r>
       <r>     6.1233    20.9192    56.2146 </r>
       <r>     6.2027    20.8802    57.8705 </r>
       <r>     6.2820    19.4808    59.4154 </r>
       <r>     6.3613    16.9864    60.7625 </r>
       <r>     6.4406    13.7569    61.8535 </r>
       <r>     6.5199    10.2073    62.6630 </r>
       <r>     6.5992     6.8411    63.2055 </r>
       <r>     6.6785     4.1566    63.5351 </r>
       <r>     6.7578     2.4385    63.7285 </r>
       <r>     6.8371     1.6389    63.8585 </r>
       <r>     6.9164     1.4632    63.9745 </r>
       <r>     6.9957     1.5671    64.0988 </r>
       <r>     7.0750     1.7084    64.2343 </r>
       <r>     7.1543     1.7832    64.3757 </r>
       <r>     7.2336     1.7837    64.5172 </r>
       <r>     7.3129     1.7439    64.6555 </r>
       <r>     7.3922     1.7036    64.7906 </r>
       <r>     7.4715     1.6895    64.9245 </r>
       <r>     7.5508     1.7043    65.0597 </r>
       <r>     7.6301     1.7278    65.1967 </r>
       <r>     7.7094     1.7376    65.3345 </r>
       <r>     7.7887     1.7311    65.4718 </r>
       <r>     7.8680     1.7264    65.6087 </r>
       <r>     7.9473     1.7389    65.7466 </r>
       <r>     8.0266     1.7618    65.8863 </r>
       <r>     8.1060     1.7727    66.0269 </r>
       <r>     8.1853     1.7582    66.1663 </r>
       <r>     8.2646     1.7265    66.3033 </r>
       <r>     8.3439     1.6973    66.4379 </r>
       <r>     8.4232     1.6807    66.5712 </r>
       <r>     8.5025     1.6711    66.7037 </r>
       <r>     8.5818     1.6604    66.8354 </r>
       <r>     8.6611     1.6514    66.9663 </r>
       <r>     8.7404     1.6550    67.0976 </r>
       <r>     8.8197     1.6727    67.2302 </r>
       <r>     8.8990     1.6887    67.3641 </r>
       <r>     8.9783     1.6804    67.4974 </r>
       <r>     9.0576     1.6400    67.6275 </r>
       <r>     9.1369     1.5854    67.7532 </r>
       <r>     9.2162     1.5485    67.8760 </r>
       <r>     9.2955     1.5511    67.9990 </r>
       <r>     9.3748     1.5859    68.1248 </r>
       <r>     9.4541     1.6220    68.2534 </r>
       <r>     9.5334     1.6303    68.3827 </r>
       <r>     9.6127     1.6058    68.5100 </r>
       <r>     9.6920     1.5667    68.6343 </r>
       <r>     9.7713     1.5333    68.7559 </r>
       <r>     9.8506     1.5099    68.8756 </r>
       <r>     9.9299     1.4862    68.9935 </r>
       <r>    10.0093     1.4538    69.1088 </r>
       <r>    10.0886     1.4191    69.2213 </r>
       <r>    10.1679     1.3982    69.3322 </r>
       <r>    10.2472     1.3992    69.4431 </r>
       <r>    10.3265     1.4102    69.5550 </r>
       <r>    10.4058     1.4083    69.6667 </r>
       <r>    10.4851     1.3809    69.7762 </r>
       <r>    10.5644     1.3371    69.8822 </r>
       <r>    10.6437     1.2993    69.9852 </r>
       <r>    10.7230     1.2847    70.0871 </r>
       <r>    10.8023     1.2991    70.1901 </r>
       <r>    10.8816     1.3433    70.2967 </r>
       <r>    10.9609     1.4185    70.4092 </r>
       <r>    11.0402     1.5187    70.5296 </r>
       <r>    11.1195     1.6223    70.6583 </r>
       <r>    11.1988     1.6980    70.7929 </r>
       <r>    11.2781     1.7262    70.9298 </r>
       <r>    11.3574     1.7141    71.0657 </r>
       <r>    11.4367     1.6901    71.1998 </r>
       <r>    11.5160     1.6817    71.3331 </r>
       <r>    11.5953     1.6976    71.4678 </r>
       <r>    11.6746     1.7259    71.6046 </r>
       <r>    11.7539     1.7468    71.7432 </r>
       <r>    11.8332     1.7469    71.8817 </r>
       <r>    11.9126     1.7270    72.0187 </r>
       <r>    11.9919     1.6979    72.1533 </r>
       <r>    12.0712     1.6715    72.2859 </r>
       <r>    12.1505     1.6540    72.4170 </r>
       <r>    12.2298     1.6484    72.5478 </r>
       <r>    12.3091     1.6609    72.6795 </r>
       <r>    12.3884     1.7011    72.8144 </r>
       <r>    12.4677     1.7730    72.9550 </r>
       <r>    12.5470     1.8632    73.1028 </r>
       <r>    12.6263     1.9422    73.2568 </r>
       <r>    12.7056     1.9793    73.4137 </r>
       <r>    12.7849     1.9606    73.5692 </r>
       <r>    12.8642     1.8951    73.7195 </r>
       <r>    12.9435     1.8068    73.8628 </r>
       <r>    13.0228     1.7208    73.9993 </r>
       <r>    13.1021     1.6558    74.1306 </r>
       <r>    13.1814     1.6222    74.2592 </r>
       <r>    13.2607     1.6248    74.3881 </r>
       <r>    13.3400     1.6631    74.5200 </r>
       <r>    13.4193     1.7314    74.6573 </r>
       <r>    13.4986     1.8199    74.8016 </r>
       <r>    13.5779     1.9182    74.9537 </r>
       <r>    13.6572     2.0171    75.1137 </r>
       <r>    13.7365     2.1105    75.2811 </r>
       <r>    13.8158     2.1936    75.4550 </r>
       <r>    13.8952     2.2632    75.6345 </r>
       <r>    13.9745     2.3180    75.8183 </r>
       <r>    14.0538     2.3592    76.0054 </r>
       <r>    14.1331     2.3884    76.1948 </r>
       <r>    14.2124     2.4052    76.3856 </r>
       <r>    14.2917     2.4060    76.5764 </r>
       <r>    14.3710     2.3845    76.7655 </r>
       <r>    14.4503     2.3345    76.9506 </r>
       <r>    14.5296     2.2577    77.1297 </r>
       <r>    14.6089     2.1697    77.3017 </r>
       <r>    14.6882     2.0940    77.4678 </r>
       <r>    14.7675     2.0424    77.6298 </r>
       <r>    14.8468     1.9999    77.7884 </r>
       <r>    14.9261     1.9349    77.9418 </r>
       <r>    15.0054     1.8273    78.0867 </r>
       <r>    15.0847     1.6902    78.2208 </r>
       <r>    15.1640     1.5605    78.3445 </r>
       <r>    15.2433     1.4699    78.4611 </r>
       <r>    15.3226     1.4235    78.5740 </r>
       <r>    15.4019     1.4029    78.6852 </r>
       <r>    15.4812     1.3875    78.7953 </r>
       <r>    15.5605     1.3683    78.9038 </r>
       <r>    15.6398     1.3435    79.0103 </r>
       <r>    15.7191     1.3058    79.1139 </r>
       <r>    15.7985     1.2444    79.2126 </r>
       <r>    15.8778     1.1661    79.3050 </r>
       <r>    15.9571     1.1077    79.3929 </r>
       <r>    16.0364     1.1143    79.4813 </r>
       <r>    16.1157     1.1927    79.5758 </r>
       <r>    16.1950     1.2850    79.6777 </r>
       <r>    16.2743     1.2964    79.7805 </r>
       <r>    16.3536     1.1599    79.8725 </r>
       <r>    16.4329     0.8855    79.9428 </r>
       <r>    16.5122     0.5528    79.9866 </r>
       <r>    16.5915     0.2588    80.0071 </r>
       <r>    16.6708     0.0636    80.0122 </r>
       <r>    16.7501    -0.0285    80.0099 </r>
       <r>    16.8294    -0.0496    80.0060 </r>
       <r>    16.9087    -0.0386    80.0029 </r>
       <r>    16.9880    -0.0217    80.0012 </r>
       <r>    17.0673    -0.0096    80.0004 </r>
       <r>    17.1466    -0.0035    80.0001 </r>
       <r>    17.2259    -0.0011    80.0001 </r>
       <r>    17.3052    -0.0003    80.0000 </r>
       <r>    17.3845    -0.0002    80.0000 </r>
       <r>    17.4638    -0.0001    80.0000 </r>
       <r>    17.5431    -0.0001    80.0000 </r>
       <r>    17.6224     0.0000    80.0000 </r>
       <r>    17.7018     0.0000    80.0000 </r>
       <r>    17.7811     0.0000    80.0000 </r>
       <r>    17.8604     0.0000    80.0000 </r>
       <r>    17.9397     0.0000    80.0000 </r>
       <r>    18.0190     0.0000    80.0000 </r>
       <r>    18.0983     0.0000    80.0000 </r>
       <r>    18.1776     0.0000    80.0000 </r>
       <r>    18.2569     0.0000    80.0000 </r>
       <r>    18.3362     0.0000    80.0000 </r>
       <r>    18.4155     0.0000    80.0000 </r>
       <r>    18.4948     0.0000    80.0000 </r>
       <r>    18.5741     0.0000    80.0000 </r>
       <r>    18.6534     0.0000    80.0000 </r>
       <r>    18.7327     0.0000    80.0000 </r>
       <r>    18.8120     0.0000    80.0000 </r>
       <r>    18.8913     0.0000    80.0000 </r>
       <r>    18.9706     0.0000    80.0000 </r>
       <r>    19.0499     0.0000    80.0000 </r>
       <r>    19.1292     0.0000    80.0000 </r>
       <r>    19.2085     0.0000    80.0000 </r>
       <r>    19.2878     0.0000    80.0000 </r>
       <r>    19.3671     0.0000    80.0000 </r>
       <r>    19.4464     0.0000    80.0000 </r>
       <r>    19.5257     0.0000    80.0000 </r>
       <r>    19.6051     0.0000    80.0000 </r>
       <r>    19.6844     0.0000    80.0000 </r>
       <r>    19.7637     0.0000    80.0000 </r>
       <r>    19.8430     0.0000    80.0000 </r>
       <r>    19.9223     0.0000    80.0000 </r>
      </set>
     </set>
    </array>
   </total>
  </dos>
 </calculation>
 <structure name="finalpos" >
  <crystal>
   <varray name="basis" >
    <v>       0.00000000       2.03151026      -2.03151026 </v>
    <v>       0.00000000      -2.03151026      -2.03151026 </v>
    <v>     -11.58159349       0.00000000       0.00000000 </v>
   </varray>
   <i name="volume">     95.59525853 </i>
   <varray name="rec_basis" >
    <v>       0.00000000       0.24612231      -0.24612231 </v>
    <v>       0.00000000      -0.24612231      -0.24612231 </v>
    <v>      -0.08634390       0.00000000       0.00000000 </v>
   </varray>
  </crystal>
  <varray name="positions" >
   <v>       0.50000000       0.50000000       0.48956182 </v>
   <v>       0.50000000       0.50000000       0.17710485 </v>
   <v>       0.00000000       0.00000000       0.01877142 </v>
   <v>       0.00000000       0.00000000       0.64789524 </v>
   <v>       0.50000000       0.50000000       0.83333333 </v>
   <v>       0.00000000       0.00000000       0.33333333 </v>
  </varray>
 </structure>
</modeling>
