<?xml version="1.0" encoding="ISO-8859-1"?>
<modeling>
 <generator>
  <i name="program" type="string">vasp </i>
  <i name="version" type="string">5.3.5  </i>
  <i name="subversion" type="string">31Mar14 (build Jun 20 2014 13:15:13) complex                          parallel </i>
  <i name="platform" type="string">LinuxIFC </i>
  <i name="date" type="string">2025 12 16 </i>
  <i name="time" type="string">17:14:46 </i>
 </generator>
 <incar>
  <i type="string" name="PREC">accurate</i>
  <i type="int" name="IALGO">    68</i>
  <i type="logical" name="ADDGRID"> T  </i>
  <i type="int" name="NELM">   100</i>
  <i type="int" name="NELMIN">     4</i>
  <i type="int" name="IBRION">     2</i>
  <i name="EDIFF">      0.00000100</i>
  <i name="EDIFFG">     -0.02000000</i>
  <i type="int" name="NSW">    30</i>
  <i type="int" name="ISIF">     3</i>
  <i name="ENCUT">    600.00000000</i>
  <i type="logical" name="LREAL"> F  </i>
  <i type="int" name="ISMEAR">     0</i>
  <i name="SIGMA">      0.10000000</i>
  <i type="logical" name="LWAVE"> F  </i>
  <i type="logical" name="LCHARG"> F  </i>
  <i type="int" name="NELM">   100</i>
 </incar>
 <kpoints>
  <generation param="Auto">
   <i name="subdivisionlength">     20.00000000 </i>
   <v type="int" name="divisions">       1        6        4 </v>
   <v name="usershift">      0.00000000       0.00000000       0.00000000 </v>
   <v name="genvec1">      1.00000000       0.00000000       0.00000000 </v>
   <v name="genvec2">      0.00000000       0.16666667       0.00000000 </v>
   <v name="genvec3">      0.00000000       0.00000000       0.25000000 </v>
   <v name="shift">      0.00000000       0.00000000       0.00000000 </v>
  </generation>
  <varray name="kpointlist" >
   <v>       0.00000000       0.00000000       0.00000000 </v>
   <v>       0.00000000       0.16666667       0.00000000 </v>
   <v>       0.00000000       0.33333333       0.00000000 </v>
   <v>       0.00000000       0.50000000       0.00000000 </v>
   <v>       0.00000000       0.00000000       0.25000000 </v>
   <v>       0.00000000       0.16666667       0.25000000 </v>
   <v>       0.00000000       0.33333333       0.25000000 </v>
   <v>       0.00000000       0.50000000       0.25000000 </v>
   <v>       0.00000000       0.00000000       0.50000000 </v>
   <v>       0.00000000       0.16666667       0.50000000 </v>
   <v>       0.00000000       0.33333333       0.50000000 </v>
   <v>       0.00000000       0.50000000       0.50000000 </v>
  </varray>
  <varray name="weights" >
   <v>       0.04166667 </v>
   <v>       0.08333333 </v>
   <v>       0.08333333 </v>
   <v>       0.04166667 </v>
   <v>       0.08333333 </v>
   <v>       0.16666667 </v>
   <v>       0.16666667 </v>
   <v>       0.08333333 </v>
   <v>       0.04166667 </v>
   <v>       0.08333333 </v>
   <v>       0.08333333 </v>
   <v>       0.04166667 </v>
  </varray>
 </kpoints>
 <parameters>
  <separator name="general" >
   <i type="string" name="SYSTEM">unknown system</i>
   <i type="logical" name="LCOMPAT"> F  </i>
  </separator>
  <separator name="electronic" >
   <i type="string" name="PREC">accura</i>
   <i name="ENMAX">    600.00000000</i>
   <i name="ENAUG">    644.87300000</i>
   <i name="EDIFF">      0.00000100</i>
   <i type="int" name="IALGO">    68</i>
   <i type="int" name="IWAVPR">    11</i>
   <i type="int" name="NBANDS">    84</i>
   <i name="NELECT">    128.00000000</i>
   <i type="int" name="TURBO">     0</i>
   <i type="int" name="IRESTART">     0</i>
   <i type="int" name="NREBOOT">     0</i>
   <i type="int" name="NMIN">     0</i>
   <i name="EREF">      0.00000000</i>
   <separator name="electronic smearing" >
    <i type="int" name="ISMEAR">     0</i>
    <i name="SIGMA">      0.10000000</i>
    <i name="KSPACING">      0.50000000</i>
    <i type="logical" name="KGAMMA"> T  </i>
   </separator>
   <separator name="electronic projectors" >
    <i type="logical" name="LREAL"> F  </i>
    <v name="ROPT">      0.00000000      0.00000000      0.00000000      0.00000000</v>
    <i type="int" name="LMAXPAW">  -100</i>
    <i type="int" name="LMAXMIX">     2</i>
    <i type="logical" name="NLSPLINE"> F  </i>
   </separator>
   <separator name="electronic startup" >
    <i type="int" name="ISTART">     0</i>
    <i type="int" name="ICHARG">     2</i>
    <i type="int" name="INIWAV">     1</i>
   </separator>
   <separator name="electronic spin" >
    <i type="int" name="ISPIN">     1</i>
    <i type="logical" name="LNONCOLLINEAR"> F  </i>
    <v name="MAGMOM">      1.00000000      1.00000000      1.00000000      1.00000000      1.00000000      1.00000000      1.00000000      1.00000000      1.00000000      1.00000000      1.00000000      1.00000000      1.00000000      1.00000000      1.00000000      1.00000000      1.00000000      1.00000000      1.00000000      1.00000000
      1.00000000      1.00000000      1.00000000      1.00000000      1.00000000      1.00000000      1.00000000      1.00000000      1.00000000      1.00000000      1.00000000      1.00000000</v>
    <i name="NUPDOWN">     -1.00000000</i>
    <i type="logical" name="LSORBIT"> F  </i>
    <v name="SAXIS">      0.00000000      0.00000000      1.00000000</v>
    <i type="logical" name="LSPIRAL"> F  </i>
    <v name="QSPIRAL">      0.00000000      0.00000000      0.00000000</v>
    <i type="logical" name="LZEROZ"> F  </i>
   </separator>
   <separator name="electronic exchange-correlation" >
    <i type="logical" name="LASPH"> F  </i>
    <i type="logical" name="LMETAGGA"> F  </i>
   </separator>
   <separator name="electronic convergence" >
    <i type="int" name="NELM">   100</i>
    <i type="int" name="NELMDL">     0</i>
    <i type="int" name="NELMIN">     4</i>
    <i name="ENINI">    600.00000000</i>
    <separator name="electronic convergence detail" >
     <i type="logical" name="LDIAG"> T  </i>
     <i type="logical" name="LSUBROT"> F  </i>
     <i name="WEIMIN">      0.00100000</i>
     <i name="EBREAK">      0.00000000</i>
     <i name="DEPER">      0.30000000</i>
     <i type="int" name="NRMM">     4</i>
     <i name="TIME">      0.40000000</i>
    </separator>
   </separator>
   <separator name="electronic mixer" >
    <i name="AMIX">      0.40000000</i>
    <i name="BMIX">      1.00000000</i>
    <i name="AMIN">      0.10000000</i>
    <i name="AMIX_MAG">      1.60000000</i>
    <i name="BMIX_MAG">      1.00000000</i>
    <separator name="electronic mixer details" >
     <i type="int" name="IMIX">     4</i>
     <i type="int" name="MAXMIX">   -45</i>
     <i name="WC">    100.00000000</i>
     <i type="int" name="INIMIX">     1</i>
     <i type="int" name="MIXPRE">     1</i>
     <i type="int" name="MREMOVE">     5</i>
    </separator>
   </separator>
   <separator name="electronic dipolcorrection" >
    <i type="logical" name="LDIPOL"> F  </i>
    <i type="logical" name="LMONO"> F  </i>
    <i type="int" name="IDIPOL">     0</i>
    <i name="EPSILON">      1.00000000</i>
    <v name="DIPOL">   -100.00000000   -100.00000000   -100.00000000</v>
    <i name="EFIELD">      0.00000000</i>
   </separator>
  </separator>
  <separator name="grids" >
   <i type="int" name="NGX">   168</i>
   <i type="int" name="NGY">    28</i>
   <i type="int" name="NGZ">    48</i>
   <i type="int" name="NGXF">   336</i>
   <i type="int" name="NGYF">    56</i>
   <i type="int" name="NGZF">    96</i>
   <i type="logical" name="ADDGRID"> T  </i>
  </separator>
  <separator name="ionic" >
   <i type="int" name="NSW">    30</i>
   <i type="int" name="IBRION">     2</i>
   <i type="int" name="ISIF">     3</i>
   <i name="PSTRESS">      0.00000000</i>
   <i name="EDIFFG">     -0.02000000</i>
   <i type="int" name="NFREE">     1</i>
   <i name="POTIM">      0.50000000</i>
   <i name="SMASS">     -3.00000000</i>
   <i name="SCALEE">      1.00000000</i>
  </separator>
  <separator name="ionic md" >
   <i name="TEBEG">      0.00010000</i>
   <i name="TEEND">      0.00010000</i>
   <i type="int" name="NBLOCK">     1</i>
   <i type="int" name="KBLOCK">    30</i>
   <i type="int" name="NPACO">   256</i>
   <i name="APACO">     16.00000000</i>
  </separator>
  <separator name="symmetry" >
   <i type="int" name="ISYM">     2</i>
   <i name="SYMPREC">      0.00001000</i>
  </separator>
  <separator name="dos" >
   <i type="logical" name="LORBIT"> F  </i>
   <v name="RWIGS">     -1.00000000     -1.00000000     -1.00000000     -1.00000000</v>
   <i type="int" name="NEDOS">   301</i>
   <i name="EMIN">     10.00000000</i>
   <i name="EMAX">    -10.00000000</i>
   <i name="EFERMI">      0.00000000</i>
  </separator>
  <separator name="writing" >
   <i type="int" name="NWRITE">     2</i>
   <i type="logical" name="LWAVE"> F  </i>
   <i type="logical" name="LCHARG"> F  </i>
   <i type="logical" name="LPARD"> F  </i>
   <i type="logical" name="LVTOT"> F  </i>
   <i type="logical" name="LVHAR"> F  </i>
   <i type="logical" name="LELF"> F  </i>
   <i type="logical" name="LOPTICS"> F  </i>
   <v name="STM">      0.00000000      0.00000000      0.00000000      0.00000000      0.00000000      0.00000000      0.00000000</v>
  </separator>
  <separator name="performance" >
   <i type="int" name="NPAR">     4</i>
   <i type="int" name="NSIM">     4</i>
   <i type="int" name="NBLK">    -1</i>
   <i type="logical" name="LPLANE"> T  </i>
   <i type="logical" name="LSCALAPACK"> T  </i>
   <i type="logical" name="LSCAAWARE"> F  </i>
   <i type="logical" name="LSCALU"> F  </i>
   <i type="logical" name="LASYNC"> F  </i>
   <i type="logical" name="LORBITALREAL"> F  </i>
  </separator>
  <separator name="miscellaneous" >
   <i type="int" name="IDIOT">     3</i>
   <i type="logical" name="LMUSIC"> F  </i>
   <v name="POMASS">     28.08500000     26.98100000     12.01100000     14.00100000</v>
   <v name="DARWINR">      0.00000000      0.00000000      0.00000000      0.00000000</v>
   <v name="DARWINV">      1.00000000      1.00000000      1.00000000      1.00000000</v>
   <i type="logical" name="LCORR"> T  </i>
  </separator>
  <i type="logical" name="GGA_COMPAT"> T  </i>
  <i type="logical" name="LBERRY"> F  </i>
  <i type="int" name="ICORELEVEL">     0</i>
  <i type="logical" name="LDAU"> F  </i>
  <i type="int" name="I_CONSTRAINED_M">     0</i>
  <separator name="electronic exchange-correlation" >
   <i type="string" name="GGA">--</i>
   <i type="int" name="VOSKOWN">     0</i>
   <i type="logical" name="LHFCALC"> F  </i>
   <i type="string" name="PRECFOCK"></i>
   <i type="logical" name="LSYMGRAD"> F  </i>
   <i type="logical" name="LHFONE"> F  </i>
   <i type="logical" name="LRHFCALC"> F  </i>
   <i type="logical" name="LTHOMAS"> F  </i>
   <i type="logical" name="LMODELHF"> F  </i>
   <i name="ENCUT4O">     -1.00000000</i>
   <i type="int" name="EXXOEP">     0</i>
   <i type="int" name="FOURORBIT">     0</i>
   <i name="AEXX">      0.00000000</i>
   <i name="HFALPHA">      0.00000000</i>
   <i name="MCALPHA">      0.00000000</i>
   <i name="ALDAX">      1.00000000</i>
   <i name="AGGAX">      1.00000000</i>
   <i name="ALDAC">      1.00000000</i>
   <i name="AGGAC">      1.00000000</i>
   <i type="int" name="NKREDX">     1</i>
   <i type="int" name="NKREDY">     1</i>
   <i type="int" name="NKREDZ">     1</i>
   <i type="logical" name="SHIFTRED"> F  </i>
   <i type="logical" name="ODDONLY"> F  </i>
   <i type="logical" name="EVENONLY"> F  </i>
   <i type="int" name="LMAXFOCK">     0</i>
   <i type="int" name="NMAXFOCKAE">     0</i>
   <i type="logical" name="LFOCKAEDFT"> F  </i>
   <i name="HFSCREEN">      0.00000000</i>
   <i name="HFSCREENC">      0.00000000</i>
   <i type="int" name="NBANDSGWLOW">     0</i>
  </separator>
  <separator name="vdW DFT" >
   <i type="logical" name="LUSE_VDW"> F  </i>
   <i name="Zab_VDW">     -0.84910000</i>
   <i name="PARAM1">      0.12340000</i>
   <i name="PARAM2">      1.00000000</i>
   <i name="PARAM3">      0.00000000</i>
  </separator>
  <separator name="model GW" >
   <i type="int" name="MODEL_GW">     0</i>
   <i name="MODEL_EPS0">      6.40767588</i>
   <i name="MODEL_ALPHA">      1.00000000</i>
  </separator>
  <separator name="linear response parameters" >
   <i type="logical" name="LEPSILON"> F  </i>
   <i type="logical" name="LRPA"> F  </i>
   <i type="logical" name="LNABLA"> F  </i>
   <i type="logical" name="LVEL"> F  </i>
   <i type="int" name="KINTER">     0</i>
   <i name="CSHIFT">      0.10000000</i>
   <i name="OMEGAMAX">     -1.00000000</i>
   <i name="DEG_THRESHOLD">      0.00200000</i>
  </separator>
  <separator name="orbital magnetization" >
   <i type="logical" name="NUCIND"> F  </i>
   <v name="MAGPOS">      0.00000000      0.00000000      0.00000000</v>
   <i type="logical" name="LNICSALL"> T  </i>
   <i type="logical" name="ORBITALMAG"> F  </i>
   <i type="logical" name="LMAGBLOCH"> F  </i>
   <i type="logical" name="LCHIMAG"> F  </i>
   <i type="logical" name="LGAUGE"> T  </i>
   <i type="int" name="MAGATOM">     0</i>
   <v name="MAGDIPOL">      0.00000000      0.00000000      0.00000000</v>
   <v name="AVECCONST">      0.00000000      0.00000000      0.00000000</v>
  </separator>
  <separator name="response functions" >
   <i type="logical" name="LADDER"> F  </i>
   <i type="logical" name="LFXC"> F  </i>
   <i type="logical" name="LHARTREE"> T  </i>
   <i type="int" name="IBSE">     0</i>
   <i type="logical" name="LTCTE"> F  </i>
   <i type="logical" name="LTETE"> F  </i>
   <i type="logical" name="LTRIPLET"> F  </i>
   <i type="logical" name="LFXCEPS"> F  </i>
   <i type="logical" name="LFXHEG"> F  </i>
   <i type="logical" name="L2ORDER"> F  </i>
   <i type="logical" name="LUSEW"> F  </i>
   <i name="ENCUTGW">     -2.00000000</i>
   <i name="ENCUTGWSOFT">     -2.00000000</i>
   <i name="ENCUTLF">     -1.00000000</i>
   <i type="int" name="LMAXMP2">    -1</i>
   <i name="SCISSOR">      0.00000000</i>
   <i type="int" name="NOMEGA">     0</i>
   <i type="int" name="NOMEGAR">     0</i>
   <i type="int" name="NBANDSGW">    -1</i>
   <i type="int" name="NBANDSO">    -1</i>
   <i type="int" name="NBANDSV">    -1</i>
   <i type="int" name="NELM">   100</i>
   <i type="int" name="DIM">     3</i>
   <i type="int" name="ANTIRES">     0</i>
   <i name="OMEGAMAX">    -30.00000000</i>
   <i name="OMEGAMIN">    -30.00000000</i>
   <i name="OMEGATL">   -200.00000000</i>
   <i type="int" name="OMEGAGRID">     0</i>
   <i name="CSHIFT">     -0.10000000</i>
   <i type="logical" name="SELFENERGY"> F  </i>
   <i type="logical" name="LSPECTRAL"> F  </i>
   <i type="logical" name="ODDONLYGW"> F  </i>
   <i type="logical" name="EVENONLYGW"> F  </i>
   <i type="int" name="NKREDLFX">     1</i>
   <i type="int" name="NKREDLFY">     1</i>
   <i type="int" name="NKREDLFZ">     1</i>
   <i type="int" name="MAXMEM">  1800</i>
   <i type="int" name="TELESCOPE">     0</i>
   <i type="int" name="TAUPAR">     1</i>
  </separator>
  <separator name="External order field" >
   <i name="OFIELD_KAPPA">      0.00000000</i>
   <v name="OFIELD_K">      0.00000000      0.00000000      0.00000000</v>
   <i name="OFIELD_Q6_NEAR">      0.00000000</i>
   <i name="OFIELD_Q6_FAR">      0.00000000</i>
   <i name="OFIELD_A">      0.00000000</i>
  </separator>
 </parameters>
 <atominfo>
  <atoms>      32 </atoms>
  <types>       4 </types>
  <array name="atoms" >
   <dimension dim="1">ion</dimension>
   <field type="string">element</field>
   <field type="int">atomtype</field>
   <set>
    <rc><c>Si</c><c>   1</c></rc>
    <rc><c>Si</c><c>   1</c></rc>
    <rc><c>Si</c><c>   1</c></rc>
    <rc><c>Si</c><c>   1</c></rc>
    <rc><c>Si</c><c>   1</c></rc>
    <rc><c>Si</c><c>   1</c></rc>
    <rc><c>Al</c><c>   2</c></rc>
    <rc><c>Al</c><c>   2</c></rc>
    <rc><c>Al</c><c>   2</c></rc>
    <rc><c>Al</c><c>   2</c></rc>
    <rc><c>Al</c><c>   2</c></rc>
    <rc><c>Al</c><c>   2</c></rc>
    <rc><c>Al</c><c>   2</c></rc>
    <rc><c>Al</c><c>   2</c></rc>
    <rc><c>Al</c><c>   2</c></rc>
    <rc><c>Al</c><c>   2</c></rc>
    <rc><c>C </c><c>   3</c></rc>
    <rc><c>C </c><c>   3</c></rc>
    <rc><c>C </c><c>   3</c></rc>
    <rc><c>C </c><c>   3</c></rc>
    <rc><c>C </c><c>   3</c></rc>
    <rc><c>C </c><c>   3</c></rc>
    <rc><c>N </c><c>   4</c></rc>
    <rc><c>N </c><c>   4</c></rc>
    <rc><c>N </c><c>   4</c></rc>
    <rc><c>N </c><c>   4</c></rc>
    <rc><c>N </c><c>   4</c></rc>
    <rc><c>N </c><c>   4</c></rc>
    <rc><c>N </c><c>   4</c></rc>
    <rc><c>N </c><c>   4</c></rc>
    <rc><c>N </c><c>   4</c></rc>
    <rc><c>N </c><c>   4</c></rc>
   </set>
  </array>
  <array name="atomtypes" >
   <dimension dim="1">type</dimension>
   <field type="int">atomspertype</field>
   <field type="string">element</field>
   <field>mass</field>
   <field>valence</field>
   <field type="string">pseudopotential</field>
   <set>
    <rc><c>   6</c><c>Si</c><c>     28.08500000</c><c>      4.00000000</c><c>  PAW_PBE Si 05Jan2001                  </c></rc>
    <rc><c>  10</c><c>Al</c><c>     26.98100000</c><c>      3.00000000</c><c>  PAW_PBE Al 04Jan2001                  </c></rc>
    <rc><c>   6</c><c>C </c><c>     12.01100000</c><c>      4.00000000</c><c>  PAW_PBE C 08Apr2002                   </c></rc>
    <rc><c>  10</c><c>N </c><c>     14.00100000</c><c>      5.00000000</c><c>  PAW_PBE N_s 07Sep2000                 </c></rc>
   </set>
  </array>
 </atominfo>
 <structure name="initialpos" >
  <crystal>
   <varray name="basis" >
    <v>      20.53673667       0.00000000      -0.16393201 </v>
    <v>       0.00000000       3.13407321       0.00000000 </v>
    <v>      -1.44223197       0.00000000       5.32107440 </v>
   </varray>
   <i name="volume">    341.74271369 </i>
   <varray name="rec_basis" >
    <v>       0.04879881       0.00000000       0.01322650 </v>
    <v>       0.00000000       0.31907359       0.00000000 </v>
    <v>       0.00150340       0.00000000       0.18833945 </v>
   </varray>
  </crystal>
  <varray name="positions" >
   <v>       0.74828994       0.50000000       0.59935076 </v>
   <v>       0.62635118       0.50000000       0.79626470 </v>
   <v>       0.87481890       0.00000000       0.53893227 </v>
   <v>       0.24828994       0.00000000       0.59935076 </v>
   <v>       0.12635118       0.00000000       0.79626470 </v>
   <v>       0.37481890       0.50000000       0.53893227 </v>
   <v>       0.99809808       0.00000000       0.33292125 </v>
   <v>       0.75736591       0.00000000       0.07765315 </v>
   <v>       0.00639566       0.50000000       0.83682057 </v>
   <v>       0.88205134       0.50000000       0.05007887 </v>
   <v>       0.62136765       0.00000000       0.28225806 </v>
   <v>       0.49809808       0.50000000       0.33292125 </v>
   <v>       0.25736591       0.50000000       0.07765315 </v>
   <v>       0.50639566       0.00000000       0.83682057 </v>
   <v>       0.38205134       0.00000000       0.05007887 </v>
   <v>       0.12136765       0.50000000       0.28225806 </v>
   <v>       0.89480976       0.00000000       0.25132918 </v>
   <v>       0.65705253       0.00000000       0.97454472 </v>
   <v>       0.52515001       0.00000000       0.19202659 </v>
   <v>       0.39480976       0.50000000       0.25132918 </v>
   <v>       0.15705253       0.50000000       0.97454472 </v>
   <v>       0.02515001       0.50000000       0.19202659 </v>
   <v>       0.90126949       0.50000000       0.71889824 </v>
   <v>       0.65991984       0.50000000       0.50524422 </v>
   <v>       0.78173116       0.50000000       0.92206072 </v>
   <v>       0.53565336       0.50000000       0.69520386 </v>
   <v>       0.77967519       0.00000000       0.47641282 </v>
   <v>       0.40126949       0.00000000       0.71889824 </v>
   <v>       0.15991984       0.00000000       0.50524422 </v>
   <v>       0.28173116       0.00000000       0.92206072 </v>
   <v>       0.03565336       0.00000000       0.69520386 </v>
   <v>       0.27967519       0.50000000       0.47641282 </v>
  </varray>
 </structure>
 <calculation>
  <scstep>
   <time name="dav">    2.24    2.24</time>
   <time name="total">    2.43    2.45</time>
   <energy>
    <i name="alphaZ">    115.75760681 </i>
    <i name="ewald">  -4514.99725750 </i>
    <i name="hartreedc">   -844.14807695 </i>
    <i name="XCdc">    -31.95874063 </i>
    <i name="pawpsdc">   3891.26063630 </i>
    <i name="pawaedc">  -3481.42518448 </i>
    <i name="eentropy">     -0.02847703 </i>
    <i name="bandstr">    944.62820092 </i>
    <i name="atom">   4682.15707303 </i>
    <i name="e_fr_energy">    761.24578048 </i>
    <i name="e_wo_entrp">    761.27425751 </i>
    <i name="e_0_energy">    761.26001899 </i>
   </energy>
  </scstep>
  <scstep>
   <time name="dav">    2.71    2.71</time>
   <time name="total">    2.71    2.72</time>
   <energy>
    <i name="e_fr_energy">   -182.52686421 </i>
    <i name="e_wo_entrp">   -182.52686421 </i>
    <i name="e_0_energy">   -182.52686421 </i>
   </energy>
  </scstep>
  <scstep>
   <time name="dav">    2.59    2.60</time>
   <time name="total">    2.60    2.61</time>
   <energy>
    <i name="e_fr_energy">   -267.08311603 </i>
    <i name="e_wo_entrp">   -267.08311603 </i>
    <i name="e_0_energy">   -267.08311603 </i>
   </energy>
  </scstep>
  <scstep>
   <time name="dav">    2.67    2.67</time>
   <time name="total">    2.67    2.69</time>
   <energy>
    <i name="e_fr_energy">   -269.56926355 </i>
    <i name="e_wo_entrp">   -269.56926355 </i>
    <i name="e_0_energy">   -269.56926355 </i>
   </energy>
  </scstep>
  <scstep>
   <time name="dav">    2.52    2.52</time>
   <time name="total">    2.82    2.83</time>
   <energy>
    <i name="e_fr_energy">   -269.65224355 </i>
    <i name="e_wo_entrp">   -269.65224355 </i>
    <i name="e_0_energy">   -269.65224355 </i>
   </energy>
  </scstep>
  <scstep>
   <time name="diag">    0.57    0.57</time>
   <time name="diis">    1.57    1.57</time>
   <time name="orth">    0.06    0.06</time>
   <time name="total">    2.68    2.70</time>
   <energy>
    <i name="e_fr_energy">   -231.35269513 </i>
    <i name="e_wo_entrp">   -231.35269513 </i>
    <i name="e_0_energy">   -231.35269513 </i>
   </energy>
  </scstep>
  <scstep>
   <time name="diag">    0.33    0.33</time>
   <time name="diis">    1.61    1.61</time>
   <time name="orth">    0.06    0.06</time>
   <time name="total">    2.49    2.51</time>
   <energy>
    <i name="e_fr_energy">   -231.18626735 </i>
    <i name="e_wo_entrp">   -231.18626735 </i>
    <i name="e_0_energy">   -231.18626735 </i>
   </energy>
  </scstep>
  <scstep>
   <time name="diag">    0.33    0.33</time>
   <time name="diis">    1.64    1.64</time>
   <time name="orth">    0.06    0.06</time>
   <time name="total">    2.52    2.53</time>
   <energy>
    <i name="e_fr_energy">   -233.51235565 </i>
    <i name="e_wo_entrp">   -233.51235565 </i>
    <i name="e_0_energy">   -233.51235565 </i>
   </energy>
  </scstep>
  <scstep>
   <time name="diag">    0.32    0.32</time>
   <time name="diis">    1.64    1.64</time>
   <time name="orth">    0.06    0.06</time>
   <time name="total">    2.51    2.53</time>
   <energy>
    <i name="e_fr_energy">   -230.80667030 </i>
    <i name="e_wo_entrp">   -230.80667021 </i>
    <i name="e_0_energy">   -230.80667026 </i>
   </energy>
  </scstep>
  <scstep>
   <time name="diag">    0.32    0.32</time>
   <time name="diis">    1.57    1.57</time>
   <time name="orth">    0.07    0.07</time>
   <time name="total">    2.44    2.72</time>
   <energy>
    <i name="e_fr_energy">   -230.64680232 </i>
    <i name="e_wo_entrp">   -230.64678965 </i>
    <i name="e_0_energy">   -230.64679598 </i>
   </energy>
  </scstep>
  <scstep>
   <time name="diag">    0.33    0.33</time>
   <time name="diis">    1.60    1.60</time>
   <time name="orth">    0.06    0.06</time>
   <time name="total">    2.48    2.49</time>
   <energy>
    <i name="e_fr_energy">   -230.63959057 </i>
    <i name="e_wo_entrp">   -230.63956674 </i>
    <i name="e_0_energy">   -230.63957865 </i>
   </energy>
  </scstep>
  <scstep>
   <time name="diag">    0.32    0.32</time>
   <time name="diis">    1.65    1.65</time>
   <time name="orth">    0.06    0.06</time>
   <time name="total">    2.53    2.54</time>
   <energy>
    <i name="e_fr_energy">   -230.63954669 </i>
    <i name="e_wo_entrp">   -230.63952010 </i>
    <i name="e_0_energy">   -230.63953340 </i>
   </energy>
  </scstep>
  <scstep>
   <time name="diag">    0.33    0.33</time>
   <time name="diis">    1.65    1.65</time>
   <time name="orth">    0.06    0.06</time>
   <time name="total">    2.53    2.55</time>
   <energy>
    <i name="e_fr_energy">   -230.63938571 </i>
    <i name="e_wo_entrp">   -230.63936811 </i>
    <i name="e_0_energy">   -230.63937691 </i>
   </energy>
  </scstep>
  <scstep>
   <time name="diag">    0.33    0.33</time>
   <time name="diis">    1.57    1.57</time>
   <time name="orth">    0.34    0.34</time>
   <time name="total">    2.72    2.74</time>
   <energy>
    <i name="e_fr_energy">   -230.63946754 </i>
    <i name="e_wo_entrp">   -230.63944749 </i>
    <i name="e_0_energy">   -230.63945751 </i>
   </energy>
  </scstep>
  <scstep>
   <time name="diag">    0.33    0.33</time>
   <time name="diis">    1.61    1.61</time>
   <time name="orth">    0.06    0.06</time>
   <time name="total">    2.49    2.50</time>
   <energy>
    <i name="e_fr_energy">   -230.63943204 </i>
    <i name="e_wo_entrp">   -230.63941712 </i>
    <i name="e_0_energy">   -230.63942458 </i>
   </energy>
  </scstep>
  <scstep>
   <time name="diag">    0.33    0.33</time>
   <time name="diis">    1.65    1.65</time>
   <time name="orth">    0.33    0.33</time>
   <time name="total">    2.79    2.80</time>
   <energy>
    <i name="e_fr_energy">   -230.63939843 </i>
    <i name="e_wo_entrp">   -230.63938216 </i>
    <i name="e_0_energy">   -230.63939029 </i>
   </energy>
  </scstep>
  <scstep>
   <time name="diag">    0.32    0.32</time>
   <time name="diis">    1.52    1.52</time>
   <time name="orth">    0.06    0.06</time>
   <time name="total">    2.40    2.41</time>
   <energy>
    <i name="e_fr_energy">   -230.63939557 </i>
    <i name="e_wo_entrp">   -230.63937878 </i>
    <i name="e_0_energy">   -230.63938718 </i>
   </energy>
  </scstep>
  <scstep>
   <time name="diag">    0.32    0.32</time>
   <time name="diis">    1.05    1.05</time>
   <time name="orth">    0.06    0.06</time>
   <time name="total">    1.63    1.65</time>
   <energy>
    <i name="alphaZ">    115.75760681 </i>
    <i name="ewald">  -4514.99725750 </i>
    <i name="hartreedc">  -1065.87952111 </i>
    <i name="XCdc">    -12.10642880 </i>
    <i name="pawpsdc">  21571.90884799 </i>
    <i name="pawaedc"> -21171.84484925 </i>
    <i name="eentropy">     -0.00001652 </i>
    <i name="bandstr">    164.36514959 </i>
    <i name="atom">   4682.15707303 </i>
    <i name="e_fr_energy">   -230.63939575 </i>
    <i name="e_wo_entrp">   -230.63937923 </i>
    <i name="e_0_energy">   -230.63938749 </i>
   </energy>
  </scstep>
  <structure>
   <crystal>
    <varray name="basis" >
     <v>      20.53673667       0.00000000      -0.16393201 </v>
     <v>       0.00000000       3.13407321       0.00000000 </v>
     <v>      -1.44223197       0.00000000       5.32107440 </v>
    </varray>
    <i name="volume">    341.74271369 </i>
    <varray name="rec_basis" >
     <v>       0.04879881       0.00000000       0.01322650 </v>
     <v>       0.00000000       0.31907359       0.00000000 </v>
     <v>       0.00150340       0.00000000       0.18833945 </v>
    </varray>
   </crystal>
   <varray name="positions" >
    <v>       0.74828994       0.50000000       0.59935076 </v>
    <v>       0.62635118       0.50000000       0.79626470 </v>
    <v>       0.87481890       0.00000000       0.53893227 </v>
    <v>       0.24828994       0.00000000       0.59935076 </v>
    <v>       0.12635118       0.00000000       0.79626470 </v>
    <v>       0.37481890       0.50000000       0.53893227 </v>
    <v>       0.99809808       0.00000000       0.33292125 </v>
    <v>       0.75736591       0.00000000       0.07765315 </v>
    <v>       0.00639566       0.50000000       0.83682057 </v>
    <v>       0.88205134       0.50000000       0.05007887 </v>
    <v>       0.62136765       0.00000000       0.28225806 </v>
    <v>       0.49809808       0.50000000       0.33292125 </v>
    <v>       0.25736591       0.50000000       0.07765315 </v>
    <v>       0.50639566       0.00000000       0.83682057 </v>
    <v>       0.38205134       0.00000000       0.05007887 </v>
    <v>       0.12136765       0.50000000       0.28225806 </v>
    <v>       0.89480976       0.00000000       0.25132918 </v>
    <v>       0.65705253       0.00000000       0.97454472 </v>
    <v>       0.52515001       0.00000000       0.19202659 </v>
    <v>       0.39480976       0.50000000       0.25132918 </v>
    <v>       0.15705253       0.50000000       0.97454472 </v>
    <v>       0.02515001       0.50000000       0.19202659 </v>
    <v>       0.90126949       0.50000000       0.71889824 </v>
    <v>       0.65991984       0.50000000       0.50524422 </v>
    <v>       0.78173116       0.50000000       0.92206072 </v>
    <v>       0.53565336       0.50000000       0.69520386 </v>
    <v>       0.77967519       0.00000000       0.47641282 </v>
    <v>       0.40126949       0.00000000       0.71889824 </v>
    <v>       0.15991984       0.00000000       0.50524422 </v>
    <v>       0.28173116       0.00000000       0.92206072 </v>
    <v>       0.03565336       0.00000000       0.69520386 </v>
    <v>       0.27967519       0.50000000       0.47641282 </v>
   </varray>
  </structure>
  <varray name="forces" >
   <v>      -0.00016596       0.00000000      -0.00751821 </v>
   <v>       0.00248685       0.00000000       0.00041926 </v>
   <v>       0.00454856       0.00000000       0.01314316 </v>
   <v>      -0.00016596       0.00000000      -0.00751821 </v>
   <v>       0.00248685       0.00000000       0.00041926 </v>
   <v>       0.00454856       0.00000000       0.01314316 </v>
   <v>       0.00182569       0.00000000       0.00017166 </v>
   <v>       0.00547846       0.00000000       0.00380733 </v>
   <v>      -0.00036800       0.00000000       0.01326192 </v>
   <v>       0.00597494       0.00000000      -0.00776071 </v>
   <v>      -0.01198608       0.00000000       0.00490648 </v>
   <v>       0.00182569       0.00000000       0.00017166 </v>
   <v>       0.00547846       0.00000000       0.00380733 </v>
   <v>      -0.00036800       0.00000000       0.01326192 </v>
   <v>       0.00597494       0.00000000      -0.00776071 </v>
   <v>      -0.01198608       0.00000000       0.00490648 </v>
   <v>       0.00140450       0.00000000      -0.00936029 </v>
   <v>       0.00221540       0.00000000       0.00779711 </v>
   <v>      -0.00644859       0.00000000      -0.00991457 </v>
   <v>       0.00140450       0.00000000      -0.00936029 </v>
   <v>       0.00221540       0.00000000       0.00779711 </v>
   <v>      -0.00644859       0.00000000      -0.00991457 </v>
   <v>      -0.00228481       0.00000000      -0.01051496 </v>
   <v>       0.00089438       0.00000000       0.00235233 </v>
   <v>      -0.00091740       0.00000000       0.00626527 </v>
   <v>       0.00477221       0.00000000      -0.00576346 </v>
   <v>      -0.00743015       0.00000000      -0.00129232 </v>
   <v>      -0.00228481       0.00000000      -0.01051496 </v>
   <v>       0.00089438       0.00000000       0.00235233 </v>
   <v>      -0.00091740       0.00000000       0.00626527 </v>
   <v>       0.00477221       0.00000000      -0.00576346 </v>
   <v>      -0.00743015       0.00000000      -0.00129232 </v>
  </varray>
  <varray name="stress" >
   <v>       0.08744155       0.00000000      -0.06657252 </v>
   <v>       0.00000000       0.07089239       0.00000000 </v>
   <v>      -0.06657254       0.00000000      -0.13203503 </v>
  </varray>
  <energy>
   <i name="e_fr_energy">   -230.63939575 </i>
   <i name="e_wo_entrp">   -230.63938749 </i>
   <i name="e_0_energy">     -0.00001652 </i>
  </energy>
  <time name="totalsc">   51.97   52.55</time>
  <eigenvalues>
   <array>
    <dimension dim="1">band</dimension>
    <dimension dim="2">kpoint</dimension>
    <dimension dim="3">spin</dimension>
    <field>eigene</field>
    <field>occ</field>
    <set>
     <set comment="spin 1">
      <set comment="kpoint 1">
       <r>  -10.2346    1.0000 </r>
       <r>  -10.2267    1.0000 </r>
       <r>   -8.7713    1.0000 </r>
       <r>   -8.6366    1.0000 </r>
       <r>   -8.1878    1.0000 </r>
       <r>   -7.9287    1.0000 </r>
       <r>   -7.7906    1.0000 </r>
       <r>   -7.7822    1.0000 </r>
       <r>   -7.3206    1.0000 </r>
       <r>   -7.1868    1.0000 </r>
       <r>   -3.9306    1.0000 </r>
       <r>   -3.8997    1.0000 </r>
       <r>   -3.6447    1.0000 </r>
       <r>   -3.5961    1.0000 </r>
       <r>   -2.2904    1.0000 </r>
       <r>   -2.1827    1.0000 </r>
       <r>   -0.7963    1.0000 </r>
       <r>   -0.5175    1.0000 </r>
       <r>   -0.3300    1.0000 </r>
       <r>   -0.2384    1.0000 </r>
       <r>    0.3047    1.0000 </r>
       <r>    0.3718    1.0000 </r>
       <r>    0.8989    1.0000 </r>
       <r>    0.9139    1.0000 </r>
       <r>    1.3901    1.0000 </r>
       <r>    1.9669    1.0000 </r>
       <r>    2.3292    1.0000 </r>
       <r>    2.3316    1.0000 </r>
       <r>    2.3560    1.0000 </r>
       <r>    2.3609    1.0000 </r>
       <r>    2.5789    1.0000 </r>
       <r>    2.9763    1.0000 </r>
       <r>    3.4612    1.0000 </r>
       <r>    3.4751    1.0000 </r>
       <r>    3.4806    1.0000 </r>
       <r>    3.6144    1.0000 </r>
       <r>    4.2724    1.0000 </r>
       <r>    4.3068    1.0000 </r>
       <r>    4.5332    1.0000 </r>
       <r>    4.5736    1.0000 </r>
       <r>    4.5989    1.0000 </r>
       <r>    4.6230    1.0000 </r>
       <r>    4.8563    1.0000 </r>
       <r>    4.8664    1.0000 </r>
       <r>    5.0624    1.0000 </r>
       <r>    5.4679    1.0000 </r>
       <r>    5.4760    1.0000 </r>
       <r>    5.4945    1.0000 </r>
       <r>    5.7140    1.0000 </r>
       <r>    5.9769    1.0000 </r>
       <r>    6.1465    1.0000 </r>
       <r>    6.3015    1.0000 </r>
       <r>    6.4754    1.0000 </r>
       <r>    6.5337    1.0000 </r>
       <r>    6.7442    1.0000 </r>
       <r>    6.7502    1.0000 </r>
       <r>    7.0381    1.0000 </r>
       <r>    7.3952    1.0000 </r>
       <r>    7.7257    1.0000 </r>
       <r>    7.7372    1.0000 </r>
       <r>    7.7376    1.0000 </r>
       <r>    7.7862    1.0000 </r>
       <r>    8.9346    0.9999 </r>
       <r>    8.9457    0.9998 </r>
       <r>    9.4469    0.0002 </r>
       <r>    9.4527    0.0002 </r>
       <r>    9.8722    0.0000 </r>
       <r>   10.1748    0.0000 </r>
       <r>   11.2794    0.0000 </r>
       <r>   11.2900    0.0000 </r>
       <r>   11.3935    0.0000 </r>
       <r>   11.6781    0.0000 </r>
       <r>   11.8931    0.0000 </r>
       <r>   12.1362    0.0000 </r>
       <r>   12.6605    0.0000 </r>
       <r>   12.7529    0.0000 </r>
       <r>   12.9409    0.0000 </r>
       <r>   13.4160    0.0000 </r>
       <r>   13.5641    0.0000 </r>
       <r>   13.9219    0.0000 </r>
       <r>   13.9818    0.0000 </r>
       <r>   14.2575    0.0000 </r>
       <r>   14.5550    0.0000 </r>
       <r>   14.8681    0.0000 </r>
      </set>
      <set comment="kpoint 2">
       <r>   -9.9727    1.0000 </r>
       <r>   -9.9653    1.0000 </r>
       <r>   -8.5574    1.0000 </r>
       <r>   -8.4344    1.0000 </r>
       <r>   -8.0152    1.0000 </r>
       <r>   -7.7995    1.0000 </r>
       <r>   -7.6859    1.0000 </r>
       <r>   -7.6841    1.0000 </r>
       <r>   -7.1629    1.0000 </r>
       <r>   -7.0595    1.0000 </r>
       <r>   -3.7086    1.0000 </r>
       <r>   -3.6685    1.0000 </r>
       <r>   -3.4660    1.0000 </r>
       <r>   -3.4189    1.0000 </r>
       <r>   -2.0570    1.0000 </r>
       <r>   -1.9779    1.0000 </r>
       <r>   -0.6127    1.0000 </r>
       <r>   -0.3957    1.0000 </r>
       <r>   -0.0647    1.0000 </r>
       <r>   -0.0530    1.0000 </r>
       <r>    0.4623    1.0000 </r>
       <r>    0.5664    1.0000 </r>
       <r>    0.8732    1.0000 </r>
       <r>    0.9691    1.0000 </r>
       <r>    1.2974    1.0000 </r>
       <r>    1.4154    1.0000 </r>
       <r>    1.5693    1.0000 </r>
       <r>    1.8721    1.0000 </r>
       <r>    2.2916    1.0000 </r>
       <r>    2.3569    1.0000 </r>
       <r>    2.5137    1.0000 </r>
       <r>    2.7928    1.0000 </r>
       <r>    2.8517    1.0000 </r>
       <r>    3.0086    1.0000 </r>
       <r>    3.2593    1.0000 </r>
       <r>    3.5388    1.0000 </r>
       <r>    3.6133    1.0000 </r>
       <r>    3.6307    1.0000 </r>
       <r>    3.7795    1.0000 </r>
       <r>    3.8049    1.0000 </r>
       <r>    4.2706    1.0000 </r>
       <r>    4.2765    1.0000 </r>
       <r>    4.4049    1.0000 </r>
       <r>    4.5216    1.0000 </r>
       <r>    4.6092    1.0000 </r>
       <r>    4.9902    1.0000 </r>
       <r>    5.1642    1.0000 </r>
       <r>    5.2062    1.0000 </r>
       <r>    5.5163    1.0000 </r>
       <r>    5.5598    1.0000 </r>
       <r>    5.9337    1.0000 </r>
       <r>    6.0146    1.0000 </r>
       <r>    6.0969    1.0000 </r>
       <r>    6.1312    1.0000 </r>
       <r>    6.4110    1.0000 </r>
       <r>    6.4275    1.0000 </r>
       <r>    6.5129    1.0000 </r>
       <r>    6.7133    1.0000 </r>
       <r>    7.3311    1.0000 </r>
       <r>    7.3351    1.0000 </r>
       <r>    7.6637    1.0000 </r>
       <r>    7.7216    1.0000 </r>
       <r>    7.7649    1.0000 </r>
       <r>    7.7948    1.0000 </r>
       <r>   10.6414    0.0000 </r>
       <r>   10.6617    0.0000 </r>
       <r>   11.1602    0.0000 </r>
       <r>   11.3515    0.0000 </r>
       <r>   11.7053    0.0000 </r>
       <r>   11.9182    0.0000 </r>
       <r>   12.1807    0.0000 </r>
       <r>   12.2463    0.0000 </r>
       <r>   12.4263    0.0000 </r>
       <r>   12.8458    0.0000 </r>
       <r>   13.1113    0.0000 </r>
       <r>   13.1676    0.0000 </r>
       <r>   13.4844    0.0000 </r>
       <r>   13.6296    0.0000 </r>
       <r>   13.8106    0.0000 </r>
       <r>   14.0666    0.0000 </r>
       <r>   14.2945    0.0000 </r>
       <r>   14.3883    0.0000 </r>
       <r>   14.4459    0.0000 </r>
       <r>   14.6751    0.0000 </r>
      </set>
      <set comment="kpoint 3">
       <r>   -9.2639    1.0000 </r>
       <r>   -9.2581    1.0000 </r>
       <r>   -8.0956    1.0000 </r>
       <r>   -8.0414    1.0000 </r>
       <r>   -7.7161    1.0000 </r>
       <r>   -7.7080    1.0000 </r>
       <r>   -7.4457    1.0000 </r>
       <r>   -7.3662    1.0000 </r>
       <r>   -6.8104    1.0000 </r>
       <r>   -6.7741    1.0000 </r>
       <r>   -3.2259    1.0000 </r>
       <r>   -3.1851    1.0000 </r>
       <r>   -3.1136    1.0000 </r>
       <r>   -3.0817    1.0000 </r>
       <r>   -1.4946    1.0000 </r>
       <r>   -1.4849    1.0000 </r>
       <r>   -0.8543    1.0000 </r>
       <r>   -0.8369    1.0000 </r>
       <r>   -0.1378    1.0000 </r>
       <r>   -0.0316    1.0000 </r>
       <r>    0.2544    1.0000 </r>
       <r>    0.3768    1.0000 </r>
       <r>    0.7698    1.0000 </r>
       <r>    0.9505    1.0000 </r>
       <r>    1.3565    1.0000 </r>
       <r>    1.3725    1.0000 </r>
       <r>    1.5476    1.0000 </r>
       <r>    1.6818    1.0000 </r>
       <r>    1.8815    1.0000 </r>
       <r>    1.9815    1.0000 </r>
       <r>    2.0829    1.0000 </r>
       <r>    2.1500    1.0000 </r>
       <r>    2.4299    1.0000 </r>
       <r>    2.5015    1.0000 </r>
       <r>    2.6338    1.0000 </r>
       <r>    2.6428    1.0000 </r>
       <r>    2.9691    1.0000 </r>
       <r>    3.1276    1.0000 </r>
       <r>    3.2575    1.0000 </r>
       <r>    3.3814    1.0000 </r>
       <r>    3.5225    1.0000 </r>
       <r>    3.7542    1.0000 </r>
       <r>    3.8189    1.0000 </r>
       <r>    3.9176    1.0000 </r>
       <r>    4.0828    1.0000 </r>
       <r>    4.2779    1.0000 </r>
       <r>    4.4294    1.0000 </r>
       <r>    4.4590    1.0000 </r>
       <r>    4.5289    1.0000 </r>
       <r>    4.5917    1.0000 </r>
       <r>    5.1301    1.0000 </r>
       <r>    5.2123    1.0000 </r>
       <r>    5.3531    1.0000 </r>
       <r>    5.5014    1.0000 </r>
       <r>    5.6695    1.0000 </r>
       <r>    5.9738    1.0000 </r>
       <r>    6.1280    1.0000 </r>
       <r>    6.2782    1.0000 </r>
       <r>    6.5543    1.0000 </r>
       <r>    6.7229    1.0000 </r>
       <r>    6.9305    1.0000 </r>
       <r>    6.9918    1.0000 </r>
       <r>    7.4969    1.0000 </r>
       <r>    7.8095    1.0000 </r>
       <r>   10.9031    0.0000 </r>
       <r>   11.5173    0.0000 </r>
       <r>   11.9189    0.0000 </r>
       <r>   11.9982    0.0000 </r>
       <r>   12.1663    0.0000 </r>
       <r>   12.1775    0.0000 </r>
       <r>   12.7992    0.0000 </r>
       <r>   12.8377    0.0000 </r>
       <r>   12.9047    0.0000 </r>
       <r>   13.1453    0.0000 </r>
       <r>   13.1766    0.0000 </r>
       <r>   13.2554    0.0000 </r>
       <r>   13.4003    0.0000 </r>
       <r>   13.4642    0.0000 </r>
       <r>   13.7387    0.0000 </r>
       <r>   13.8266    0.0000 </r>
       <r>   13.9873    0.0000 </r>
       <r>   14.1117    0.0000 </r>
       <r>   14.3622    0.0000 </r>
       <r>   14.5268    0.0000 </r>
      </set>
      <set comment="kpoint 4">
       <r>   -8.4976    1.0000 </r>
       <r>   -8.4976    1.0000 </r>
       <r>   -8.2828    1.0000 </r>
       <r>   -8.2828    1.0000 </r>
       <r>   -7.5736    1.0000 </r>
       <r>   -7.5736    1.0000 </r>
       <r>   -7.1843    1.0000 </r>
       <r>   -7.1843    1.0000 </r>
       <r>   -6.6150    1.0000 </r>
       <r>   -6.6150    1.0000 </r>
       <r>   -3.1373    1.0000 </r>
       <r>   -3.1373    1.0000 </r>
       <r>   -2.8031    1.0000 </r>
       <r>   -2.8031    1.0000 </r>
       <r>   -1.4415    1.0000 </r>
       <r>   -1.4415    1.0000 </r>
       <r>   -1.0463    1.0000 </r>
       <r>   -1.0463    1.0000 </r>
       <r>   -0.3108    1.0000 </r>
       <r>   -0.3108    1.0000 </r>
       <r>    0.3779    1.0000 </r>
       <r>    0.3779    1.0000 </r>
       <r>    0.7168    1.0000 </r>
       <r>    0.7168    1.0000 </r>
       <r>    1.2308    1.0000 </r>
       <r>    1.2308    1.0000 </r>
       <r>    1.4562    1.0000 </r>
       <r>    1.4562    1.0000 </r>
       <r>    1.9213    1.0000 </r>
       <r>    1.9213    1.0000 </r>
       <r>    2.1599    1.0000 </r>
       <r>    2.1599    1.0000 </r>
       <r>    2.4469    1.0000 </r>
       <r>    2.4469    1.0000 </r>
       <r>    2.6065    1.0000 </r>
       <r>    2.6065    1.0000 </r>
       <r>    2.9110    1.0000 </r>
       <r>    2.9110    1.0000 </r>
       <r>    2.9667    1.0000 </r>
       <r>    2.9667    1.0000 </r>
       <r>    3.2152    1.0000 </r>
       <r>    3.2152    1.0000 </r>
       <r>    3.7401    1.0000 </r>
       <r>    3.7401    1.0000 </r>
       <r>    3.8299    1.0000 </r>
       <r>    3.8299    1.0000 </r>
       <r>    3.8819    1.0000 </r>
       <r>    3.8819    1.0000 </r>
       <r>    4.4699    1.0000 </r>
       <r>    4.4699    1.0000 </r>
       <r>    4.8723    1.0000 </r>
       <r>    4.8723    1.0000 </r>
       <r>    5.0970    1.0000 </r>
       <r>    5.0970    1.0000 </r>
       <r>    5.3213    1.0000 </r>
       <r>    5.3213    1.0000 </r>
       <r>    5.6970    1.0000 </r>
       <r>    5.6970    1.0000 </r>
       <r>    6.6027    1.0000 </r>
       <r>    6.6027    1.0000 </r>
       <r>    6.8425    1.0000 </r>
       <r>    6.8425    1.0000 </r>
       <r>    7.5264    1.0000 </r>
       <r>    7.5264    1.0000 </r>
       <r>   11.5062    0.0000 </r>
       <r>   11.5062    0.0000 </r>
       <r>   11.8154    0.0000 </r>
       <r>   11.8154    0.0000 </r>
       <r>   12.0575    0.0000 </r>
       <r>   12.0575    0.0000 </r>
       <r>   12.1581    0.0000 </r>
       <r>   12.1581    0.0000 </r>
       <r>   12.6362    0.0000 </r>
       <r>   12.6364    0.0000 </r>
       <r>   13.1084    0.0000 </r>
       <r>   13.1090    0.0000 </r>
       <r>   13.5966    0.0000 </r>
       <r>   13.6053    0.0000 </r>
       <r>   13.8486    0.0000 </r>
       <r>   13.8566    0.0000 </r>
       <r>   14.0051    0.0000 </r>
       <r>   14.0461    0.0000 </r>
       <r>   14.6288    0.0000 </r>
       <r>   14.7022    0.0000 </r>
      </set>
      <set comment="kpoint 5">
       <r>  -10.1528    1.0000 </r>
       <r>  -10.1462    1.0000 </r>
       <r>   -8.7353    1.0000 </r>
       <r>   -8.6248    1.0000 </r>
       <r>   -8.1471    1.0000 </r>
       <r>   -8.0115    1.0000 </r>
       <r>   -7.9508    1.0000 </r>
       <r>   -7.8588    1.0000 </r>
       <r>   -7.3355    1.0000 </r>
       <r>   -7.1998    1.0000 </r>
       <r>   -4.1512    1.0000 </r>
       <r>   -4.1027    1.0000 </r>
       <r>   -3.8050    1.0000 </r>
       <r>   -3.7230    1.0000 </r>
       <r>   -2.3131    1.0000 </r>
       <r>   -2.2106    1.0000 </r>
       <r>   -0.7427    1.0000 </r>
       <r>   -0.4659    1.0000 </r>
       <r>    0.0586    1.0000 </r>
       <r>    0.2286    1.0000 </r>
       <r>    0.7417    1.0000 </r>
       <r>    0.9850    1.0000 </r>
       <r>    1.1538    1.0000 </r>
       <r>    1.4167    1.0000 </r>
       <r>    1.6697    1.0000 </r>
       <r>    2.1169    1.0000 </r>
       <r>    2.3657    1.0000 </r>
       <r>    2.3674    1.0000 </r>
       <r>    2.3857    1.0000 </r>
       <r>    2.5171    1.0000 </r>
       <r>    2.7696    1.0000 </r>
       <r>    3.0609    1.0000 </r>
       <r>    3.0653    1.0000 </r>
       <r>    3.3903    1.0000 </r>
       <r>    3.4789    1.0000 </r>
       <r>    3.4892    1.0000 </r>
       <r>    3.7158    1.0000 </r>
       <r>    3.7282    1.0000 </r>
       <r>    4.5500    1.0000 </r>
       <r>    4.5657    1.0000 </r>
       <r>    4.5766    1.0000 </r>
       <r>    4.6106    1.0000 </r>
       <r>    4.7822    1.0000 </r>
       <r>    4.8734    1.0000 </r>
       <r>    4.8943    1.0000 </r>
       <r>    4.9799    1.0000 </r>
       <r>    5.3558    1.0000 </r>
       <r>    5.4413    1.0000 </r>
       <r>    5.4685    1.0000 </r>
       <r>    5.6287    1.0000 </r>
       <r>    5.7717    1.0000 </r>
       <r>    5.9157    1.0000 </r>
       <r>    6.2580    1.0000 </r>
       <r>    6.3172    1.0000 </r>
       <r>    6.6717    1.0000 </r>
       <r>    6.6729    1.0000 </r>
       <r>    6.8971    1.0000 </r>
       <r>    7.0388    1.0000 </r>
       <r>    7.4354    1.0000 </r>
       <r>    7.6377    1.0000 </r>
       <r>    7.6675    1.0000 </r>
       <r>    7.6730    1.0000 </r>
       <r>    8.9003    1.0000 </r>
       <r>    8.9079    1.0000 </r>
       <r>    9.8106    0.0000 </r>
       <r>    9.8306    0.0000 </r>
       <r>   10.3555    0.0000 </r>
       <r>   10.5159    0.0000 </r>
       <r>   11.4208    0.0000 </r>
       <r>   11.5746    0.0000 </r>
       <r>   12.0231    0.0000 </r>
       <r>   12.0761    0.0000 </r>
       <r>   12.3065    0.0000 </r>
       <r>   12.5578    0.0000 </r>
       <r>   12.9575    0.0000 </r>
       <r>   13.1830    0.0000 </r>
       <r>   13.3958    0.0000 </r>
       <r>   13.4833    0.0000 </r>
       <r>   13.5942    0.0000 </r>
       <r>   13.8503    0.0000 </r>
       <r>   14.3202    0.0000 </r>
       <r>   14.3543    0.0000 </r>
       <r>   14.5239    0.0000 </r>
       <r>   14.7745    0.0000 </r>
      </set>
      <set comment="kpoint 6">
       <r>   -9.8953    1.0000 </r>
       <r>   -9.8891    1.0000 </r>
       <r>   -8.5283    1.0000 </r>
       <r>   -8.4279    1.0000 </r>
       <r>   -7.9943    1.0000 </r>
       <r>   -7.8993    1.0000 </r>
       <r>   -7.8108    1.0000 </r>
       <r>   -7.7126    1.0000 </r>
       <r>   -7.1762    1.0000 </r>
       <r>   -7.0702    1.0000 </r>
       <r>   -3.8989    1.0000 </r>
       <r>   -3.8462    1.0000 </r>
       <r>   -3.5960    1.0000 </r>
       <r>   -3.5213    1.0000 </r>
       <r>   -2.0869    1.0000 </r>
       <r>   -1.9961    1.0000 </r>
       <r>   -0.6127    1.0000 </r>
       <r>   -0.4060    1.0000 </r>
       <r>    0.1836    1.0000 </r>
       <r>    0.3449    1.0000 </r>
       <r>    0.7078    1.0000 </r>
       <r>    0.9349    1.0000 </r>
       <r>    1.0829    1.0000 </r>
       <r>    1.1763    1.0000 </r>
       <r>    1.5074    1.0000 </r>
       <r>    1.6039    1.0000 </r>
       <r>    1.7724    1.0000 </r>
       <r>    2.1078    1.0000 </r>
       <r>    2.2999    1.0000 </r>
       <r>    2.5216    1.0000 </r>
       <r>    2.5778    1.0000 </r>
       <r>    2.5841    1.0000 </r>
       <r>    2.8146    1.0000 </r>
       <r>    2.9778    1.0000 </r>
       <r>    3.1588    1.0000 </r>
       <r>    3.4151    1.0000 </r>
       <r>    3.6124    1.0000 </r>
       <r>    3.7073    1.0000 </r>
       <r>    3.7361    1.0000 </r>
       <r>    3.8755    1.0000 </r>
       <r>    4.1850    1.0000 </r>
       <r>    4.2014    1.0000 </r>
       <r>    4.2349    1.0000 </r>
       <r>    4.3298    1.0000 </r>
       <r>    4.6134    1.0000 </r>
       <r>    4.6161    1.0000 </r>
       <r>    4.8721    1.0000 </r>
       <r>    5.1162    1.0000 </r>
       <r>    5.2992    1.0000 </r>
       <r>    5.4538    1.0000 </r>
       <r>    5.6732    1.0000 </r>
       <r>    5.8332    1.0000 </r>
       <r>    6.0715    1.0000 </r>
       <r>    6.1161    1.0000 </r>
       <r>    6.3661    1.0000 </r>
       <r>    6.3899    1.0000 </r>
       <r>    6.5718    1.0000 </r>
       <r>    6.6855    1.0000 </r>
       <r>    6.8831    1.0000 </r>
       <r>    7.0456    1.0000 </r>
       <r>    7.6112    1.0000 </r>
       <r>    7.6378    1.0000 </r>
       <r>    7.8935    1.0000 </r>
       <r>    7.9143    1.0000 </r>
       <r>   10.9366    0.0000 </r>
       <r>   10.9686    0.0000 </r>
       <r>   11.5505    0.0000 </r>
       <r>   11.5859    0.0000 </r>
       <r>   12.0586    0.0000 </r>
       <r>   12.0644    0.0000 </r>
       <r>   12.3115    0.0000 </r>
       <r>   12.3697    0.0000 </r>
       <r>   12.6272    0.0000 </r>
       <r>   12.8025    0.0000 </r>
       <r>   13.1232    0.0000 </r>
       <r>   13.1498    0.0000 </r>
       <r>   13.3886    0.0000 </r>
       <r>   13.4372    0.0000 </r>
       <r>   13.7501    0.0000 </r>
       <r>   13.8296    0.0000 </r>
       <r>   14.0315    0.0000 </r>
       <r>   14.0849    0.0000 </r>
       <r>   14.5480    0.0000 </r>
       <r>   14.7014    0.0000 </r>
      </set>
      <set comment="kpoint 7">
       <r>   -9.2037    1.0000 </r>
       <r>   -9.1988    1.0000 </r>
       <r>   -8.1003    1.0000 </r>
       <r>   -8.0613    1.0000 </r>
       <r>   -7.7361    1.0000 </r>
       <r>   -7.7247    1.0000 </r>
       <r>   -7.4601    1.0000 </r>
       <r>   -7.3769    1.0000 </r>
       <r>   -6.8190    1.0000 </r>
       <r>   -6.7834    1.0000 </r>
       <r>   -3.2935    1.0000 </r>
       <r>   -3.2536    1.0000 </r>
       <r>   -3.1299    1.0000 </r>
       <r>   -3.0981    1.0000 </r>
       <r>   -1.5842    1.0000 </r>
       <r>   -1.5080    1.0000 </r>
       <r>   -1.0716    1.0000 </r>
       <r>   -0.9788    1.0000 </r>
       <r>   -0.2720    1.0000 </r>
       <r>   -0.2188    1.0000 </r>
       <r>    0.2892    1.0000 </r>
       <r>    0.5192    1.0000 </r>
       <r>    0.8609    1.0000 </r>
       <r>    0.8646    1.0000 </r>
       <r>    1.2433    1.0000 </r>
       <r>    1.4057    1.0000 </r>
       <r>    1.6442    1.0000 </r>
       <r>    1.7289    1.0000 </r>
       <r>    1.9127    1.0000 </r>
       <r>    2.0134    1.0000 </r>
       <r>    2.0919    1.0000 </r>
       <r>    2.0958    1.0000 </r>
       <r>    2.5474    1.0000 </r>
       <r>    2.6570    1.0000 </r>
       <r>    2.8647    1.0000 </r>
       <r>    2.9552    1.0000 </r>
       <r>    2.9764    1.0000 </r>
       <r>    3.1063    1.0000 </r>
       <r>    3.3575    1.0000 </r>
       <r>    3.3736    1.0000 </r>
       <r>    3.5744    1.0000 </r>
       <r>    3.7789    1.0000 </r>
       <r>    3.8106    1.0000 </r>
       <r>    3.9457    1.0000 </r>
       <r>    4.1327    1.0000 </r>
       <r>    4.2031    1.0000 </r>
       <r>    4.3607    1.0000 </r>
       <r>    4.3758    1.0000 </r>
       <r>    4.8314    1.0000 </r>
       <r>    4.9609    1.0000 </r>
       <r>    5.3495    1.0000 </r>
       <r>    5.4018    1.0000 </r>
       <r>    5.6516    1.0000 </r>
       <r>    5.6532    1.0000 </r>
       <r>    5.8354    1.0000 </r>
       <r>    5.8601    1.0000 </r>
       <r>    6.2650    1.0000 </r>
       <r>    6.2990    1.0000 </r>
       <r>    6.5156    1.0000 </r>
       <r>    6.5854    1.0000 </r>
       <r>    7.1820    1.0000 </r>
       <r>    7.1916    1.0000 </r>
       <r>    7.4561    1.0000 </r>
       <r>    7.6823    1.0000 </r>
       <r>   10.9302    0.0000 </r>
       <r>   11.0869    0.0000 </r>
       <r>   11.3404    0.0000 </r>
       <r>   11.5494    0.0000 </r>
       <r>   11.7781    0.0000 </r>
       <r>   11.8582    0.0000 </r>
       <r>   12.1950    0.0000 </r>
       <r>   12.2066    0.0000 </r>
       <r>   12.4320    0.0000 </r>
       <r>   12.5247    0.0000 </r>
       <r>   12.8611    0.0000 </r>
       <r>   12.8798    0.0000 </r>
       <r>   13.1594    0.0000 </r>
       <r>   13.2545    0.0000 </r>
       <r>   13.4911    0.0000 </r>
       <r>   13.6716    0.0000 </r>
       <r>   13.9257    0.0000 </r>
       <r>   13.9904    0.0000 </r>
       <r>   14.5046    0.0000 </r>
       <r>   14.5341    0.0000 </r>
      </set>
      <set comment="kpoint 8">
       <r>   -8.4869    1.0000 </r>
       <r>   -8.4869    1.0000 </r>
       <r>   -8.2568    1.0000 </r>
       <r>   -8.2568    1.0000 </r>
       <r>   -7.5576    1.0000 </r>
       <r>   -7.5576    1.0000 </r>
       <r>   -7.1952    1.0000 </r>
       <r>   -7.1952    1.0000 </r>
       <r>   -6.6213    1.0000 </r>
       <r>   -6.6213    1.0000 </r>
       <r>   -3.0634    1.0000 </r>
       <r>   -3.0634    1.0000 </r>
       <r>   -2.7456    1.0000 </r>
       <r>   -2.7456    1.0000 </r>
       <r>   -1.6466    1.0000 </r>
       <r>   -1.6466    1.0000 </r>
       <r>   -1.0642    1.0000 </r>
       <r>   -1.0642    1.0000 </r>
       <r>   -0.6922    1.0000 </r>
       <r>   -0.6922    1.0000 </r>
       <r>    0.1320    1.0000 </r>
       <r>    0.1320    1.0000 </r>
       <r>    0.4602    1.0000 </r>
       <r>    0.4602    1.0000 </r>
       <r>    1.2542    1.0000 </r>
       <r>    1.2542    1.0000 </r>
       <r>    1.4238    1.0000 </r>
       <r>    1.4238    1.0000 </r>
       <r>    1.8589    1.0000 </r>
       <r>    1.8589    1.0000 </r>
       <r>    2.1457    1.0000 </r>
       <r>    2.1457    1.0000 </r>
       <r>    2.3243    1.0000 </r>
       <r>    2.3243    1.0000 </r>
       <r>    2.6213    1.0000 </r>
       <r>    2.6213    1.0000 </r>
       <r>    3.0658    1.0000 </r>
       <r>    3.0658    1.0000 </r>
       <r>    3.2222    1.0000 </r>
       <r>    3.2222    1.0000 </r>
       <r>    3.4499    1.0000 </r>
       <r>    3.4499    1.0000 </r>
       <r>    3.8606    1.0000 </r>
       <r>    3.8606    1.0000 </r>
       <r>    4.0855    1.0000 </r>
       <r>    4.0855    1.0000 </r>
       <r>    4.3852    1.0000 </r>
       <r>    4.3852    1.0000 </r>
       <r>    4.6032    1.0000 </r>
       <r>    4.6032    1.0000 </r>
       <r>    5.0527    1.0000 </r>
       <r>    5.0527    1.0000 </r>
       <r>    5.5284    1.0000 </r>
       <r>    5.5284    1.0000 </r>
       <r>    5.6680    1.0000 </r>
       <r>    5.6680    1.0000 </r>
       <r>    5.9425    1.0000 </r>
       <r>    5.9425    1.0000 </r>
       <r>    6.6427    1.0000 </r>
       <r>    6.6427    1.0000 </r>
       <r>    6.9646    1.0000 </r>
       <r>    6.9646    1.0000 </r>
       <r>    7.3872    1.0000 </r>
       <r>    7.3872    1.0000 </r>
       <r>   10.8906    0.0000 </r>
       <r>   10.8906    0.0000 </r>
       <r>   11.2237    0.0000 </r>
       <r>   11.2237    0.0000 </r>
       <r>   11.5772    0.0000 </r>
       <r>   11.5772    0.0000 </r>
       <r>   11.7259    0.0000 </r>
       <r>   11.7260    0.0000 </r>
       <r>   11.9247    0.0000 </r>
       <r>   11.9247    0.0000 </r>
       <r>   12.3737    0.0000 </r>
       <r>   12.3738    0.0000 </r>
       <r>   12.8764    0.0000 </r>
       <r>   12.8766    0.0000 </r>
       <r>   13.3097    0.0000 </r>
       <r>   13.3106    0.0000 </r>
       <r>   14.0211    0.0000 </r>
       <r>   14.0517    0.0000 </r>
       <r>   14.1265    0.0000 </r>
       <r>   14.5440    0.0000 </r>
      </set>
      <set comment="kpoint 9">
       <r>  -10.0578    1.0000 </r>
       <r>  -10.0525    1.0000 </r>
       <r>   -8.7154    1.0000 </r>
       <r>   -8.6277    1.0000 </r>
       <r>   -8.1939    1.0000 </r>
       <r>   -8.1636    1.0000 </r>
       <r>   -8.0112    1.0000 </r>
       <r>   -7.8346    1.0000 </r>
       <r>   -7.3607    1.0000 </r>
       <r>   -7.2245    1.0000 </r>
       <r>   -4.3960    1.0000 </r>
       <r>   -4.2313    1.0000 </r>
       <r>   -4.0123    1.0000 </r>
       <r>   -3.7871    1.0000 </r>
       <r>   -2.3394    1.0000 </r>
       <r>   -2.3026    1.0000 </r>
       <r>   -0.5243    1.0000 </r>
       <r>   -0.4166    1.0000 </r>
       <r>    0.6326    1.0000 </r>
       <r>    0.8631    1.0000 </r>
       <r>    1.3191    1.0000 </r>
       <r>    1.3858    1.0000 </r>
       <r>    1.6772    1.0000 </r>
       <r>    1.7572    1.0000 </r>
       <r>    2.0162    1.0000 </r>
       <r>    2.0658    1.0000 </r>
       <r>    2.4044    1.0000 </r>
       <r>    2.4055    1.0000 </r>
       <r>    2.4113    1.0000 </r>
       <r>    2.4711    1.0000 </r>
       <r>    2.8137    1.0000 </r>
       <r>    2.8926    1.0000 </r>
       <r>    3.1309    1.0000 </r>
       <r>    3.3971    1.0000 </r>
       <r>    3.4260    1.0000 </r>
       <r>    3.4969    1.0000 </r>
       <r>    3.5038    1.0000 </r>
       <r>    3.8377    1.0000 </r>
       <r>    4.0114    1.0000 </r>
       <r>    4.0978    1.0000 </r>
       <r>    4.3245    1.0000 </r>
       <r>    4.5035    1.0000 </r>
       <r>    4.5076    1.0000 </r>
       <r>    4.5736    1.0000 </r>
       <r>    4.5914    1.0000 </r>
       <r>    4.9355    1.0000 </r>
       <r>    4.9637    1.0000 </r>
       <r>    5.0782    1.0000 </r>
       <r>    5.3951    1.0000 </r>
       <r>    5.4230    1.0000 </r>
       <r>    5.4974    1.0000 </r>
       <r>    5.5125    1.0000 </r>
       <r>    6.1407    1.0000 </r>
       <r>    6.1465    1.0000 </r>
       <r>    6.5912    1.0000 </r>
       <r>    6.5952    1.0000 </r>
       <r>    6.6051    1.0000 </r>
       <r>    6.8285    1.0000 </r>
       <r>    7.5342    1.0000 </r>
       <r>    7.5971    1.0000 </r>
       <r>    7.6126    1.0000 </r>
       <r>    7.6339    1.0000 </r>
       <r>    8.8643    1.0000 </r>
       <r>    8.8682    1.0000 </r>
       <r>   10.2395    0.0000 </r>
       <r>   10.2529    0.0000 </r>
       <r>   10.8242    0.0000 </r>
       <r>   10.8974    0.0000 </r>
       <r>   11.7221    0.0000 </r>
       <r>   11.7977    0.0000 </r>
       <r>   12.2419    0.0000 </r>
       <r>   12.3304    0.0000 </r>
       <r>   12.9157    0.0000 </r>
       <r>   13.0368    0.0000 </r>
       <r>   13.1944    0.0000 </r>
       <r>   13.3186    0.0000 </r>
       <r>   13.5389    0.0000 </r>
       <r>   13.5896    0.0000 </r>
       <r>   13.6618    0.0000 </r>
       <r>   13.9767    0.0000 </r>
       <r>   14.1001    0.0000 </r>
       <r>   14.2470    0.0000 </r>
       <r>   14.5203    0.0000 </r>
       <r>   14.8450    0.0000 </r>
      </set>
      <set comment="kpoint 10">
       <r>   -9.8056    1.0000 </r>
       <r>   -9.8006    1.0000 </r>
       <r>   -8.5167    1.0000 </r>
       <r>   -8.4387    1.0000 </r>
       <r>   -8.0469    1.0000 </r>
       <r>   -8.0261    1.0000 </r>
       <r>   -7.8455    1.0000 </r>
       <r>   -7.6940    1.0000 </r>
       <r>   -7.1959    1.0000 </r>
       <r>   -7.0894    1.0000 </r>
       <r>   -4.1145    1.0000 </r>
       <r>   -3.9607    1.0000 </r>
       <r>   -3.7668    1.0000 </r>
       <r>   -3.5706    1.0000 </r>
       <r>   -2.1058    1.0000 </r>
       <r>   -2.0679    1.0000 </r>
       <r>   -0.5049    1.0000 </r>
       <r>   -0.4161    1.0000 </r>
       <r>    0.5139    1.0000 </r>
       <r>    0.5385    1.0000 </r>
       <r>    1.1235    1.0000 </r>
       <r>    1.1475    1.0000 </r>
       <r>    1.5474    1.0000 </r>
       <r>    1.6031    1.0000 </r>
       <r>    1.6528    1.0000 </r>
       <r>    1.7411    1.0000 </r>
       <r>    1.8669    1.0000 </r>
       <r>    2.0588    1.0000 </r>
       <r>    2.3266    1.0000 </r>
       <r>    2.3593    1.0000 </r>
       <r>    2.7390    1.0000 </r>
       <r>    2.7534    1.0000 </r>
       <r>    2.7950    1.0000 </r>
       <r>    3.1275    1.0000 </r>
       <r>    3.1581    1.0000 </r>
       <r>    3.3476    1.0000 </r>
       <r>    3.4660    1.0000 </r>
       <r>    3.6088    1.0000 </r>
       <r>    3.7791    1.0000 </r>
       <r>    3.9101    1.0000 </r>
       <r>    4.0028    1.0000 </r>
       <r>    4.0911    1.0000 </r>
       <r>    4.1473    1.0000 </r>
       <r>    4.2678    1.0000 </r>
       <r>    4.3496    1.0000 </r>
       <r>    4.3760    1.0000 </r>
       <r>    4.6983    1.0000 </r>
       <r>    5.1063    1.0000 </r>
       <r>    5.1931    1.0000 </r>
       <r>    5.2308    1.0000 </r>
       <r>    5.2857    1.0000 </r>
       <r>    5.6459    1.0000 </r>
       <r>    5.6867    1.0000 </r>
       <r>    6.0500    1.0000 </r>
       <r>    6.3308    1.0000 </r>
       <r>    6.4406    1.0000 </r>
       <r>    6.5467    1.0000 </r>
       <r>    6.5615    1.0000 </r>
       <r>    6.7014    1.0000 </r>
       <r>    6.9233    1.0000 </r>
       <r>    7.6152    1.0000 </r>
       <r>    7.6276    1.0000 </r>
       <r>    7.7905    1.0000 </r>
       <r>    7.8084    1.0000 </r>
       <r>   11.5477    0.0000 </r>
       <r>   11.5548    0.0000 </r>
       <r>   11.7692    0.0000 </r>
       <r>   11.8690    0.0000 </r>
       <r>   12.1658    0.0000 </r>
       <r>   12.2269    0.0000 </r>
       <r>   12.5476    0.0000 </r>
       <r>   12.7914    0.0000 </r>
       <r>   12.8135    0.0000 </r>
       <r>   13.1157    0.0000 </r>
       <r>   13.2926    0.0000 </r>
       <r>   13.3624    0.0000 </r>
       <r>   13.4833    0.0000 </r>
       <r>   13.5346    0.0000 </r>
       <r>   13.6459    0.0000 </r>
       <r>   13.7273    0.0000 </r>
       <r>   13.7987    0.0000 </r>
       <r>   13.9959    0.0000 </r>
       <r>   14.2326    0.0000 </r>
       <r>   14.4191    0.0000 </r>
      </set>
      <set comment="kpoint 11">
       <r>   -9.1353    1.0000 </r>
       <r>   -9.1312    1.0000 </r>
       <r>   -8.1248    1.0000 </r>
       <r>   -8.0984    1.0000 </r>
       <r>   -7.7574    1.0000 </r>
       <r>   -7.7343    1.0000 </r>
       <r>   -7.4634    1.0000 </r>
       <r>   -7.3814    1.0000 </r>
       <r>   -6.8286    1.0000 </r>
       <r>   -6.7940    1.0000 </r>
       <r>   -3.3818    1.0000 </r>
       <r>   -3.2896    1.0000 </r>
       <r>   -3.1735    1.0000 </r>
       <r>   -3.0893    1.0000 </r>
       <r>   -1.6771    1.0000 </r>
       <r>   -1.5370    1.0000 </r>
       <r>   -1.2562    1.0000 </r>
       <r>   -1.0534    1.0000 </r>
       <r>   -0.3411    1.0000 </r>
       <r>   -0.3092    1.0000 </r>
       <r>    0.1665    1.0000 </r>
       <r>    0.4128    1.0000 </r>
       <r>    0.8162    1.0000 </r>
       <r>    0.9622    1.0000 </r>
       <r>    1.4041    1.0000 </r>
       <r>    1.4456    1.0000 </r>
       <r>    1.4719    1.0000 </r>
       <r>    1.6145    1.0000 </r>
       <r>    1.9777    1.0000 </r>
       <r>    2.1303    1.0000 </r>
       <r>    2.2328    1.0000 </r>
       <r>    2.3685    1.0000 </r>
       <r>    2.5302    1.0000 </r>
       <r>    2.5486    1.0000 </r>
       <r>    2.9092    1.0000 </r>
       <r>    2.9293    1.0000 </r>
       <r>    3.0417    1.0000 </r>
       <r>    3.2649    1.0000 </r>
       <r>    3.3994    1.0000 </r>
       <r>    3.5366    1.0000 </r>
       <r>    3.6073    1.0000 </r>
       <r>    3.8500    1.0000 </r>
       <r>    3.8779    1.0000 </r>
       <r>    4.1330    1.0000 </r>
       <r>    4.2698    1.0000 </r>
       <r>    4.5332    1.0000 </r>
       <r>    4.5804    1.0000 </r>
       <r>    4.5914    1.0000 </r>
       <r>    4.8534    1.0000 </r>
       <r>    5.0690    1.0000 </r>
       <r>    5.3320    1.0000 </r>
       <r>    5.4264    1.0000 </r>
       <r>    5.6736    1.0000 </r>
       <r>    5.8289    1.0000 </r>
       <r>    5.8635    1.0000 </r>
       <r>    5.9509    1.0000 </r>
       <r>    6.4137    1.0000 </r>
       <r>    6.5096    1.0000 </r>
       <r>    6.6173    1.0000 </r>
       <r>    6.7379    1.0000 </r>
       <r>    7.0241    1.0000 </r>
       <r>    7.0283    1.0000 </r>
       <r>    7.3795    1.0000 </r>
       <r>    7.5783    1.0000 </r>
       <r>   10.6309    0.0000 </r>
       <r>   10.7107    0.0000 </r>
       <r>   11.4076    0.0000 </r>
       <r>   11.4262    0.0000 </r>
       <r>   11.6178    0.0000 </r>
       <r>   11.6598    0.0000 </r>
       <r>   11.8480    0.0000 </r>
       <r>   11.9857    0.0000 </r>
       <r>   12.1112    0.0000 </r>
       <r>   12.1351    0.0000 </r>
       <r>   12.3156    0.0000 </r>
       <r>   12.5995    0.0000 </r>
       <r>   12.6633    0.0000 </r>
       <r>   12.7837    0.0000 </r>
       <r>   13.1003    0.0000 </r>
       <r>   13.2255    0.0000 </r>
       <r>   13.7701    0.0000 </r>
       <r>   14.0436    0.0000 </r>
       <r>   14.2572    0.0000 </r>
       <r>   14.2882    0.0000 </r>
      </set>
      <set comment="kpoint 12">
       <r>   -8.4761    1.0000 </r>
       <r>   -8.4761    1.0000 </r>
       <r>   -8.2296    1.0000 </r>
       <r>   -8.2296    1.0000 </r>
       <r>   -7.5406    1.0000 </r>
       <r>   -7.5406    1.0000 </r>
       <r>   -7.2083    1.0000 </r>
       <r>   -7.2083    1.0000 </r>
       <r>   -6.6276    1.0000 </r>
       <r>   -6.6276    1.0000 </r>
       <r>   -2.9872    1.0000 </r>
       <r>   -2.9872    1.0000 </r>
       <r>   -2.6703    1.0000 </r>
       <r>   -2.6703    1.0000 </r>
       <r>   -1.8188    1.0000 </r>
       <r>   -1.8188    1.0000 </r>
       <r>   -1.0922    1.0000 </r>
       <r>   -1.0922    1.0000 </r>
       <r>   -1.0023    1.0000 </r>
       <r>   -1.0023    1.0000 </r>
       <r>   -0.0804    1.0000 </r>
       <r>   -0.0804    1.0000 </r>
       <r>    0.2710    1.0000 </r>
       <r>    0.2710    1.0000 </r>
       <r>    1.0426    1.0000 </r>
       <r>    1.0426    1.0000 </r>
       <r>    1.4432    1.0000 </r>
       <r>    1.4432    1.0000 </r>
       <r>    1.6930    1.0000 </r>
       <r>    1.6930    1.0000 </r>
       <r>    2.0097    1.0000 </r>
       <r>    2.0097    1.0000 </r>
       <r>    2.5237    1.0000 </r>
       <r>    2.5237    1.0000 </r>
       <r>    2.6613    1.0000 </r>
       <r>    2.6613    1.0000 </r>
       <r>    3.1331    1.0000 </r>
       <r>    3.1331    1.0000 </r>
       <r>    3.5022    1.0000 </r>
       <r>    3.5022    1.0000 </r>
       <r>    3.7498    1.0000 </r>
       <r>    3.7498    1.0000 </r>
       <r>    3.9842    1.0000 </r>
       <r>    3.9842    1.0000 </r>
       <r>    4.2997    1.0000 </r>
       <r>    4.2997    1.0000 </r>
       <r>    4.7960    1.0000 </r>
       <r>    4.7960    1.0000 </r>
       <r>    5.0451    1.0000 </r>
       <r>    5.0451    1.0000 </r>
       <r>    5.2015    1.0000 </r>
       <r>    5.2015    1.0000 </r>
       <r>    5.7604    1.0000 </r>
       <r>    5.7604    1.0000 </r>
       <r>    6.0731    1.0000 </r>
       <r>    6.0731    1.0000 </r>
       <r>    6.2226    1.0000 </r>
       <r>    6.2226    1.0000 </r>
       <r>    6.5449    1.0000 </r>
       <r>    6.5449    1.0000 </r>
       <r>    7.0792    1.0000 </r>
       <r>    7.0792    1.0000 </r>
       <r>    7.5065    1.0000 </r>
       <r>    7.5065    1.0000 </r>
       <r>   10.0897    0.0000 </r>
       <r>   10.0897    0.0000 </r>
       <r>   10.6522    0.0000 </r>
       <r>   10.6522    0.0000 </r>
       <r>   11.1015    0.0000 </r>
       <r>   11.1016    0.0000 </r>
       <r>   11.2570    0.0000 </r>
       <r>   11.2570    0.0000 </r>
       <r>   11.4382    0.0000 </r>
       <r>   11.4382    0.0000 </r>
       <r>   11.7095    0.0000 </r>
       <r>   11.7095    0.0000 </r>
       <r>   12.2873    0.0000 </r>
       <r>   12.2873    0.0000 </r>
       <r>   12.7096    0.0000 </r>
       <r>   12.7096    0.0000 </r>
       <r>   13.6553    0.0000 </r>
       <r>   13.7214    0.0000 </r>
       <r>   14.2171    0.0000 </r>
       <r>   14.6313    0.0000 </r>
      </set>
     </set>
    </set>
   </array>
  </eigenvalues>
  <separator name="orbital magnetization" >
   <v name="MAGDIPOLOUT">      0.00000000      0.00000000      0.00000000</v>
  </separator>
  <dos>
   <i name="efermi">      9.19731270 </i>
   <total>
    <array>
     <dimension dim="1">gridpoints</dimension>
     <dimension dim="2">spin</dimension>
     <field>energy</field>
     <field>total</field>
     <field>integrated</field>
     <set>
      <set comment="spin 1">
       <r>   -11.4897     0.0000     0.0000 </r>
       <r>   -11.3977     0.0000     0.0000 </r>
       <r>   -11.3056     0.0000     0.0000 </r>
       <r>   -11.2136     0.0000     0.0000 </r>
       <r>   -11.1215     0.0000     0.0000 </r>
       <r>   -11.0295     0.0000     0.0000 </r>
       <r>   -10.9375     0.0000     0.0000 </r>
       <r>   -10.8454     0.0000     0.0000 </r>
       <r>   -10.7534     0.0000     0.0000 </r>
       <r>   -10.6613     0.0000     0.0000 </r>
       <r>   -10.5693     0.0000     0.0000 </r>
       <r>   -10.4772     0.0005     0.0000 </r>
       <r>   -10.3852     0.0275     0.0026 </r>
       <r>   -10.2932     0.3915     0.0386 </r>
       <r>   -10.2011     1.6603     0.1914 </r>
       <r>   -10.1091     2.7452     0.4441 </r>
       <r>   -10.0170     2.9573     0.7163 </r>
       <r>    -9.9250     4.5342     1.1337 </r>
       <r>    -9.8329     5.4513     1.6354 </r>
       <r>    -9.7409     3.1544     1.9257 </r>
       <r>    -9.6488     0.7517     1.9949 </r>
       <r>    -9.5568     0.0542     1.9999 </r>
       <r>    -9.4648     0.0088     2.0007 </r>
       <r>    -9.3727     0.2564     2.0243 </r>
       <r>    -9.2807     2.1654     2.2236 </r>
       <r>    -9.1886     5.5569     2.7351 </r>
       <r>    -9.0966     4.8650     3.1829 </r>
       <r>    -9.0045     1.4900     3.3201 </r>
       <r>    -8.9125     0.1752     3.3362 </r>
       <r>    -8.8205     0.4710     3.3795 </r>
       <r>    -8.7284     1.8341     3.5483 </r>
       <r>    -8.6364     3.3374     3.8555 </r>
       <r>    -8.5443     6.2129     4.4274 </r>
       <r>    -8.4523     9.4260     5.2950 </r>
       <r>    -8.3602     6.7922     5.9202 </r>
       <r>    -8.2682     4.4444     6.3292 </r>
       <r>    -8.1762     6.5511     6.9322 </r>
       <r>    -8.0841    10.4388     7.8930 </r>
       <r>    -7.9921    12.5324     9.0466 </r>
       <r>    -7.9000     9.7502     9.9440 </r>
       <r>    -7.8080    10.2444    10.8869 </r>
       <r>    -7.7159    14.1069    12.1854 </r>
       <r>    -7.6239    11.3699    13.2319 </r>
       <r>    -7.5319     6.7699    13.8550 </r>
       <r>    -7.4398     7.1427    14.5125 </r>
       <r>    -7.3478     7.8148    15.2318 </r>
       <r>    -7.2557     7.2407    15.8982 </r>
       <r>    -7.1637     9.7972    16.8000 </r>
       <r>    -7.0716     8.5236    17.5845 </r>
       <r>    -6.9796     3.8839    17.9420 </r>
       <r>    -6.8875     2.3340    18.1569 </r>
       <r>    -6.7955     6.0610    18.7147 </r>
       <r>    -6.7035     6.3021    19.2948 </r>
       <r>    -6.6114     4.3725    19.6973 </r>
       <r>    -6.5194     2.7436    19.9498 </r>
       <r>    -6.4273     0.5231    19.9979 </r>
       <r>    -6.3353     0.0222    20.0000 </r>
       <r>    -6.2432     0.0002    20.0000 </r>
       <r>    -6.1512     0.0000    20.0000 </r>
       <r>    -6.0592     0.0000    20.0000 </r>
       <r>    -5.9671     0.0000    20.0000 </r>
       <r>    -5.8751     0.0000    20.0000 </r>
       <r>    -5.7830     0.0000    20.0000 </r>
       <r>    -5.6910     0.0000    20.0000 </r>
       <r>    -5.5989     0.0000    20.0000 </r>
       <r>    -5.5069     0.0000    20.0000 </r>
       <r>    -5.4149     0.0000    20.0000 </r>
       <r>    -5.3228     0.0000    20.0000 </r>
       <r>    -5.2308     0.0000    20.0000 </r>
       <r>    -5.1387     0.0000    20.0000 </r>
       <r>    -5.0467     0.0000    20.0000 </r>
       <r>    -4.9546     0.0000    20.0000 </r>
       <r>    -4.8626     0.0000    20.0000 </r>
       <r>    -4.7706     0.0000    20.0000 </r>
       <r>    -4.6785     0.0000    20.0000 </r>
       <r>    -4.5865     0.0032    20.0003 </r>
       <r>    -4.4944     0.0711    20.0068 </r>
       <r>    -4.4024     0.3534    20.0394 </r>
       <r>    -4.3103     0.5252    20.0877 </r>
       <r>    -4.2183     0.9992    20.1797 </r>
       <r>    -4.1262     2.4778    20.4077 </r>
       <r>    -4.0342     3.0084    20.6846 </r>
       <r>    -3.9422     3.6332    21.0191 </r>
       <r>    -3.8501     5.6896    21.5427 </r>
       <r>    -3.7581     5.9880    22.0939 </r>
       <r>    -3.6660     5.5341    22.6033 </r>
       <r>    -3.5740     5.8544    23.1421 </r>
       <r>    -3.4819     5.4463    23.6434 </r>
       <r>    -3.3899     4.2683    24.0363 </r>
       <r>    -3.2979     5.1382    24.5092 </r>
       <r>    -3.2058     7.6631    25.2146 </r>
       <r>    -3.1138    10.0888    26.1432 </r>
       <r>    -3.0217     8.9583    26.9677 </r>
       <r>    -2.9297     3.4706    27.2872 </r>
       <r>    -2.8376     1.3982    27.4159 </r>
       <r>    -2.7456     2.6070    27.6558 </r>
       <r>    -2.6536     2.6225    27.8972 </r>
       <r>    -2.5615     0.9886    27.9882 </r>
       <r>    -2.4695     0.1919    28.0059 </r>
       <r>    -2.3774     0.7820    28.0778 </r>
       <r>    -2.2854     2.4094    28.2996 </r>
       <r>    -2.1933     3.0832    28.5834 </r>
       <r>    -2.1013     4.5212    28.9995 </r>
       <r>    -2.0093     6.1027    29.5613 </r>
       <r>    -1.9172     3.9732    29.9270 </r>
       <r>    -1.8252     1.6309    30.0771 </r>
       <r>    -1.7331     1.6288    30.2270 </r>
       <r>    -1.6411     3.5780    30.5563 </r>
       <r>    -1.5490     5.9787    31.1066 </r>
       <r>    -1.4570     6.2508    31.6820 </r>
       <r>    -1.3649     3.0784    31.9653 </r>
       <r>    -1.2729     1.1186    32.0683 </r>
       <r>    -1.1809     1.5346    32.2095 </r>
       <r>    -1.0888     4.7104    32.6431 </r>
       <r>    -0.9968     7.8497    33.3656 </r>
       <r>    -0.9047     5.0569    33.8311 </r>
       <r>    -0.8127     3.2707    34.1321 </r>
       <r>    -0.7206     3.7310    34.4755 </r>
       <r>    -0.6286     4.6547    34.9040 </r>
       <r>    -0.5366     4.8576    35.3511 </r>
       <r>    -0.4445     5.7392    35.8793 </r>
       <r>    -0.3525     7.5398    36.5733 </r>
       <r>    -0.2604     7.6133    37.2741 </r>
       <r>    -0.1684     5.7674    37.8049 </r>
       <r>    -0.0763     4.6077    38.2290 </r>
       <r>     0.0157     4.3195    38.6266 </r>
       <r>     0.1077     4.0807    39.0022 </r>
       <r>     0.1998     6.3450    39.5862 </r>
       <r>     0.2918     8.1199    40.3336 </r>
       <r>     0.3839     8.6592    41.1306 </r>
       <r>     0.4759     8.3983    41.9036 </r>
       <r>     0.5680     7.2108    42.5673 </r>
       <r>     0.6600     4.7645    43.0059 </r>
       <r>     0.7520     5.5657    43.5182 </r>
       <r>     0.8441     8.0082    44.2552 </r>
       <r>     0.9361    10.2764    45.2011 </r>
       <r>     1.0282     8.6755    45.9996 </r>
       <r>     1.1202     7.1970    46.6621 </r>
       <r>     1.2123     8.4455    47.4394 </r>
       <r>     1.3043     9.0832    48.2755 </r>
       <r>     1.3964    11.4689    49.3311 </r>
       <r>     1.4884    13.7830    50.5997 </r>
       <r>     1.5804    11.9089    51.6959 </r>
       <r>     1.6725    12.2708    52.8253 </r>
       <r>     1.7645    10.9425    53.8325 </r>
       <r>     1.8566     9.1293    54.6728 </r>
       <r>     1.9486    10.1082    55.6032 </r>
       <r>     2.0407    12.0292    56.7104 </r>
       <r>     2.1327    14.5055    58.0455 </r>
       <r>     2.2247    11.0576    59.0633 </r>
       <r>     2.3168    10.9442    60.0706 </r>
       <r>     2.4088    14.6261    61.4169 </r>
       <r>     2.5009    14.4489    62.7468 </r>
       <r>     2.5929    17.0230    64.3137 </r>
       <r>     2.6850    14.1492    65.6160 </r>
       <r>     2.7770     9.9345    66.5304 </r>
       <r>     2.8690    11.0689    67.5492 </r>
       <r>     2.9611    13.7635    68.8161 </r>
       <r>     3.0531    14.8465    70.1826 </r>
       <r>     3.1452    13.7313    71.4465 </r>
       <r>     3.2372    11.3645    72.4925 </r>
       <r>     3.3293    10.1090    73.4230 </r>
       <r>     3.4213    13.9411    74.7061 </r>
       <r>     3.5133    15.9458    76.1738 </r>
       <r>     3.6054    14.2035    77.4812 </r>
       <r>     3.6974    13.4678    78.7208 </r>
       <r>     3.7895    17.1228    80.2968 </r>
       <r>     3.8815    17.9095    81.9453 </r>
       <r>     3.9736    12.4212    83.0886 </r>
       <r>     4.0656     8.9962    83.9166 </r>
       <r>     4.1576    11.9392    85.0155 </r>
       <r>     4.2497    15.4853    86.4409 </r>
       <r>     4.3417    16.8845    87.9950 </r>
       <r>     4.4338    14.9685    89.3727 </r>
       <r>     4.5258    14.0715    90.6679 </r>
       <r>     4.6179    17.9515    92.3202 </r>
       <r>     4.7099    11.9327    93.4185 </r>
       <r>     4.8020     7.1037    94.0724 </r>
       <r>     4.8940    10.3964    95.0293 </r>
       <r>     4.9860    10.6379    96.0085 </r>
       <r>     5.0781    10.8882    97.0107 </r>
       <r>     5.1701    11.3083    98.0515 </r>
       <r>     5.2622    10.3186    99.0013 </r>
       <r>     5.3542    11.6793   100.0763 </r>
       <r>     5.4463    13.6097   101.3289 </r>
       <r>     5.5383    12.9669   102.5225 </r>
       <r>     5.6303    12.7041   103.6918 </r>
       <r>     5.7224    14.6115   105.0367 </r>
       <r>     5.8144    11.6887   106.1125 </r>
       <r>     5.9065    11.3716   107.1592 </r>
       <r>     5.9985    10.4067   108.1171 </r>
       <r>     6.0906    10.2903   109.0642 </r>
       <r>     6.1826     9.9287   109.9781 </r>
       <r>     6.2746     9.4652   110.8493 </r>
       <r>     6.3667    11.4722   111.9053 </r>
       <r>     6.4587    11.7832   112.9898 </r>
       <r>     6.5508    14.3788   114.3133 </r>
       <r>     6.6428    16.5855   115.8399 </r>
       <r>     6.7349    12.9583   117.0326 </r>
       <r>     6.8269     7.7740   117.7482 </r>
       <r>     6.9189     7.5568   118.4437 </r>
       <r>     7.0110     9.4761   119.3159 </r>
       <r>     7.1030     8.3694   120.0863 </r>
       <r>     7.1951     5.6244   120.6039 </r>
       <r>     7.2871     4.3404   121.0035 </r>
       <r>     7.3792     5.7374   121.5315 </r>
       <r>     7.4712     8.0022   122.2681 </r>
       <r>     7.5633     9.5950   123.1512 </r>
       <r>     7.6553    13.7325   124.4152 </r>
       <r>     7.7473    13.4035   125.6489 </r>
       <r>     7.8394     9.4062   126.5147 </r>
       <r>     7.9314     6.0710   127.0735 </r>
       <r>     8.0235     2.4742   127.3012 </r>
       <r>     8.1155     0.3377   127.3323 </r>
       <r>     8.2076     0.0111   127.3333 </r>
       <r>     8.2996     0.0001   127.3333 </r>
       <r>     8.3916     0.0000   127.3333 </r>
       <r>     8.4837     0.0000   127.3333 </r>
       <r>     8.5757     0.0000   127.3333 </r>
       <r>     8.6678     0.0061   127.3339 </r>
       <r>     8.7598     0.1989   127.3522 </r>
       <r>     8.8519     1.5811   127.4977 </r>
       <r>     8.9439     3.3032   127.8018 </r>
       <r>     9.0359     1.8651   127.9734 </r>
       <r>     9.1280     0.2781   127.9990 </r>
       <r>     9.2200     0.0113   128.0001 </r>
       <r>     9.3121     0.0458   128.0043 </r>
       <r>     9.4041     0.4229   128.0432 </r>
       <r>     9.4962     0.8773   128.1240 </r>
       <r>     9.5882     0.4201   128.1627 </r>
       <r>     9.6802     0.1351   128.1751 </r>
       <r>     9.7723     0.8835   128.2564 </r>
       <r>     9.8643     2.0825   128.4481 </r>
       <r>     9.9564     1.3146   128.5691 </r>
       <r>    10.0484     0.6912   128.6327 </r>
       <r>    10.1405     1.2560   128.7483 </r>
       <r>    10.2325     1.5382   128.8899 </r>
       <r>    10.3246     1.5411   129.0317 </r>
       <r>    10.4166     1.2501   129.1468 </r>
       <r>    10.5086     1.2200   129.2591 </r>
       <r>    10.6007     2.5970   129.4981 </r>
       <r>    10.6927     4.3290   129.8966 </r>
       <r>    10.7848     3.2592   130.1966 </r>
       <r>    10.8768     4.7667   130.6353 </r>
       <r>    10.9689     8.2443   131.3942 </r>
       <r>    11.0609     6.0963   131.9553 </r>
       <r>    11.1529     4.6366   132.3820 </r>
       <r>    11.2450     5.0354   132.8455 </r>
       <r>    11.3370     6.1909   133.4153 </r>
       <r>    11.4291     7.5990   134.1148 </r>
       <r>    11.5211    10.3523   135.0676 </r>
       <r>    11.6132    13.3586   136.2972 </r>
       <r>    11.7052    10.8546   137.2963 </r>
       <r>    11.7972    10.0957   138.2255 </r>
       <r>    11.8893    10.2884   139.1725 </r>
       <r>    11.9813     9.8020   140.0747 </r>
       <r>    12.0734    10.9126   141.0792 </r>
       <r>    12.1654    13.4889   142.3207 </r>
       <r>    12.2575    13.8421   143.5948 </r>
       <r>    12.3495    11.8126   144.6821 </r>
       <r>    12.4415     9.3315   145.5410 </r>
       <r>    12.5336     7.0088   146.1861 </r>
       <r>    12.6256     7.4625   146.8730 </r>
       <r>    12.7177     7.5660   147.5694 </r>
       <r>    12.8097    10.2508   148.5129 </r>
       <r>    12.9018    12.8623   149.6968 </r>
       <r>    12.9938     7.9819   150.4314 </r>
       <r>    13.0859     7.3687   151.1097 </r>
       <r>    13.1779    13.5109   152.3533 </r>
       <r>    13.2699    12.7703   153.5287 </r>
       <r>    13.3620    10.5263   154.4976 </r>
       <r>    13.4540    11.6588   155.5707 </r>
       <r>    13.5461    11.2681   156.6078 </r>
       <r>    13.6381     9.6440   157.4955 </r>
       <r>    13.7302    10.1875   158.4332 </r>
       <r>    13.8222    10.9864   159.4444 </r>
       <r>    13.9142    10.1461   160.3783 </r>
       <r>    14.0063    11.9050   161.4741 </r>
       <r>    14.0983    12.9293   162.6641 </r>
       <r>    14.1904     7.9598   163.3968 </r>
       <r>    14.2824     6.6094   164.0051 </r>
       <r>    14.3745     7.3673   164.6832 </r>
       <r>    14.4665     7.9038   165.4107 </r>
       <r>    14.5585    10.3250   166.3611 </r>
       <r>    14.6506     8.0612   167.1030 </r>
       <r>    14.7426     5.1055   167.5730 </r>
       <r>    14.8347     2.9985   167.8490 </r>
       <r>    14.9267     1.3122   167.9697 </r>
       <r>    15.0188     0.3069   167.9980 </r>
       <r>    15.1108     0.0215   168.0000 </r>
       <r>    15.2028     0.0003   168.0000 </r>
       <r>    15.2949     0.0000   168.0000 </r>
       <r>    15.3869     0.0000   168.0000 </r>
       <r>    15.4790     0.0000   168.0000 </r>
       <r>    15.5710     0.0000   168.0000 </r>
       <r>    15.6631     0.0000   168.0000 </r>
       <r>    15.7551     0.0000   168.0000 </r>
       <r>    15.8472     0.0000   168.0000 </r>
       <r>    15.9392     0.0000   168.0000 </r>
       <r>    16.0312     0.0000   168.0000 </r>
       <r>    16.1233     0.0000   168.0000 </r>
      </set>
     </set>
    </array>
   </total>
  </dos>
 </calculation>
 <structure name="finalpos" >
  <crystal>
   <varray name="basis" >
    <v>      20.53673667       0.00000000      -0.16393201 </v>
    <v>       0.00000000       3.13407321       0.00000000 </v>
    <v>      -1.44223197       0.00000000       5.32107440 </v>
   </varray>
   <i name="volume">    341.74271369 </i>
   <varray name="rec_basis" >
    <v>       0.04879881       0.00000000       0.01322650 </v>
    <v>       0.00000000       0.31907359       0.00000000 </v>
    <v>       0.00150340       0.00000000       0.18833945 </v>
   </varray>
  </crystal>
  <varray name="positions" >
   <v>       0.74828994       0.50000000       0.59935076 </v>
   <v>       0.62635118       0.50000000       0.79626470 </v>
   <v>       0.87481890       0.00000000       0.53893227 </v>
   <v>       0.24828994       0.00000000       0.59935076 </v>
   <v>       0.12635118       0.00000000       0.79626470 </v>
   <v>       0.37481890       0.50000000       0.53893227 </v>
   <v>       0.99809808       0.00000000       0.33292125 </v>
   <v>       0.75736591       0.00000000       0.07765315 </v>
   <v>       0.00639566       0.50000000       0.83682057 </v>
   <v>       0.88205134       0.50000000       0.05007887 </v>
   <v>       0.62136765       0.00000000       0.28225806 </v>
   <v>       0.49809808       0.50000000       0.33292125 </v>
   <v>       0.25736591       0.50000000       0.07765315 </v>
   <v>       0.50639566       0.00000000       0.83682057 </v>
   <v>       0.38205134       0.00000000       0.05007887 </v>
   <v>       0.12136765       0.50000000       0.28225806 </v>
   <v>       0.89480976       0.00000000       0.25132918 </v>
   <v>       0.65705253       0.00000000       0.97454472 </v>
   <v>       0.52515001       0.00000000       0.19202659 </v>
   <v>       0.39480976       0.50000000       0.25132918 </v>
   <v>       0.15705253       0.50000000       0.97454472 </v>
   <v>       0.02515001       0.50000000       0.19202659 </v>
   <v>       0.90126949       0.50000000       0.71889824 </v>
   <v>       0.65991984       0.50000000       0.50524422 </v>
   <v>       0.78173116       0.50000000       0.92206072 </v>
   <v>       0.53565336       0.50000000       0.69520386 </v>
   <v>       0.77967519       0.00000000       0.47641282 </v>
   <v>       0.40126949       0.00000000       0.71889824 </v>
   <v>       0.15991984       0.00000000       0.50524422 </v>
   <v>       0.28173116       0.00000000       0.92206072 </v>
   <v>       0.03565336       0.00000000       0.69520386 </v>
   <v>       0.27967519       0.50000000       0.47641282 </v>
  </varray>
 </structure>
</modeling>
