<?xml version="1.0" encoding="ISO-8859-1"?>
<modeling>
 <generator>
  <i name="program" type="string">vasp </i>
  <i name="version" type="string">5.3.5  </i>
  <i name="subversion" type="string">31Mar14 (build Jun 20 2014 13:15:13) complex                          parallel </i>
  <i name="platform" type="string">LinuxIFC </i>
  <i name="date" type="string">2025 12 12 </i>
  <i name="time" type="string">13:31:55 </i>
 </generator>
 <incar>
  <i type="string" name="PREC">accurate</i>
  <i type="int" name="IALGO">    38</i>
  <i type="logical" name="ADDGRID"> T  </i>
  <i type="int" name="ISPIN">     2</i>
  <i type="int" name="NELM">   100</i>
  <i type="int" name="NELMIN">     4</i>
  <i name="EDIFF">      0.00000100</i>
  <i name="ENCUT">    500.00000000</i>
  <i type="logical" name="LREAL"> F  </i>
  <i type="int" name="ISMEAR">     0</i>
  <i name="SIGMA">      0.05000000</i>
  <i type="logical" name="LWAVE"> F  </i>
  <i type="logical" name="LCHARG"> F  </i>
  <i type="int" name="NELM">   100</i>
  <i type="logical" name="LDAU"> T  </i>
  <v name="LDAUU">      0.00000000      4.00000000      0.00000000</v>
  <v name="LDAUJ">      0.00000000      0.00000000      0.00000000</v>
 </incar>
 <kpoints>
  <generation param="Auto">
   <i name="subdivisionlength">     20.00000000 </i>
   <v type="int" name="divisions">       5        3        3 </v>
   <v name="usershift">      0.00000000       0.00000000       0.00000000 </v>
   <v name="genvec1">      0.20000000       0.00000000       0.00000000 </v>
   <v name="genvec2">      0.00000000       0.33333333       0.00000000 </v>
   <v name="genvec3">      0.00000000       0.00000000       0.33333333 </v>
   <v name="shift">      0.00000000       0.00000000       0.00000000 </v>
  </generation>
  <varray name="kpointlist" >
   <v>       0.00000000       0.00000000       0.00000000 </v>
   <v>       0.20000000       0.00000000       0.00000000 </v>
   <v>       0.40000000       0.00000000       0.00000000 </v>
   <v>       0.00000000       0.33333333       0.00000000 </v>
   <v>       0.20000000       0.33333333       0.00000000 </v>
   <v>       0.40000000       0.33333333       0.00000000 </v>
   <v>       0.00000000       0.00000000       0.33333333 </v>
   <v>       0.20000000       0.00000000       0.33333333 </v>
   <v>       0.40000000       0.00000000       0.33333333 </v>
   <v>       0.00000000       0.33333333       0.33333333 </v>
   <v>       0.20000000       0.33333333       0.33333333 </v>
   <v>       0.40000000       0.33333333       0.33333333 </v>
  </varray>
  <varray name="weights" >
   <v>       0.02222222 </v>
   <v>       0.04444444 </v>
   <v>       0.04444444 </v>
   <v>       0.04444444 </v>
   <v>       0.08888889 </v>
   <v>       0.08888889 </v>
   <v>       0.04444444 </v>
   <v>       0.08888889 </v>
   <v>       0.08888889 </v>
   <v>       0.08888889 </v>
   <v>       0.17777778 </v>
   <v>       0.17777778 </v>
  </varray>
 </kpoints>
 <parameters>
  <separator name="general" >
   <i type="string" name="SYSTEM">unknown system</i>
   <i type="logical" name="LCOMPAT"> F  </i>
  </separator>
  <separator name="electronic" >
   <i type="string" name="PREC">accura</i>
   <i name="ENMAX">    500.00000000</i>
   <i name="ENAUG">    586.98000000</i>
   <i name="EDIFF">      0.00000100</i>
   <i type="int" name="IALGO">    38</i>
   <i type="int" name="IWAVPR">    10</i>
   <i type="int" name="NBANDS">    88</i>
   <i name="NELECT">    132.00000000</i>
   <i type="int" name="TURBO">     0</i>
   <i type="int" name="IRESTART">     0</i>
   <i type="int" name="NREBOOT">     0</i>
   <i type="int" name="NMIN">     0</i>
   <i name="EREF">      0.00000000</i>
   <separator name="electronic smearing" >
    <i type="int" name="ISMEAR">     0</i>
    <i name="SIGMA">      0.05000000</i>
    <i name="KSPACING">      0.50000000</i>
    <i type="logical" name="KGAMMA"> T  </i>
   </separator>
   <separator name="electronic projectors" >
    <i type="logical" name="LREAL"> F  </i>
    <v name="ROPT">      0.00000000      0.00000000      0.00000000</v>
    <i type="int" name="LMAXPAW">  -100</i>
    <i type="int" name="LMAXMIX">     2</i>
    <i type="logical" name="NLSPLINE"> F  </i>
   </separator>
   <separator name="electronic startup" >
    <i type="int" name="ISTART">     0</i>
    <i type="int" name="ICHARG">     2</i>
    <i type="int" name="INIWAV">     1</i>
   </separator>
   <separator name="electronic spin" >
    <i type="int" name="ISPIN">     2</i>
    <i type="logical" name="LNONCOLLINEAR"> F  </i>
    <v name="MAGMOM">      1.00000000      1.00000000      1.00000000      1.00000000      1.00000000      1.00000000      1.00000000      1.00000000      1.00000000      1.00000000      1.00000000      1.00000000      1.00000000      1.00000000      1.00000000      1.00000000</v>
    <i name="NUPDOWN">     -1.00000000</i>
    <i type="logical" name="LSORBIT"> F  </i>
    <v name="SAXIS">      0.00000000      0.00000000      1.00000000</v>
    <i type="logical" name="LSPIRAL"> F  </i>
    <v name="QSPIRAL">      0.00000000      0.00000000      0.00000000</v>
    <i type="logical" name="LZEROZ"> F  </i>
   </separator>
   <separator name="electronic exchange-correlation" >
    <i type="logical" name="LASPH"> F  </i>
    <i type="logical" name="LMETAGGA"> F  </i>
   </separator>
   <separator name="electronic convergence" >
    <i type="int" name="NELM">   100</i>
    <i type="int" name="NELMDL">    -5</i>
    <i type="int" name="NELMIN">     4</i>
    <i name="ENINI">    500.00000000</i>
    <separator name="electronic convergence detail" >
     <i type="logical" name="LDIAG"> T  </i>
     <i type="logical" name="LSUBROT"> F  </i>
     <i name="WEIMIN">      0.00000000</i>
     <i name="EBREAK">      0.00000000</i>
     <i name="DEPER">      0.30000000</i>
     <i type="int" name="NRMM">     4</i>
     <i name="TIME">      0.40000000</i>
    </separator>
   </separator>
   <separator name="electronic mixer" >
    <i name="AMIX">      0.40000000</i>
    <i name="BMIX">      1.00000000</i>
    <i name="AMIN">      0.10000000</i>
    <i name="AMIX_MAG">      1.60000000</i>
    <i name="BMIX_MAG">      1.00000000</i>
    <separator name="electronic mixer details" >
     <i type="int" name="IMIX">     4</i>
     <i type="int" name="MAXMIX">   -45</i>
     <i name="WC">    100.00000000</i>
     <i type="int" name="INIMIX">     1</i>
     <i type="int" name="MIXPRE">     1</i>
     <i type="int" name="MREMOVE">     5</i>
    </separator>
   </separator>
   <separator name="electronic dipolcorrection" >
    <i type="logical" name="LDIPOL"> F  </i>
    <i type="logical" name="LMONO"> F  </i>
    <i type="int" name="IDIPOL">     0</i>
    <i name="EPSILON">      1.00000000</i>
    <v name="DIPOL">   -100.00000000   -100.00000000   -100.00000000</v>
    <i name="EFIELD">      0.00000000</i>
   </separator>
  </separator>
  <separator name="grids" >
   <i type="int" name="NGX">    30</i>
   <i type="int" name="NGY">    60</i>
   <i type="int" name="NGZ">    60</i>
   <i type="int" name="NGXF">    60</i>
   <i type="int" name="NGYF">   120</i>
   <i type="int" name="NGZF">   120</i>
   <i type="logical" name="ADDGRID"> T  </i>
  </separator>
  <separator name="ionic" >
   <i type="int" name="NSW">     0</i>
   <i type="int" name="IBRION">    -1</i>
   <i type="int" name="ISIF">     2</i>
   <i name="PSTRESS">      0.00000000</i>
   <i name="EDIFFG">      0.00001000</i>
   <i type="int" name="NFREE">     0</i>
   <i name="POTIM">      0.50000000</i>
   <i name="SMASS">     -3.00000000</i>
   <i name="SCALEE">      1.00000000</i>
  </separator>
  <separator name="ionic md" >
   <i name="TEBEG">      0.00010000</i>
   <i name="TEEND">      0.00010000</i>
   <i type="int" name="NBLOCK">     1</i>
   <i type="int" name="KBLOCK">     1</i>
   <i type="int" name="NPACO">   256</i>
   <i name="APACO">     16.00000000</i>
  </separator>
  <separator name="symmetry" >
   <i type="int" name="ISYM">     2</i>
   <i name="SYMPREC">      0.00001000</i>
  </separator>
  <separator name="dos" >
   <i type="logical" name="LORBIT"> F  </i>
   <v name="RWIGS">     -1.00000000     -1.00000000     -1.00000000</v>
   <i type="int" name="NEDOS">   301</i>
   <i name="EMIN">     10.00000000</i>
   <i name="EMAX">    -10.00000000</i>
   <i name="EFERMI">      0.00000000</i>
  </separator>
  <separator name="writing" >
   <i type="int" name="NWRITE">     2</i>
   <i type="logical" name="LWAVE"> F  </i>
   <i type="logical" name="LCHARG"> F  </i>
   <i type="logical" name="LPARD"> F  </i>
   <i type="logical" name="LVTOT"> F  </i>
   <i type="logical" name="LVHAR"> F  </i>
   <i type="logical" name="LELF"> F  </i>
   <i type="logical" name="LOPTICS"> F  </i>
   <v name="STM">      0.00000000      0.00000000      0.00000000      0.00000000      0.00000000      0.00000000      0.00000000</v>
  </separator>
  <separator name="performance" >
   <i type="int" name="NPAR">     4</i>
   <i type="int" name="NSIM">     4</i>
   <i type="int" name="NBLK">    -1</i>
   <i type="logical" name="LPLANE"> T  </i>
   <i type="logical" name="LSCALAPACK"> T  </i>
   <i type="logical" name="LSCAAWARE"> F  </i>
   <i type="logical" name="LSCALU"> F  </i>
   <i type="logical" name="LASYNC"> F  </i>
   <i type="logical" name="LORBITALREAL"> F  </i>
  </separator>
  <separator name="miscellaneous" >
   <i type="int" name="IDIOT">     3</i>
   <i type="logical" name="LMUSIC"> F  </i>
   <v name="POMASS">     87.62000000     63.54600000     16.00000000</v>
   <v name="DARWINR">      0.00000000      0.00000000      0.00000000</v>
   <v name="DARWINV">      1.00000000      1.00000000      1.00000000</v>
   <i type="logical" name="LCORR"> T  </i>
  </separator>
  <i type="logical" name="GGA_COMPAT"> T  </i>
  <i type="logical" name="LBERRY"> F  </i>
  <i type="int" name="ICORELEVEL">     0</i>
  <i type="logical" name="LDAU"> T  </i>
  <v type="int" name="LDAUTYPE">     2</v>
  <v type="int" name="LDAUL">     2</v>
  <v name="LDAUU">      0.00000000</v>
  <v name="LDAUJ">      0.00000000</v>
  <i type="int" name="LDAUPRINT">     0</i>
  <i type="int" name="I_CONSTRAINED_M">     0</i>
  <separator name="electronic exchange-correlation" >
   <i type="string" name="GGA">--</i>
   <i type="int" name="VOSKOWN">     0</i>
   <i type="logical" name="LHFCALC"> F  </i>
   <i type="string" name="PRECFOCK"></i>
   <i type="logical" name="LSYMGRAD"> F  </i>
   <i type="logical" name="LHFONE"> F  </i>
   <i type="logical" name="LRHFCALC"> F  </i>
   <i type="logical" name="LTHOMAS"> F  </i>
   <i type="logical" name="LMODELHF"> F  </i>
   <i name="ENCUT4O">     -1.00000000</i>
   <i type="int" name="EXXOEP">     0</i>
   <i type="int" name="FOURORBIT">     0</i>
   <i name="AEXX">      0.00000000</i>
   <i name="HFALPHA">      0.00000000</i>
   <i name="MCALPHA">      0.00000000</i>
   <i name="ALDAX">      1.00000000</i>
   <i name="AGGAX">      1.00000000</i>
   <i name="ALDAC">      1.00000000</i>
   <i name="AGGAC">      1.00000000</i>
   <i type="int" name="NKREDX">     1</i>
   <i type="int" name="NKREDY">     1</i>
   <i type="int" name="NKREDZ">     1</i>
   <i type="logical" name="SHIFTRED"> F  </i>
   <i type="logical" name="ODDONLY"> F  </i>
   <i type="logical" name="EVENONLY"> F  </i>
   <i type="int" name="LMAXFOCK">     0</i>
   <i type="int" name="NMAXFOCKAE">     0</i>
   <i type="logical" name="LFOCKAEDFT"> F  </i>
   <i name="HFSCREEN">      0.00000000</i>
   <i name="HFSCREENC">      0.00000000</i>
   <i type="int" name="NBANDSGWLOW">     0</i>
  </separator>
  <separator name="vdW DFT" >
   <i type="logical" name="LUSE_VDW"> F  </i>
   <i name="Zab_VDW">     -0.84910000</i>
   <i name="PARAM1">      0.12340000</i>
   <i name="PARAM2">      1.00000000</i>
   <i name="PARAM3">      0.00000000</i>
  </separator>
  <separator name="model GW" >
   <i type="int" name="MODEL_GW">     0</i>
   <i name="MODEL_EPS0">      9.60000000</i>
   <i name="MODEL_ALPHA">      1.00000000</i>
  </separator>
  <separator name="linear response parameters" >
   <i type="logical" name="LEPSILON"> F  </i>
   <i type="logical" name="LRPA"> F  </i>
   <i type="logical" name="LNABLA"> F  </i>
   <i type="logical" name="LVEL"> F  </i>
   <i type="int" name="KINTER">     0</i>
   <i name="CSHIFT">      0.10000000</i>
   <i name="OMEGAMAX">     -1.00000000</i>
   <i name="DEG_THRESHOLD">      0.00200000</i>
  </separator>
  <separator name="orbital magnetization" >
   <i type="logical" name="NUCIND"> F  </i>
   <v name="MAGPOS">      0.00000000      0.00000000      0.00000000</v>
   <i type="logical" name="LNICSALL"> T  </i>
   <i type="logical" name="ORBITALMAG"> F  </i>
   <i type="logical" name="LMAGBLOCH"> F  </i>
   <i type="logical" name="LCHIMAG"> F  </i>
   <i type="logical" name="LGAUGE"> T  </i>
   <i type="int" name="MAGATOM">     0</i>
   <v name="MAGDIPOL">      0.00000000      0.00000000      0.00000000</v>
   <v name="AVECCONST">      0.00000000      0.00000000      0.00000000</v>
  </separator>
  <separator name="response functions" >
   <i type="logical" name="LADDER"> F  </i>
   <i type="logical" name="LFXC"> F  </i>
   <i type="logical" name="LHARTREE"> T  </i>
   <i type="int" name="IBSE">     0</i>
   <i type="logical" name="LTCTE"> F  </i>
   <i type="logical" name="LTETE"> F  </i>
   <i type="logical" name="LTRIPLET"> F  </i>
   <i type="logical" name="LFXCEPS"> F  </i>
   <i type="logical" name="LFXHEG"> F  </i>
   <i type="logical" name="L2ORDER"> F  </i>
   <i type="logical" name="LUSEW"> F  </i>
   <i name="ENCUTGW">     -2.00000000</i>
   <i name="ENCUTGWSOFT">     -2.00000000</i>
   <i name="ENCUTLF">     -1.00000000</i>
   <i type="int" name="LMAXMP2">    -1</i>
   <i name="SCISSOR">      0.00000000</i>
   <i type="int" name="NOMEGA">     0</i>
   <i type="int" name="NOMEGAR">     0</i>
   <i type="int" name="NBANDSGW">    -1</i>
   <i type="int" name="NBANDSO">    -1</i>
   <i type="int" name="NBANDSV">    -1</i>
   <i type="int" name="NELM">   100</i>
   <i type="int" name="DIM">     3</i>
   <i type="int" name="ANTIRES">     0</i>
   <i name="OMEGAMAX">    -30.00000000</i>
   <i name="OMEGAMIN">    -30.00000000</i>
   <i name="OMEGATL">   -200.00000000</i>
   <i type="int" name="OMEGAGRID">     0</i>
   <i name="CSHIFT">     -0.10000000</i>
   <i type="logical" name="SELFENERGY"> F  </i>
   <i type="logical" name="LSPECTRAL"> F  </i>
   <i type="logical" name="ODDONLYGW"> F  </i>
   <i type="logical" name="EVENONLYGW"> F  </i>
   <i type="int" name="NKREDLFX">     1</i>
   <i type="int" name="NKREDLFY">     1</i>
   <i type="int" name="NKREDLFZ">     1</i>
   <i type="int" name="MAXMEM">  1800</i>
   <i type="int" name="TELESCOPE">     0</i>
   <i type="int" name="TAUPAR">     1</i>
  </separator>
  <separator name="External order field" >
   <i name="OFIELD_KAPPA">      0.00000000</i>
   <v name="OFIELD_K">      0.00000000      0.00000000      0.00000000</v>
   <i name="OFIELD_Q6_NEAR">      0.00000000</i>
   <i name="OFIELD_Q6_FAR">      0.00000000</i>
   <i name="OFIELD_A">      0.00000000</i>
  </separator>
 </parameters>
 <atominfo>
  <atoms>      16 </atoms>
  <types>       3 </types>
  <array name="atoms" >
   <dimension dim="1">ion</dimension>
   <field type="string">element</field>
   <field type="int">atomtype</field>
   <set>
    <rc><c>Sr</c><c>   1</c></rc>
    <rc><c>Sr</c><c>   1</c></rc>
    <rc><c>Sr</c><c>   1</c></rc>
    <rc><c>Sr</c><c>   1</c></rc>
    <rc><c>Cu</c><c>   2</c></rc>
    <rc><c>Cu</c><c>   2</c></rc>
    <rc><c>Cu</c><c>   2</c></rc>
    <rc><c>Cu</c><c>   2</c></rc>
    <rc><c>O </c><c>   3</c></rc>
    <rc><c>O </c><c>   3</c></rc>
    <rc><c>O </c><c>   3</c></rc>
    <rc><c>O </c><c>   3</c></rc>
    <rc><c>O </c><c>   3</c></rc>
    <rc><c>O </c><c>   3</c></rc>
    <rc><c>O </c><c>   3</c></rc>
    <rc><c>O </c><c>   3</c></rc>
   </set>
  </array>
  <array name="atomtypes" >
   <dimension dim="1">type</dimension>
   <field type="int">atomspertype</field>
   <field type="string">element</field>
   <field>mass</field>
   <field>valence</field>
   <field type="string">pseudopotential</field>
   <set>
    <rc><c>   4</c><c>Sr</c><c>     87.62000000</c><c>     10.00000000</c><c>  PAW_PBE Sr_sv 07Sep2000               </c></rc>
    <rc><c>   4</c><c>Cu</c><c>     63.54600000</c><c>     11.00000000</c><c>  PAW_PBE Cu 22Jun2005                  </c></rc>
    <rc><c>   8</c><c>O </c><c>     16.00000000</c><c>      6.00000000</c><c>  PAW_PBE O_s 07Sep2000                 </c></rc>
   </set>
  </array>
 </atominfo>
 <structure name="initialpos" >
  <crystal>
   <varray name="basis" >
    <v>       4.00000000       0.00000000       0.00000000 </v>
    <v>       0.00000000       8.00000000       0.00000000 </v>
    <v>       0.00000000       0.00000000       8.00000000 </v>
   </varray>
   <i name="volume">    256.00000000 </i>
   <varray name="rec_basis" >
    <v>       0.25000000       0.00000000       0.00000000 </v>
    <v>       0.00000000       0.12500000       0.00000000 </v>
    <v>       0.00000000       0.00000000       0.12500000 </v>
   </varray>
  </crystal>
  <varray name="positions" >
   <v>       0.00000000       0.75000000       0.75000000 </v>
   <v>       0.00000000       0.25000000       0.75000000 </v>
   <v>       0.00000000       0.75000000       0.25000000 </v>
   <v>       0.00000000       0.25000000       0.25000000 </v>
   <v>       0.50000000       0.00000000       0.00000000 </v>
   <v>       0.50000000       0.50000000       0.00000000 </v>
   <v>       0.50000000       0.00000000       0.50000000 </v>
   <v>       0.50000000       0.50000000       0.50000000 </v>
   <v>       0.50000000       0.50000000       0.75000000 </v>
   <v>       0.50000000       0.50000000       0.25000000 </v>
   <v>       0.00000000       0.00000000       0.50000000 </v>
   <v>       0.00000000       0.50000000       0.50000000 </v>
   <v>       0.50000000       0.75000000       0.00000000 </v>
   <v>       0.50000000       0.25000000       0.00000000 </v>
   <v>       0.50000000       0.75000000       0.50000000 </v>
   <v>       0.50000000       0.25000000       0.50000000 </v>
  </varray>
 </structure>
 <calculation>
  <scstep>
   <time name="dav">    1.28    1.29</time>
   <time name="total">    1.39    1.40</time>
   <energy>
    <i name="alphaZ">    598.65364144 </i>
    <i name="ewald">  -8554.76946342 </i>
    <i name="hartreedc">  -3889.38190072 </i>
    <i name="XCdc">    543.15129325 </i>
    <i name="pawpsdc">  10188.96972968 </i>
    <i name="pawaedc"> -10517.73277125 </i>
    <i name="eentropy">     -0.00337062 </i>
    <i name="bandstr">    886.21050072 </i>
    <i name="atom">  12395.00728236 </i>
    <i name="e_fr_energy">   1650.10494143 </i>
    <i name="e_wo_entrp">   1650.10831206 </i>
    <i name="e_0_energy">   1650.10662675 </i>
   </energy>
  </scstep>
  <scstep>
   <time name="dav">    1.29    1.29</time>
   <time name="total">    1.29    1.31</time>
   <energy>
    <i name="e_fr_energy">    150.50004156 </i>
    <i name="e_wo_entrp">    150.50386752 </i>
    <i name="e_0_energy">    150.50195454 </i>
   </energy>
  </scstep>
  <scstep>
   <time name="dav">    1.39    1.39</time>
   <time name="total">    1.39    1.40</time>
   <energy>
    <i name="e_fr_energy">    -78.79698284 </i>
    <i name="e_wo_entrp">    -78.79051650 </i>
    <i name="e_0_energy">    -78.79374967 </i>
   </energy>
  </scstep>
  <scstep>
   <time name="dav">    1.84    1.84</time>
   <time name="total">    1.84    1.86</time>
   <energy>
    <i name="e_fr_energy">    -96.67685999 </i>
    <i name="e_wo_entrp">    -96.66909478 </i>
    <i name="e_0_energy">    -96.67297738 </i>
   </energy>
  </scstep>
  <scstep>
   <time name="dav">    2.11    2.11</time>
   <time name="total">    2.26    2.27</time>
   <energy>
    <i name="e_fr_energy">    -97.65146239 </i>
    <i name="e_wo_entrp">    -97.64370455 </i>
    <i name="e_0_energy">    -97.64758347 </i>
   </energy>
  </scstep>
  <scstep>
   <time name="dav">    1.72    1.72</time>
   <time name="total">    2.05    2.07</time>
   <energy>
    <i name="e_fr_energy">    -85.23050798 </i>
    <i name="e_wo_entrp">    -85.21974399 </i>
    <i name="e_0_energy">    -85.22512598 </i>
   </energy>
  </scstep>
  <scstep>
   <time name="dav">    1.73    1.73</time>
   <time name="total">    1.98    2.00</time>
   <energy>
    <i name="e_fr_energy">    -79.76747984 </i>
    <i name="e_wo_entrp">    -79.76032750 </i>
    <i name="e_0_energy">    -79.76390367 </i>
   </energy>
  </scstep>
  <scstep>
   <time name="dav">    1.85    1.85</time>
   <time name="total">    2.11    2.12</time>
   <energy>
    <i name="e_fr_energy">    -80.96214069 </i>
    <i name="e_wo_entrp">    -80.94849378 </i>
    <i name="e_0_energy">    -80.95531723 </i>
   </energy>
  </scstep>
  <scstep>
   <time name="dav">    1.77    1.77</time>
   <time name="total">    2.03    2.04</time>
   <energy>
    <i name="e_fr_energy">    -80.60221692 </i>
    <i name="e_wo_entrp">    -80.59113985 </i>
    <i name="e_0_energy">    -80.59667838 </i>
   </energy>
  </scstep>
  <scstep>
   <time name="dav">    1.76    1.76</time>
   <time name="total">    2.01    2.02</time>
   <energy>
    <i name="e_fr_energy">    -79.72609293 </i>
    <i name="e_wo_entrp">    -79.71796403 </i>
    <i name="e_0_energy">    -79.72202848 </i>
   </energy>
  </scstep>
  <scstep>
   <time name="dav">    1.73    1.73</time>
   <time name="total">    1.99    2.00</time>
   <energy>
    <i name="e_fr_energy">    -79.17775812 </i>
    <i name="e_wo_entrp">    -79.17033162 </i>
    <i name="e_0_energy">    -79.17404487 </i>
   </energy>
  </scstep>
  <scstep>
   <time name="dav">    1.79    1.79</time>
   <time name="total">    2.05    2.06</time>
   <energy>
    <i name="e_fr_energy">    -79.25737499 </i>
    <i name="e_wo_entrp">    -79.25094531 </i>
    <i name="e_0_energy">    -79.25416015 </i>
   </energy>
  </scstep>
  <scstep>
   <time name="dav">    1.74    1.74</time>
   <time name="total">    1.99    2.01</time>
   <energy>
    <i name="e_fr_energy">    -79.23217667 </i>
    <i name="e_wo_entrp">    -79.22610764 </i>
    <i name="e_0_energy">    -79.22914216 </i>
   </energy>
  </scstep>
  <scstep>
   <time name="dav">    1.83    1.83</time>
   <time name="total">    2.08    2.10</time>
   <energy>
    <i name="e_fr_energy">    -79.24574945 </i>
    <i name="e_wo_entrp">    -79.23995252 </i>
    <i name="e_0_energy">    -79.24285098 </i>
   </energy>
  </scstep>
  <scstep>
   <time name="dav">    1.82    1.82</time>
   <time name="total">    2.07    2.09</time>
   <energy>
    <i name="e_fr_energy">    -79.25873343 </i>
    <i name="e_wo_entrp">    -79.25285711 </i>
    <i name="e_0_energy">    -79.25579527 </i>
   </energy>
  </scstep>
  <scstep>
   <time name="dav">    1.93    1.93</time>
   <time name="total">    2.19    2.20</time>
   <energy>
    <i name="e_fr_energy">    -79.27522487 </i>
    <i name="e_wo_entrp">    -79.26936706 </i>
    <i name="e_0_energy">    -79.27229596 </i>
   </energy>
  </scstep>
  <scstep>
   <time name="dav">    1.70    1.70</time>
   <time name="total">    1.96    1.97</time>
   <energy>
    <i name="e_fr_energy">    -79.27755495 </i>
    <i name="e_wo_entrp">    -79.27198978 </i>
    <i name="e_0_energy">    -79.27477236 </i>
   </energy>
  </scstep>
  <scstep>
   <time name="dav">    1.85    1.86</time>
   <time name="total">    2.11    2.12</time>
   <energy>
    <i name="e_fr_energy">    -79.28135911 </i>
    <i name="e_wo_entrp">    -79.27548161 </i>
    <i name="e_0_energy">    -79.27842036 </i>
   </energy>
  </scstep>
  <scstep>
   <time name="dav">    1.88    1.88</time>
   <time name="total">    2.14    2.15</time>
   <energy>
    <i name="e_fr_energy">    -79.28800482 </i>
    <i name="e_wo_entrp">    -79.28205465 </i>
    <i name="e_0_energy">    -79.28502973 </i>
   </energy>
  </scstep>
  <scstep>
   <time name="dav">    1.93    1.93</time>
   <time name="total">    2.19    2.20</time>
   <energy>
    <i name="e_fr_energy">    -79.29259451 </i>
    <i name="e_wo_entrp">    -79.28683577 </i>
    <i name="e_0_energy">    -79.28971514 </i>
   </energy>
  </scstep>
  <scstep>
   <time name="dav">    2.00    2.07</time>
   <time name="total">    2.26    2.34</time>
   <energy>
    <i name="e_fr_energy">    -79.29604071 </i>
    <i name="e_wo_entrp">    -79.29063543 </i>
    <i name="e_0_energy">    -79.29333807 </i>
   </energy>
  </scstep>
  <scstep>
   <time name="dav">    2.01    2.01</time>
   <time name="total">    2.27    2.29</time>
   <energy>
    <i name="e_fr_energy">    -79.29762634 </i>
    <i name="e_wo_entrp">    -79.29247097 </i>
    <i name="e_0_energy">    -79.29504865 </i>
   </energy>
  </scstep>
  <scstep>
   <time name="dav">    1.80    1.80</time>
   <time name="total">    2.06    2.07</time>
   <energy>
    <i name="e_fr_energy">    -79.29448011 </i>
    <i name="e_wo_entrp">    -79.28909506 </i>
    <i name="e_0_energy">    -79.29178759 </i>
   </energy>
  </scstep>
  <scstep>
   <time name="dav">    1.73    1.73</time>
   <time name="total">    1.99    2.00</time>
   <energy>
    <i name="e_fr_energy">    -79.29977094 </i>
    <i name="e_wo_entrp">    -79.29476848 </i>
    <i name="e_0_energy">    -79.29726971 </i>
   </energy>
  </scstep>
  <scstep>
   <time name="dav">    1.91    1.91</time>
   <time name="total">    2.17    2.18</time>
   <energy>
    <i name="e_fr_energy">    -79.30141190 </i>
    <i name="e_wo_entrp">    -79.29670100 </i>
    <i name="e_0_energy">    -79.29905645 </i>
   </energy>
  </scstep>
  <scstep>
   <time name="dav">    1.82    1.82</time>
   <time name="total">    2.08    2.09</time>
   <energy>
    <i name="e_fr_energy">    -79.30371892 </i>
    <i name="e_wo_entrp">    -79.29951520 </i>
    <i name="e_0_energy">    -79.30161706 </i>
   </energy>
  </scstep>
  <scstep>
   <time name="dav">    2.00    2.00</time>
   <time name="total">    2.26    2.27</time>
   <energy>
    <i name="e_fr_energy">    -79.30489610 </i>
    <i name="e_wo_entrp">    -79.30103655 </i>
    <i name="e_0_energy">    -79.30296633 </i>
   </energy>
  </scstep>
  <scstep>
   <time name="dav">    1.88    1.88</time>
   <time name="total">    2.14    2.15</time>
   <energy>
    <i name="e_fr_energy">    -79.30531293 </i>
    <i name="e_wo_entrp">    -79.30162349 </i>
    <i name="e_0_energy">    -79.30346821 </i>
   </energy>
  </scstep>
  <scstep>
   <time name="dav">    1.86    1.86</time>
   <time name="total">    2.11    2.13</time>
   <energy>
    <i name="e_fr_energy">    -79.30545503 </i>
    <i name="e_wo_entrp">    -79.30187142 </i>
    <i name="e_0_energy">    -79.30366323 </i>
   </energy>
  </scstep>
  <scstep>
   <time name="dav">    1.64    1.66</time>
   <time name="total">    1.89    1.94</time>
   <energy>
    <i name="e_fr_energy">    -79.30547498 </i>
    <i name="e_wo_entrp">    -79.30192565 </i>
    <i name="e_0_energy">    -79.30370031 </i>
   </energy>
  </scstep>
  <scstep>
   <time name="dav">    1.72    1.72</time>
   <time name="total">    1.97    1.99</time>
   <energy>
    <i name="e_fr_energy">    -79.30531910 </i>
    <i name="e_wo_entrp">    -79.30170693 </i>
    <i name="e_0_energy">    -79.30351302 </i>
   </energy>
  </scstep>
  <scstep>
   <time name="dav">    1.78    1.78</time>
   <time name="total">    2.04    2.05</time>
   <energy>
    <i name="e_fr_energy">    -79.30537293 </i>
    <i name="e_wo_entrp">    -79.30172517 </i>
    <i name="e_0_energy">    -79.30354905 </i>
   </energy>
  </scstep>
  <scstep>
   <time name="dav">    1.66    1.66</time>
   <time name="total">    1.91    1.93</time>
   <energy>
    <i name="e_fr_energy">    -79.30531117 </i>
    <i name="e_wo_entrp">    -79.30160926 </i>
    <i name="e_0_energy">    -79.30346021 </i>
   </energy>
  </scstep>
  <scstep>
   <time name="dav">    1.77    1.77</time>
   <time name="total">    2.02    2.03</time>
   <energy>
    <i name="e_fr_energy">    -79.30519244 </i>
    <i name="e_wo_entrp">    -79.30142880 </i>
    <i name="e_0_energy">    -79.30331062 </i>
   </energy>
  </scstep>
  <scstep>
   <time name="dav">    1.64    1.65</time>
   <time name="total">    1.89    1.92</time>
   <energy>
    <i name="e_fr_energy">    -79.30518022 </i>
    <i name="e_wo_entrp">    -79.30137670 </i>
    <i name="e_0_energy">    -79.30327846 </i>
   </energy>
  </scstep>
  <scstep>
   <time name="dav">    1.49    1.49</time>
   <time name="total">    1.74    1.76</time>
   <energy>
    <i name="e_fr_energy">    -79.30506264 </i>
    <i name="e_wo_entrp">    -79.30120022 </i>
    <i name="e_0_energy">    -79.30313143 </i>
   </energy>
  </scstep>
  <scstep>
   <time name="dav">    1.82    1.82</time>
   <time name="total">    2.08    2.09</time>
   <energy>
    <i name="e_fr_energy">    -79.30494901 </i>
    <i name="e_wo_entrp">    -79.30102354 </i>
    <i name="e_0_energy">    -79.30298627 </i>
   </energy>
  </scstep>
  <scstep>
   <time name="dav">    1.57    1.57</time>
   <time name="total">    1.82    1.84</time>
   <energy>
    <i name="e_fr_energy">    -79.30489403 </i>
    <i name="e_wo_entrp">    -79.30092566 </i>
    <i name="e_0_energy">    -79.30290984 </i>
   </energy>
  </scstep>
  <scstep>
   <time name="dav">    1.16    1.17</time>
   <time name="total">    1.42    1.44</time>
   <energy>
    <i name="e_fr_energy">    -79.30485638 </i>
    <i name="e_wo_entrp">    -79.30085958 </i>
    <i name="e_0_energy">    -79.30285798 </i>
   </energy>
  </scstep>
  <scstep>
   <time name="dav">    1.12    1.12</time>
   <time name="total">    1.38    1.39</time>
   <energy>
    <i name="e_fr_energy">    -79.30484799 </i>
    <i name="e_wo_entrp">    -79.30083610 </i>
    <i name="e_0_energy">    -79.30284205 </i>
   </energy>
  </scstep>
  <scstep>
   <time name="dav">    0.99    0.99</time>
   <time name="total">    1.25    1.26</time>
   <energy>
    <i name="e_fr_energy">    -79.30483002 </i>
    <i name="e_wo_entrp">    -79.30080407 </i>
    <i name="e_0_energy">    -79.30281705 </i>
   </energy>
  </scstep>
  <scstep>
   <time name="dav">    0.97    0.97</time>
   <time name="total">    1.23    1.24</time>
   <energy>
    <i name="e_fr_energy">    -79.30480458 </i>
    <i name="e_wo_entrp">    -79.30076258 </i>
    <i name="e_0_energy">    -79.30278358 </i>
   </energy>
  </scstep>
  <scstep>
   <time name="dav">    1.04    1.04</time>
   <time name="total">    1.30    1.31</time>
   <energy>
    <i name="e_fr_energy">    -79.30483469 </i>
    <i name="e_wo_entrp">    -79.30079999 </i>
    <i name="e_0_energy">    -79.30281734 </i>
   </energy>
  </scstep>
  <scstep>
   <time name="dav">    0.95    0.95</time>
   <time name="total">    1.21    1.23</time>
   <energy>
    <i name="e_fr_energy">    -79.30486656 </i>
    <i name="e_wo_entrp">    -79.30084374 </i>
    <i name="e_0_energy">    -79.30285515 </i>
   </energy>
  </scstep>
  <scstep>
   <time name="dav">    1.41    1.41</time>
   <time name="total">    1.67    1.69</time>
   <energy>
    <i name="e_fr_energy">    -79.30491980 </i>
    <i name="e_wo_entrp">    -79.30092002 </i>
    <i name="e_0_energy">    -79.30291991 </i>
   </energy>
  </scstep>
  <scstep>
   <time name="dav">    1.81    1.81</time>
   <time name="total">    2.07    2.09</time>
   <energy>
    <i name="e_fr_energy">    -79.30516003 </i>
    <i name="e_wo_entrp">    -79.30127598 </i>
    <i name="e_0_energy">    -79.30321801 </i>
   </energy>
  </scstep>
  <scstep>
   <time name="dav">    1.70    1.70</time>
   <time name="total">    1.96    1.97</time>
   <energy>
    <i name="e_fr_energy">    -79.30519429 </i>
    <i name="e_wo_entrp">    -79.30135449 </i>
    <i name="e_0_energy">    -79.30327439 </i>
   </energy>
  </scstep>
  <scstep>
   <time name="dav">    1.63    1.63</time>
   <time name="total">    1.89    1.90</time>
   <energy>
    <i name="e_fr_energy">    -79.30530702 </i>
    <i name="e_wo_entrp">    -79.30154202 </i>
    <i name="e_0_energy">    -79.30342452 </i>
   </energy>
  </scstep>
  <scstep>
   <time name="dav">    1.87    1.87</time>
   <time name="total">    2.13    2.15</time>
   <energy>
    <i name="e_fr_energy">    -79.30542976 </i>
    <i name="e_wo_entrp">    -79.30176846 </i>
    <i name="e_0_energy">    -79.30359911 </i>
   </energy>
  </scstep>
  <scstep>
   <time name="dav">    1.73    1.73</time>
   <time name="total">    1.99    2.00</time>
   <energy>
    <i name="e_fr_energy">    -79.30548306 </i>
    <i name="e_wo_entrp">    -79.30188591 </i>
    <i name="e_0_energy">    -79.30368448 </i>
   </energy>
  </scstep>
  <scstep>
   <time name="dav">    1.50    1.50</time>
   <time name="total">    1.76    1.77</time>
   <energy>
    <i name="e_fr_energy">    -79.30552024 </i>
    <i name="e_wo_entrp">    -79.30197134 </i>
    <i name="e_0_energy">    -79.30374579 </i>
   </energy>
  </scstep>
  <scstep>
   <time name="dav">    1.62    1.62</time>
   <time name="total">    1.88    1.89</time>
   <energy>
    <i name="e_fr_energy">    -79.30555983 </i>
    <i name="e_wo_entrp">    -79.30206486 </i>
    <i name="e_0_energy">    -79.30381234 </i>
   </energy>
  </scstep>
  <scstep>
   <time name="dav">    1.65    1.65</time>
   <time name="total">    1.92    1.93</time>
   <energy>
    <i name="e_fr_energy">    -79.30558245 </i>
    <i name="e_wo_entrp">    -79.30212865 </i>
    <i name="e_0_energy">    -79.30385555 </i>
   </energy>
  </scstep>
  <scstep>
   <time name="dav">    1.13    1.13</time>
   <time name="total">    1.39    1.41</time>
   <energy>
    <i name="e_fr_energy">    -79.30559836 </i>
    <i name="e_wo_entrp">    -79.30217585 </i>
    <i name="e_0_energy">    -79.30388710 </i>
   </energy>
  </scstep>
  <scstep>
   <time name="dav">    1.52    1.52</time>
   <time name="total">    1.78    1.80</time>
   <energy>
    <i name="e_fr_energy">    -79.30562207 </i>
    <i name="e_wo_entrp">    -79.30224417 </i>
    <i name="e_0_energy">    -79.30393312 </i>
   </energy>
  </scstep>
  <scstep>
   <time name="dav">    1.63    1.63</time>
   <time name="total">    1.90    1.91</time>
   <energy>
    <i name="e_fr_energy">    -79.30563825 </i>
    <i name="e_wo_entrp">    -79.30230143 </i>
    <i name="e_0_energy">    -79.30396984 </i>
   </energy>
  </scstep>
  <scstep>
   <time name="dav">    1.31    1.31</time>
   <time name="total">    1.57    1.59</time>
   <energy>
    <i name="e_fr_energy">    -79.30564536 </i>
    <i name="e_wo_entrp">    -79.30233359 </i>
    <i name="e_0_energy">    -79.30398948 </i>
   </energy>
  </scstep>
  <scstep>
   <time name="dav">    1.38    1.38</time>
   <time name="total">    1.64    1.65</time>
   <energy>
    <i name="e_fr_energy">    -79.30565391 </i>
    <i name="e_wo_entrp">    -79.30237992 </i>
    <i name="e_0_energy">    -79.30401692 </i>
   </energy>
  </scstep>
  <scstep>
   <time name="dav">    1.49    1.49</time>
   <time name="total">    1.75    1.77</time>
   <energy>
    <i name="e_fr_energy">    -79.30565785 </i>
    <i name="e_wo_entrp">    -79.30241204 </i>
    <i name="e_0_energy">    -79.30403494 </i>
   </energy>
  </scstep>
  <scstep>
   <time name="dav">    1.10    1.10</time>
   <time name="total">    1.36    1.38</time>
   <energy>
    <i name="e_fr_energy">    -79.30565921 </i>
    <i name="e_wo_entrp">    -79.30242619 </i>
    <i name="e_0_energy">    -79.30404270 </i>
   </energy>
  </scstep>
  <scstep>
   <time name="dav">    0.94    0.94</time>
   <time name="total">    1.04    1.06</time>
   <energy>
    <i name="alphaZ">    598.65364144 </i>
    <i name="ewald">  -8554.76946342 </i>
    <i name="hartreedc">  -3894.99517792 </i>
    <i name="XCdc">    543.43180092 </i>
    <i name="pawpsdc">  15575.95085529 </i>
    <i name="pawaedc"> -15941.31729313 </i>
    <i name="eentropy">     -0.00322222 </i>
    <i name="bandstr">   -801.26408321 </i>
    <i name="atom">  12395.00728236 </i>
    <i name="e_fr_energy">    -79.30565990 </i>
    <i name="e_wo_entrp">    -79.30243768 </i>
    <i name="e_0_energy">    -79.30404879 </i>
   </energy>
  </scstep>
  <structure>
   <crystal>
    <varray name="basis" >
     <v>       4.00000000       0.00000000       0.00000000 </v>
     <v>       0.00000000       8.00000000       0.00000000 </v>
     <v>       0.00000000       0.00000000       8.00000000 </v>
    </varray>
    <i name="volume">    256.00000000 </i>
    <varray name="rec_basis" >
     <v>       0.25000000       0.00000000       0.00000000 </v>
     <v>       0.00000000       0.12500000       0.00000000 </v>
     <v>       0.00000000       0.00000000       0.12500000 </v>
    </varray>
   </crystal>
   <varray name="positions" >
    <v>       0.00000000       0.75000000       0.75000000 </v>
    <v>       0.00000000       0.25000000       0.75000000 </v>
    <v>       0.00000000       0.75000000       0.25000000 </v>
    <v>       0.00000000       0.25000000       0.25000000 </v>
    <v>       0.50000000       0.00000000       0.00000000 </v>
    <v>       0.50000000       0.50000000       0.00000000 </v>
    <v>       0.50000000       0.00000000       0.50000000 </v>
    <v>       0.50000000       0.50000000       0.50000000 </v>
    <v>       0.50000000       0.50000000       0.75000000 </v>
    <v>       0.50000000       0.50000000       0.25000000 </v>
    <v>       0.00000000       0.00000000       0.50000000 </v>
    <v>       0.00000000       0.50000000       0.50000000 </v>
    <v>       0.50000000       0.75000000       0.00000000 </v>
    <v>       0.50000000       0.25000000       0.00000000 </v>
    <v>       0.50000000       0.75000000       0.50000000 </v>
    <v>       0.50000000       0.25000000       0.50000000 </v>
   </varray>
  </structure>
  <varray name="forces" >
   <v>       0.00000000      -1.50393343      -1.67335571 </v>
   <v>       0.00000000       1.50393343      -1.67335571 </v>
   <v>       0.00000000      -1.50393343       1.67335571 </v>
   <v>       0.00000000       1.50393343       1.67335571 </v>
   <v>       0.00000000       0.00000000       0.00000000 </v>
   <v>       0.00000000       0.00000000       0.00000000 </v>
   <v>       0.00000000       0.00000000       0.00000000 </v>
   <v>       0.00000000       0.00000000       0.00000000 </v>
   <v>       0.00000000       0.00000000       1.16878281 </v>
   <v>       0.00000000       0.00000000      -1.16878281 </v>
   <v>       0.00000000       0.00000000       0.00000000 </v>
   <v>       0.00000000       0.00000000       0.00000000 </v>
   <v>       0.00000000       1.95239544       0.00000000 </v>
   <v>       0.00000000      -1.95239544       0.00000000 </v>
   <v>       0.00000000       1.29993026       0.00000000 </v>
   <v>       0.00000000      -1.29993026       0.00000000 </v>
  </varray>
  <varray name="stress" >
   <v>     -99.12332968       0.00000000       0.00000000 </v>
   <v>       0.00000000     -90.35134008       0.00000000 </v>
   <v>       0.00000000       0.00000000    -103.59768858 </v>
  </varray>
  <energy>
   <i name="e_fr_energy">    -79.30565990 </i>
   <i name="e_wo_entrp">    -79.30404879 </i>
   <i name="e_0_energy">     -0.00322222 </i>
  </energy>
  <time name="totalsc">  116.33  117.32</time>
  <eigenvalues>
   <array>
    <dimension dim="1">band</dimension>
    <dimension dim="2">kpoint</dimension>
    <dimension dim="3">spin</dimension>
    <field>eigene</field>
    <field>occ</field>
    <set>
     <set comment="spin 1">
      <set comment="kpoint 1">
       <r>  -31.3824    1.0000 </r>
       <r>  -31.3689    1.0000 </r>
       <r>  -31.3686    1.0000 </r>
       <r>  -31.3560    1.0000 </r>
       <r>  -14.9986    1.0000 </r>
       <r>  -14.7032    1.0000 </r>
       <r>  -14.6576    1.0000 </r>
       <r>  -14.5077    1.0000 </r>
       <r>  -14.0604    1.0000 </r>
       <r>  -13.8542    1.0000 </r>
       <r>  -13.4745    1.0000 </r>
       <r>  -13.3914    1.0000 </r>
       <r>  -13.3640    1.0000 </r>
       <r>  -13.2759    1.0000 </r>
       <r>  -13.2665    1.0000 </r>
       <r>  -13.2604    1.0000 </r>
       <r>  -13.2484    1.0000 </r>
       <r>  -13.2333    1.0000 </r>
       <r>  -13.2251    1.0000 </r>
       <r>  -13.1980    1.0000 </r>
       <r>  -12.9236    1.0000 </r>
       <r>  -12.8997    1.0000 </r>
       <r>  -12.7370    1.0000 </r>
       <r>  -12.7345    1.0000 </r>
       <r>   -3.1721    1.0000 </r>
       <r>   -2.7322    1.0000 </r>
       <r>   -2.3953    1.0000 </r>
       <r>   -2.0775    1.0000 </r>
       <r>   -1.4932    1.0000 </r>
       <r>   -1.4386    1.0000 </r>
       <r>   -1.3853    1.0000 </r>
       <r>   -1.3653    1.0000 </r>
       <r>   -0.8982    1.0000 </r>
       <r>   -0.7821    1.0000 </r>
       <r>   -0.7807    1.0000 </r>
       <r>   -0.7716    1.0000 </r>
       <r>   -0.7372    1.0000 </r>
       <r>   -0.6914    1.0000 </r>
       <r>   -0.6898    1.0000 </r>
       <r>   -0.6717    1.0000 </r>
       <r>   -0.6435    1.0000 </r>
       <r>   -0.5786    1.0000 </r>
       <r>   -0.5783    1.0000 </r>
       <r>   -0.5655    1.0000 </r>
       <r>   -0.4767    1.0000 </r>
       <r>   -0.4155    1.0000 </r>
       <r>   -0.4003    1.0000 </r>
       <r>   -0.3213    1.0000 </r>
       <r>   -0.1077    1.0000 </r>
       <r>    0.0611    1.0000 </r>
       <r>    0.1037    1.0000 </r>
       <r>    0.3690    1.0000 </r>
       <r>    0.5875    1.0000 </r>
       <r>    0.8384    1.0000 </r>
       <r>    1.0351    1.0000 </r>
       <r>    1.2937    1.0000 </r>
       <r>    1.4428    1.0000 </r>
       <r>    1.4793    1.0000 </r>
       <r>    1.5726    1.0000 </r>
       <r>    1.7845    1.0000 </r>
       <r>    1.8532    1.0000 </r>
       <r>    1.9226    1.0000 </r>
       <r>    1.9541    1.0000 </r>
       <r>    2.0012    1.0000 </r>
       <r>    2.0019    1.0000 </r>
       <r>    2.0790    1.0000 </r>
       <r>    2.5111    1.0000 </r>
       <r>    2.6818    1.0000 </r>
       <r>    4.1913    0.0000 </r>
       <r>    4.6258    0.0000 </r>
       <r>    5.9431    0.0000 </r>
       <r>    6.2640    0.0000 </r>
       <r>    7.0284    0.0000 </r>
       <r>    7.2119    0.0000 </r>
       <r>    7.6775    0.0000 </r>
       <r>    8.0084    0.0000 </r>
       <r>    8.0840    0.0000 </r>
       <r>    8.2742    0.0000 </r>
       <r>    8.4055    0.0000 </r>
       <r>    8.9857    0.0000 </r>
       <r>    9.1267    0.0000 </r>
       <r>    9.2669    0.0000 </r>
       <r>    9.5878    0.0000 </r>
       <r>    9.6091    0.0000 </r>
       <r>    9.6276    0.0000 </r>
       <r>    9.7900    0.0000 </r>
       <r>    9.8069    0.0000 </r>
       <r>    9.9852    0.0000 </r>
      </set>
      <set comment="kpoint 2">
       <r>  -31.3777    1.0000 </r>
       <r>  -31.3645    1.0000 </r>
       <r>  -31.3643    1.0000 </r>
       <r>  -31.3519    1.0000 </r>
       <r>  -14.9301    1.0000 </r>
       <r>  -14.6602    1.0000 </r>
       <r>  -14.6595    1.0000 </r>
       <r>  -14.4389    1.0000 </r>
       <r>  -14.0207    1.0000 </r>
       <r>  -13.9948    1.0000 </r>
       <r>  -13.5344    1.0000 </r>
       <r>  -13.4362    1.0000 </r>
       <r>  -13.4047    1.0000 </r>
       <r>  -13.3820    1.0000 </r>
       <r>  -13.3552    1.0000 </r>
       <r>  -13.2799    1.0000 </r>
       <r>  -13.2639    1.0000 </r>
       <r>  -13.2363    1.0000 </r>
       <r>  -13.0775    1.0000 </r>
       <r>  -13.0094    1.0000 </r>
       <r>  -12.9002    1.0000 </r>
       <r>  -12.8512    1.0000 </r>
       <r>  -12.8481    1.0000 </r>
       <r>  -12.8184    1.0000 </r>
       <r>   -3.1439    1.0000 </r>
       <r>   -2.7692    1.0000 </r>
       <r>   -2.4036    1.0000 </r>
       <r>   -1.9693    1.0000 </r>
       <r>   -1.7464    1.0000 </r>
       <r>   -1.6720    1.0000 </r>
       <r>   -1.6435    1.0000 </r>
       <r>   -1.4968    1.0000 </r>
       <r>   -1.4210    1.0000 </r>
       <r>   -1.3901    1.0000 </r>
       <r>   -1.0998    1.0000 </r>
       <r>   -0.9523    1.0000 </r>
       <r>   -0.9021    1.0000 </r>
       <r>   -0.7937    1.0000 </r>
       <r>   -0.7262    1.0000 </r>
       <r>   -0.7184    1.0000 </r>
       <r>   -0.6880    1.0000 </r>
       <r>   -0.6615    1.0000 </r>
       <r>   -0.6021    1.0000 </r>
       <r>   -0.5764    1.0000 </r>
       <r>   -0.5123    1.0000 </r>
       <r>   -0.3823    1.0000 </r>
       <r>   -0.3069    1.0000 </r>
       <r>   -0.0468    1.0000 </r>
       <r>    0.0128    1.0000 </r>
       <r>    0.0671    1.0000 </r>
       <r>    0.6481    1.0000 </r>
       <r>    0.7380    1.0000 </r>
       <r>    0.8089    1.0000 </r>
       <r>    1.0139    1.0000 </r>
       <r>    1.1467    1.0000 </r>
       <r>    1.2950    1.0000 </r>
       <r>    1.3491    1.0000 </r>
       <r>    1.3859    1.0000 </r>
       <r>    1.5386    1.0000 </r>
       <r>    1.6496    1.0000 </r>
       <r>    1.6890    1.0000 </r>
       <r>    1.9303    1.0000 </r>
       <r>    2.0202    1.0000 </r>
       <r>    2.2361    1.0000 </r>
       <r>    2.2584    1.0000 </r>
       <r>    2.4577    1.0000 </r>
       <r>    2.5122    1.0000 </r>
       <r>    3.4164    0.0000 </r>
       <r>    4.4641    0.0000 </r>
       <r>    4.7456    0.0000 </r>
       <r>    5.7322    0.0000 </r>
       <r>    6.1599    0.0000 </r>
       <r>    7.0016    0.0000 </r>
       <r>    7.4711    0.0000 </r>
       <r>    7.5370    0.0000 </r>
       <r>    7.9854    0.0000 </r>
       <r>    8.2741    0.0000 </r>
       <r>    8.5285    0.0000 </r>
       <r>    8.5876    0.0000 </r>
       <r>    8.9357    0.0000 </r>
       <r>    9.2073    0.0000 </r>
       <r>    9.2584    0.0000 </r>
       <r>    9.6483    0.0000 </r>
       <r>    9.8014    0.0000 </r>
       <r>    9.9283    0.0000 </r>
       <r>    9.9411    0.0000 </r>
       <r>    9.9625    0.0000 </r>
       <r>   10.1729    0.0000 </r>
      </set>
      <set comment="kpoint 3">
       <r>  -31.3700    1.0000 </r>
       <r>  -31.3574    1.0000 </r>
       <r>  -31.3573    1.0000 </r>
       <r>  -31.3454    1.0000 </r>
       <r>  -14.9947    1.0000 </r>
       <r>  -14.6796    1.0000 </r>
       <r>  -14.3953    1.0000 </r>
       <r>  -14.2428    1.0000 </r>
       <r>  -13.9859    1.0000 </r>
       <r>  -13.9057    1.0000 </r>
       <r>  -13.8493    1.0000 </r>
       <r>  -13.5516    1.0000 </r>
       <r>  -13.4252    1.0000 </r>
       <r>  -13.4088    1.0000 </r>
       <r>  -13.3668    1.0000 </r>
       <r>  -13.3403    1.0000 </r>
       <r>  -13.3359    1.0000 </r>
       <r>  -13.2444    1.0000 </r>
       <r>  -13.2168    1.0000 </r>
       <r>  -13.0619    1.0000 </r>
       <r>  -12.9042    1.0000 </r>
       <r>  -12.8391    1.0000 </r>
       <r>  -12.7528    1.0000 </r>
       <r>  -12.7267    1.0000 </r>
       <r>   -3.1114    1.0000 </r>
       <r>   -2.9653    1.0000 </r>
       <r>   -2.6843    1.0000 </r>
       <r>   -2.4378    1.0000 </r>
       <r>   -2.0800    1.0000 </r>
       <r>   -2.0416    1.0000 </r>
       <r>   -1.8955    1.0000 </r>
       <r>   -1.8230    1.0000 </r>
       <r>   -1.5681    1.0000 </r>
       <r>   -1.4825    1.0000 </r>
       <r>   -1.3202    1.0000 </r>
       <r>   -1.2599    1.0000 </r>
       <r>   -0.9116    1.0000 </r>
       <r>   -0.8122    1.0000 </r>
       <r>   -0.7678    1.0000 </r>
       <r>   -0.7043    1.0000 </r>
       <r>   -0.6795    1.0000 </r>
       <r>   -0.6752    1.0000 </r>
       <r>   -0.6473    1.0000 </r>
       <r>   -0.6302    1.0000 </r>
       <r>   -0.5383    1.0000 </r>
       <r>   -0.2041    1.0000 </r>
       <r>   -0.1567    1.0000 </r>
       <r>   -0.1231    1.0000 </r>
       <r>    0.2904    1.0000 </r>
       <r>    0.4525    1.0000 </r>
       <r>    0.7365    1.0000 </r>
       <r>    0.8705    1.0000 </r>
       <r>    1.0135    1.0000 </r>
       <r>    1.1760    1.0000 </r>
       <r>    1.2083    1.0000 </r>
       <r>    1.2939    1.0000 </r>
       <r>    1.3117    1.0000 </r>
       <r>    1.3821    1.0000 </r>
       <r>    1.5583    1.0000 </r>
       <r>    1.6047    1.0000 </r>
       <r>    1.6545    1.0000 </r>
       <r>    1.8594    1.0000 </r>
       <r>    2.1645    1.0000 </r>
       <r>    2.3821    1.0000 </r>
       <r>    2.5376    1.0000 </r>
       <r>    2.6762    1.0000 </r>
       <r>    3.2378    0.0000 </r>
       <r>    3.9540    0.0000 </r>
       <r>    4.4615    0.0000 </r>
       <r>    4.6773    0.0000 </r>
       <r>    5.3889    0.0000 </r>
       <r>    5.7992    0.0000 </r>
       <r>    7.0772    0.0000 </r>
       <r>    7.5357    0.0000 </r>
       <r>    8.2458    0.0000 </r>
       <r>    8.4546    0.0000 </r>
       <r>    8.6134    0.0000 </r>
       <r>    9.0250    0.0000 </r>
       <r>    9.0463    0.0000 </r>
       <r>    9.1283    0.0000 </r>
       <r>    9.1410    0.0000 </r>
       <r>    9.4510    0.0000 </r>
       <r>    9.7528    0.0000 </r>
       <r>    9.9757    0.0000 </r>
       <r>   10.0704    0.0000 </r>
       <r>   10.2571    0.0000 </r>
       <r>   10.3798    0.0000 </r>
       <r>   10.5534    0.0000 </r>
      </set>
      <set comment="kpoint 4">
       <r>  -31.3790    1.0000 </r>
       <r>  -31.3723    1.0000 </r>
       <r>  -31.3654    1.0000 </r>
       <r>  -31.3591    1.0000 </r>
       <r>  -14.9371    1.0000 </r>
       <r>  -14.7849    1.0000 </r>
       <r>  -14.6329    1.0000 </r>
       <r>  -14.4870    1.0000 </r>
       <r>  -14.0205    1.0000 </r>
       <r>  -13.8445    1.0000 </r>
       <r>  -13.6709    1.0000 </r>
       <r>  -13.4553    1.0000 </r>
       <r>  -13.2880    1.0000 </r>
       <r>  -13.2690    1.0000 </r>
       <r>  -13.2552    1.0000 </r>
       <r>  -13.2540    1.0000 </r>
       <r>  -13.2398    1.0000 </r>
       <r>  -13.2187    1.0000 </r>
       <r>  -13.2147    1.0000 </r>
       <r>  -13.2045    1.0000 </r>
       <r>  -12.8759    1.0000 </r>
       <r>  -12.8728    1.0000 </r>
       <r>  -12.7534    1.0000 </r>
       <r>  -12.7397    1.0000 </r>
       <r>   -2.9298    1.0000 </r>
       <r>   -2.4919    1.0000 </r>
       <r>   -2.2977    1.0000 </r>
       <r>   -2.0275    1.0000 </r>
       <r>   -1.5399    1.0000 </r>
       <r>   -1.4376    1.0000 </r>
       <r>   -1.4275    1.0000 </r>
       <r>   -1.3362    1.0000 </r>
       <r>   -1.3360    1.0000 </r>
       <r>   -1.2910    1.0000 </r>
       <r>   -1.1363    1.0000 </r>
       <r>   -0.9756    1.0000 </r>
       <r>   -0.8957    1.0000 </r>
       <r>   -0.8542    1.0000 </r>
       <r>   -0.7715    1.0000 </r>
       <r>   -0.6867    1.0000 </r>
       <r>   -0.6457    1.0000 </r>
       <r>   -0.5221    1.0000 </r>
       <r>   -0.5096    1.0000 </r>
       <r>   -0.4775    1.0000 </r>
       <r>   -0.4057    1.0000 </r>
       <r>   -0.3899    1.0000 </r>
       <r>   -0.3540    1.0000 </r>
       <r>   -0.1381    1.0000 </r>
       <r>    0.0087    1.0000 </r>
       <r>    0.1155    1.0000 </r>
       <r>    0.4697    1.0000 </r>
       <r>    0.5195    1.0000 </r>
       <r>    0.7419    1.0000 </r>
       <r>    0.9145    1.0000 </r>
       <r>    0.9651    1.0000 </r>
       <r>    1.0262    1.0000 </r>
       <r>    1.4203    1.0000 </r>
       <r>    1.4543    1.0000 </r>
       <r>    1.6171    1.0000 </r>
       <r>    1.6979    1.0000 </r>
       <r>    1.8976    1.0000 </r>
       <r>    1.9564    1.0000 </r>
       <r>    1.9653    1.0000 </r>
       <r>    1.9764    1.0000 </r>
       <r>    2.0996    1.0000 </r>
       <r>    2.1778    1.0000 </r>
       <r>    2.4008    1.0000 </r>
       <r>    3.2949    0.0000 </r>
       <r>    4.2020    0.0000 </r>
       <r>    4.6461    0.0000 </r>
       <r>    5.7608    0.0000 </r>
       <r>    6.1010    0.0000 </r>
       <r>    7.0311    0.0000 </r>
       <r>    7.3044    0.0000 </r>
       <r>    7.5752    0.0000 </r>
       <r>    7.8665    0.0000 </r>
       <r>    8.0116    0.0000 </r>
       <r>    8.1584    0.0000 </r>
       <r>    8.3204    0.0000 </r>
       <r>    8.7301    0.0000 </r>
       <r>    8.8005    0.0000 </r>
       <r>    9.0137    0.0000 </r>
       <r>    9.5265    0.0000 </r>
       <r>    9.6661    0.0000 </r>
       <r>    9.7539    0.0000 </r>
       <r>    9.8079    0.0000 </r>
       <r>    9.8223    0.0000 </r>
       <r>   10.0732    0.0000 </r>
      </set>
      <set comment="kpoint 5">
       <r>  -31.3744    1.0000 </r>
       <r>  -31.3678    1.0000 </r>
       <r>  -31.3612    1.0000 </r>
       <r>  -31.3550    1.0000 </r>
       <r>  -14.8713    1.0000 </r>
       <r>  -14.7437    1.0000 </r>
       <r>  -14.5968    1.0000 </r>
       <r>  -14.4745    1.0000 </r>
       <r>  -13.9898    1.0000 </r>
       <r>  -13.9278    1.0000 </r>
       <r>  -13.7154    1.0000 </r>
       <r>  -13.4662    1.0000 </r>
       <r>  -13.4557    1.0000 </r>
       <r>  -13.3547    1.0000 </r>
       <r>  -13.2891    1.0000 </r>
       <r>  -13.2803    1.0000 </r>
       <r>  -13.2570    1.0000 </r>
       <r>  -13.2431    1.0000 </r>
       <r>  -13.0393    1.0000 </r>
       <r>  -12.9712    1.0000 </r>
       <r>  -12.9076    1.0000 </r>
       <r>  -12.8625    1.0000 </r>
       <r>  -12.8411    1.0000 </r>
       <r>  -12.8207    1.0000 </r>
       <r>   -2.9107    1.0000 </r>
       <r>   -2.4873    1.0000 </r>
       <r>   -2.3142    1.0000 </r>
       <r>   -1.9231    1.0000 </r>
       <r>   -1.7818    1.0000 </r>
       <r>   -1.6649    1.0000 </r>
       <r>   -1.6380    1.0000 </r>
       <r>   -1.5210    1.0000 </r>
       <r>   -1.4410    1.0000 </r>
       <r>   -1.3768    1.0000 </r>
       <r>   -1.3486    1.0000 </r>
       <r>   -1.2197    1.0000 </r>
       <r>   -1.1173    1.0000 </r>
       <r>   -1.0122    1.0000 </r>
       <r>   -1.0029    1.0000 </r>
       <r>   -0.9114    1.0000 </r>
       <r>   -0.8551    1.0000 </r>
       <r>   -0.7223    1.0000 </r>
       <r>   -0.7042    1.0000 </r>
       <r>   -0.6589    1.0000 </r>
       <r>   -0.4025    1.0000 </r>
       <r>   -0.2927    1.0000 </r>
       <r>   -0.2843    1.0000 </r>
       <r>    0.1434    1.0000 </r>
       <r>    0.2873    1.0000 </r>
       <r>    0.3674    1.0000 </r>
       <r>    0.7647    1.0000 </r>
       <r>    0.8358    1.0000 </r>
       <r>    0.9243    1.0000 </r>
       <r>    1.0180    1.0000 </r>
       <r>    1.0255    1.0000 </r>
       <r>    1.1807    1.0000 </r>
       <r>    1.3875    1.0000 </r>
       <r>    1.4253    1.0000 </r>
       <r>    1.5056    1.0000 </r>
       <r>    1.5420    1.0000 </r>
       <r>    1.5602    1.0000 </r>
       <r>    1.8319    1.0000 </r>
       <r>    2.0019    1.0000 </r>
       <r>    2.2654    1.0000 </r>
       <r>    2.3140    1.0000 </r>
       <r>    2.5916    1.0000 </r>
       <r>    3.1255    0.0000 </r>
       <r>    3.5066    0.0000 </r>
       <r>    4.2704    0.0000 </r>
       <r>    4.7330    0.0000 </r>
       <r>    5.8175    0.0000 </r>
       <r>    6.1026    0.0000 </r>
       <r>    7.0807    0.0000 </r>
       <r>    7.5716    0.0000 </r>
       <r>    7.6149    0.0000 </r>
       <r>    7.6349    0.0000 </r>
       <r>    8.0682    0.0000 </r>
       <r>    8.4261    0.0000 </r>
       <r>    8.6403    0.0000 </r>
       <r>    8.8986    0.0000 </r>
       <r>    9.0818    0.0000 </r>
       <r>    9.4440    0.0000 </r>
       <r>    9.4906    0.0000 </r>
       <r>    9.6059    0.0000 </r>
       <r>    9.7342    0.0000 </r>
       <r>    9.9400    0.0000 </r>
       <r>    9.9754    0.0000 </r>
       <r>    9.9784    0.0000 </r>
      </set>
      <set comment="kpoint 6">
       <r>  -31.3669    1.0000 </r>
       <r>  -31.3605    1.0000 </r>
       <r>  -31.3544    1.0000 </r>
       <r>  -31.3484    1.0000 </r>
       <r>  -14.9453    1.0000 </r>
       <r>  -14.7463    1.0000 </r>
       <r>  -14.3640    1.0000 </r>
       <r>  -14.2350    1.0000 </r>
       <r>  -13.9774    1.0000 </r>
       <r>  -13.9083    1.0000 </r>
       <r>  -13.8367    1.0000 </r>
       <r>  -13.5285    1.0000 </r>
       <r>  -13.5036    1.0000 </r>
       <r>  -13.4200    1.0000 </r>
       <r>  -13.4020    1.0000 </r>
       <r>  -13.3979    1.0000 </r>
       <r>  -13.2701    1.0000 </r>
       <r>  -13.2375    1.0000 </r>
       <r>  -13.2236    1.0000 </r>
       <r>  -13.0334    1.0000 </r>
       <r>  -12.8796    1.0000 </r>
       <r>  -12.8294    1.0000 </r>
       <r>  -12.7878    1.0000 </r>
       <r>  -12.7103    1.0000 </r>
       <r>   -2.8954    1.0000 </r>
       <r>   -2.7125    1.0000 </r>
       <r>   -2.6228    1.0000 </r>
       <r>   -2.3891    1.0000 </r>
       <r>   -2.0874    1.0000 </r>
       <r>   -1.9150    1.0000 </r>
       <r>   -1.8809    1.0000 </r>
       <r>   -1.7858    1.0000 </r>
       <r>   -1.5637    1.0000 </r>
       <r>   -1.5181    1.0000 </r>
       <r>   -1.4192    1.0000 </r>
       <r>   -1.3879    1.0000 </r>
       <r>   -1.2524    1.0000 </r>
       <r>   -1.1277    1.0000 </r>
       <r>   -1.1023    1.0000 </r>
       <r>   -1.0978    1.0000 </r>
       <r>   -0.8563    1.0000 </r>
       <r>   -0.7709    1.0000 </r>
       <r>   -0.7037    1.0000 </r>
       <r>   -0.6517    1.0000 </r>
       <r>   -0.2110    1.0000 </r>
       <r>   -0.2053    1.0000 </r>
       <r>   -0.0797    1.0000 </r>
       <r>    0.0891    1.0000 </r>
       <r>    0.4016    1.0000 </r>
       <r>    0.6496    1.0000 </r>
       <r>    0.6662    1.0000 </r>
       <r>    1.0253    1.0000 </r>
       <r>    1.0947    1.0000 </r>
       <r>    1.1740    1.0000 </r>
       <r>    1.2246    1.0000 </r>
       <r>    1.2389    1.0000 </r>
       <r>    1.3392    1.0000 </r>
       <r>    1.3459    1.0000 </r>
       <r>    1.4850    1.0000 </r>
       <r>    1.5364    1.0000 </r>
       <r>    1.7686    1.0000 </r>
       <r>    1.9301    1.0000 </r>
       <r>    2.1537    1.0000 </r>
       <r>    2.4338    1.0000 </r>
       <r>    2.5329    1.0000 </r>
       <r>    2.8470    0.2831 </r>
       <r>    3.7138    0.0000 </r>
       <r>    4.0849    0.0000 </r>
       <r>    4.1323    0.0000 </r>
       <r>    4.8617    0.0000 </r>
       <r>    5.3466    0.0000 </r>
       <r>    5.7210    0.0000 </r>
       <r>    7.0912    0.0000 </r>
       <r>    7.5117    0.0000 </r>
       <r>    8.2520    0.0000 </r>
       <r>    8.2981    0.0000 </r>
       <r>    8.5324    0.0000 </r>
       <r>    8.6079    0.0000 </r>
       <r>    8.6179    0.0000 </r>
       <r>    8.8444    0.0000 </r>
       <r>    9.0639    0.0000 </r>
       <r>    9.6004    0.0000 </r>
       <r>    9.6750    0.0000 </r>
       <r>    9.7241    0.0000 </r>
       <r>   10.0498    0.0000 </r>
       <r>   10.3741    0.0000 </r>
       <r>   10.4093    0.0000 </r>
       <r>   10.7637    0.0000 </r>
      </set>
      <set comment="kpoint 7">
       <r>  -31.3789    1.0000 </r>
       <r>  -31.3720    1.0000 </r>
       <r>  -31.3657    1.0000 </r>
       <r>  -31.3592    1.0000 </r>
       <r>  -14.9220    1.0000 </r>
       <r>  -14.7000    1.0000 </r>
       <r>  -14.6659    1.0000 </r>
       <r>  -14.5522    1.0000 </r>
       <r>  -14.0884    1.0000 </r>
       <r>  -13.9659    1.0000 </r>
       <r>  -13.5018    1.0000 </r>
       <r>  -13.3848    1.0000 </r>
       <r>  -13.3706    1.0000 </r>
       <r>  -13.2748    1.0000 </r>
       <r>  -13.2517    1.0000 </r>
       <r>  -13.2339    1.0000 </r>
       <r>  -13.2247    1.0000 </r>
       <r>  -13.2067    1.0000 </r>
       <r>  -13.1576    1.0000 </r>
       <r>  -13.1077    1.0000 </r>
       <r>  -12.9504    1.0000 </r>
       <r>  -12.9085    1.0000 </r>
       <r>  -12.8018    1.0000 </r>
       <r>  -12.7474    1.0000 </r>
       <r>   -3.0690    1.0000 </r>
       <r>   -2.7343    1.0000 </r>
       <r>   -2.2657    1.0000 </r>
       <r>   -1.9276    1.0000 </r>
       <r>   -1.5878    1.0000 </r>
       <r>   -1.4595    1.0000 </r>
       <r>   -1.3976    1.0000 </r>
       <r>   -1.3952    1.0000 </r>
       <r>   -1.2004    1.0000 </r>
       <r>   -0.8810    1.0000 </r>
       <r>   -0.8709    1.0000 </r>
       <r>   -0.7996    1.0000 </r>
       <r>   -0.7829    1.0000 </r>
       <r>   -0.7698    1.0000 </r>
       <r>   -0.7128    1.0000 </r>
       <r>   -0.6702    1.0000 </r>
       <r>   -0.6398    1.0000 </r>
       <r>   -0.6323    1.0000 </r>
       <r>   -0.5865    1.0000 </r>
       <r>   -0.5787    1.0000 </r>
       <r>   -0.4833    1.0000 </r>
       <r>   -0.4032    1.0000 </r>
       <r>   -0.3415    1.0000 </r>
       <r>   -0.1924    1.0000 </r>
       <r>   -0.0617    1.0000 </r>
       <r>    0.0548    1.0000 </r>
       <r>    0.1522    1.0000 </r>
       <r>    0.2912    1.0000 </r>
       <r>    0.8603    1.0000 </r>
       <r>    1.0320    1.0000 </r>
       <r>    1.1138    1.0000 </r>
       <r>    1.3121    1.0000 </r>
       <r>    1.3153    1.0000 </r>
       <r>    1.3797    1.0000 </r>
       <r>    1.5142    1.0000 </r>
       <r>    1.5893    1.0000 </r>
       <r>    1.8927    1.0000 </r>
       <r>    1.8962    1.0000 </r>
       <r>    1.9668    1.0000 </r>
       <r>    2.0887    1.0000 </r>
       <r>    2.1111    1.0000 </r>
       <r>    2.1453    1.0000 </r>
       <r>    2.4121    1.0000 </r>
       <r>    2.6346    1.0000 </r>
       <r>    4.2138    0.0000 </r>
       <r>    4.6971    0.0000 </r>
       <r>    6.0673    0.0000 </r>
       <r>    6.5562    0.0000 </r>
       <r>    7.1031    0.0000 </r>
       <r>    7.3640    0.0000 </r>
       <r>    7.7528    0.0000 </r>
       <r>    7.9800    0.0000 </r>
       <r>    7.9862    0.0000 </r>
       <r>    8.0221    0.0000 </r>
       <r>    8.6094    0.0000 </r>
       <r>    8.6235    0.0000 </r>
       <r>    8.8877    0.0000 </r>
       <r>    9.1783    0.0000 </r>
       <r>    9.6533    0.0000 </r>
       <r>    9.7474    0.0000 </r>
       <r>    9.7596    0.0000 </r>
       <r>    9.8056    0.0000 </r>
       <r>   10.0071    0.0000 </r>
       <r>   10.0825    0.0000 </r>
      </set>
      <set comment="kpoint 8">
       <r>  -31.3743    1.0000 </r>
       <r>  -31.3676    1.0000 </r>
       <r>  -31.3614    1.0000 </r>
       <r>  -31.3550    1.0000 </r>
       <r>  -14.9012    1.0000 </r>
       <r>  -14.6504    1.0000 </r>
       <r>  -14.6485    1.0000 </r>
       <r>  -14.4645    1.0000 </r>
       <r>  -14.0199    1.0000 </r>
       <r>  -13.9879    1.0000 </r>
       <r>  -13.6343    1.0000 </r>
       <r>  -13.4577    1.0000 </r>
       <r>  -13.4009    1.0000 </r>
       <r>  -13.3756    1.0000 </r>
       <r>  -13.3617    1.0000 </r>
       <r>  -13.3099    1.0000 </r>
       <r>  -13.2992    1.0000 </r>
       <r>  -13.1497    1.0000 </r>
       <r>  -13.0315    1.0000 </r>
       <r>  -13.0108    1.0000 </r>
       <r>  -12.8981    1.0000 </r>
       <r>  -12.8614    1.0000 </r>
       <r>  -12.8223    1.0000 </r>
       <r>  -12.8175    1.0000 </r>
       <r>   -3.0368    1.0000 </r>
       <r>   -2.7767    1.0000 </r>
       <r>   -2.2724    1.0000 </r>
       <r>   -1.8746    1.0000 </r>
       <r>   -1.7440    1.0000 </r>
       <r>   -1.7008    1.0000 </r>
       <r>   -1.6171    1.0000 </r>
       <r>   -1.5568    1.0000 </r>
       <r>   -1.4738    1.0000 </r>
       <r>   -1.3909    1.0000 </r>
       <r>   -1.1287    1.0000 </r>
       <r>   -1.0984    1.0000 </r>
       <r>   -0.9641    1.0000 </r>
       <r>   -0.8714    1.0000 </r>
       <r>   -0.8028    1.0000 </r>
       <r>   -0.7956    1.0000 </r>
       <r>   -0.7117    1.0000 </r>
       <r>   -0.7063    1.0000 </r>
       <r>   -0.6675    1.0000 </r>
       <r>   -0.5955    1.0000 </r>
       <r>   -0.4771    1.0000 </r>
       <r>   -0.3585    1.0000 </r>
       <r>   -0.2817    1.0000 </r>
       <r>   -0.1722    1.0000 </r>
       <r>   -0.0211    1.0000 </r>
       <r>    0.1871    1.0000 </r>
       <r>    0.5742    1.0000 </r>
       <r>    0.8029    1.0000 </r>
       <r>    1.0362    1.0000 </r>
       <r>    1.1668    1.0000 </r>
       <r>    1.1727    1.0000 </r>
       <r>    1.2510    1.0000 </r>
       <r>    1.2952    1.0000 </r>
       <r>    1.4165    1.0000 </r>
       <r>    1.4302    1.0000 </r>
       <r>    1.6568    1.0000 </r>
       <r>    1.7881    1.0000 </r>
       <r>    2.0171    1.0000 </r>
       <r>    2.0415    1.0000 </r>
       <r>    2.2441    1.0000 </r>
       <r>    2.3525    1.0000 </r>
       <r>    2.3635    1.0000 </r>
       <r>    2.5450    1.0000 </r>
       <r>    3.4227    0.0000 </r>
       <r>    4.4476    0.0000 </r>
       <r>    4.8050    0.0000 </r>
       <r>    5.7960    0.0000 </r>
       <r>    6.1300    0.0000 </r>
       <r>    7.1490    0.0000 </r>
       <r>    7.4723    0.0000 </r>
       <r>    7.5504    0.0000 </r>
       <r>    7.9975    0.0000 </r>
       <r>    8.1347    0.0000 </r>
       <r>    8.5332    0.0000 </r>
       <r>    8.6110    0.0000 </r>
       <r>    8.7902    0.0000 </r>
       <r>    8.8435    0.0000 </r>
       <r>    8.9569    0.0000 </r>
       <r>    9.5853    0.0000 </r>
       <r>    9.7759    0.0000 </r>
       <r>    9.9166    0.0000 </r>
       <r>   10.0659    0.0000 </r>
       <r>   10.1461    0.0000 </r>
       <r>   10.2327    0.0000 </r>
      </set>
      <set comment="kpoint 9">
       <r>  -31.3669    1.0000 </r>
       <r>  -31.3606    1.0000 </r>
       <r>  -31.3544    1.0000 </r>
       <r>  -31.3483    1.0000 </r>
       <r>  -14.9519    1.0000 </r>
       <r>  -14.6575    1.0000 </r>
       <r>  -14.4451    1.0000 </r>
       <r>  -14.3113    1.0000 </r>
       <r>  -13.9846    1.0000 </r>
       <r>  -13.9583    1.0000 </r>
       <r>  -13.7935    1.0000 </r>
       <r>  -13.5259    1.0000 </r>
       <r>  -13.4173    1.0000 </r>
       <r>  -13.3996    1.0000 </r>
       <r>  -13.3605    1.0000 </r>
       <r>  -13.3466    1.0000 </r>
       <r>  -13.3113    1.0000 </r>
       <r>  -13.2834    1.0000 </r>
       <r>  -13.1524    1.0000 </r>
       <r>  -13.0346    1.0000 </r>
       <r>  -12.8625    1.0000 </r>
       <r>  -12.8405    1.0000 </r>
       <r>  -12.8248    1.0000 </r>
       <r>  -12.7729    1.0000 </r>
       <r>   -3.0069    1.0000 </r>
       <r>   -2.9552    1.0000 </r>
       <r>   -2.6855    1.0000 </r>
       <r>   -2.3213    1.0000 </r>
       <r>   -2.0505    1.0000 </r>
       <r>   -2.0019    1.0000 </r>
       <r>   -1.8783    1.0000 </r>
       <r>   -1.7665    1.0000 </r>
       <r>   -1.5964    1.0000 </r>
       <r>   -1.5637    1.0000 </r>
       <r>   -1.3229    1.0000 </r>
       <r>   -1.2693    1.0000 </r>
       <r>   -1.0938    1.0000 </r>
       <r>   -0.8920    1.0000 </r>
       <r>   -0.8803    1.0000 </r>
       <r>   -0.8261    1.0000 </r>
       <r>   -0.7078    1.0000 </r>
       <r>   -0.6895    1.0000 </r>
       <r>   -0.6370    1.0000 </r>
       <r>   -0.6278    1.0000 </r>
       <r>   -0.5508    1.0000 </r>
       <r>   -0.2094    1.0000 </r>
       <r>   -0.1385    1.0000 </r>
       <r>   -0.0528    1.0000 </r>
       <r>    0.1927    1.0000 </r>
       <r>    0.2670    1.0000 </r>
       <r>    0.9089    1.0000 </r>
       <r>    1.0224    1.0000 </r>
       <r>    1.0675    1.0000 </r>
       <r>    1.0894    1.0000 </r>
       <r>    1.2509    1.0000 </r>
       <r>    1.2869    1.0000 </r>
       <r>    1.3323    1.0000 </r>
       <r>    1.4388    1.0000 </r>
       <r>    1.5062    1.0000 </r>
       <r>    1.5216    1.0000 </r>
       <r>    1.8046    1.0000 </r>
       <r>    1.9366    1.0000 </r>
       <r>    2.2598    1.0000 </r>
       <r>    2.2885    1.0000 </r>
       <r>    2.5672    1.0000 </r>
       <r>    2.6823    1.0000 </r>
       <r>    3.2056    0.0000 </r>
       <r>    4.0414    0.0000 </r>
       <r>    4.4636    0.0000 </r>
       <r>    5.0710    0.0000 </r>
       <r>    5.3152    0.0000 </r>
       <r>    5.8397    0.0000 </r>
       <r>    6.6461    0.0000 </r>
       <r>    7.5710    0.0000 </r>
       <r>    8.2030    0.0000 </r>
       <r>    8.4498    0.0000 </r>
       <r>    8.5899    0.0000 </r>
       <r>    8.6501    0.0000 </r>
       <r>    8.7848    0.0000 </r>
       <r>    8.8711    0.0000 </r>
       <r>    9.3357    0.0000 </r>
       <r>    9.5432    0.0000 </r>
       <r>    9.8467    0.0000 </r>
       <r>    9.9991    0.0000 </r>
       <r>   10.2038    0.0000 </r>
       <r>   10.2452    0.0000 </r>
       <r>   10.4704    0.0000 </r>
       <r>   10.5336    0.0000 </r>
      </set>
      <set comment="kpoint 10">
       <r>  -31.3756    1.0000 </r>
       <r>  -31.3690    1.0000 </r>
       <r>  -31.3688    1.0000 </r>
       <r>  -31.3624    1.0000 </r>
       <r>  -14.8647    1.0000 </r>
       <r>  -14.7414    1.0000 </r>
       <r>  -14.6490    1.0000 </r>
       <r>  -14.5668    1.0000 </r>
       <r>  -14.0453    1.0000 </r>
       <r>  -13.9437    1.0000 </r>
       <r>  -13.7024    1.0000 </r>
       <r>  -13.4672    1.0000 </r>
       <r>  -13.2933    1.0000 </r>
       <r>  -13.2453    1.0000 </r>
       <r>  -13.2312    1.0000 </r>
       <r>  -13.2274    1.0000 </r>
       <r>  -13.2132    1.0000 </r>
       <r>  -13.2103    1.0000 </r>
       <r>  -13.1411    1.0000 </r>
       <r>  -13.1205    1.0000 </r>
       <r>  -12.9033    1.0000 </r>
       <r>  -12.8754    1.0000 </r>
       <r>  -12.8196    1.0000 </r>
       <r>  -12.7610    1.0000 </r>
       <r>   -2.7410    1.0000 </r>
       <r>   -2.5112    1.0000 </r>
       <r>   -2.2110    1.0000 </r>
       <r>   -1.8845    1.0000 </r>
       <r>   -1.6307    1.0000 </r>
       <r>   -1.5203    1.0000 </r>
       <r>   -1.4101    1.0000 </r>
       <r>   -1.3970    1.0000 </r>
       <r>   -1.3108    1.0000 </r>
       <r>   -1.2986    1.0000 </r>
       <r>   -1.1609    1.0000 </r>
       <r>   -1.0723    1.0000 </r>
       <r>   -0.9771    1.0000 </r>
       <r>   -0.9108    1.0000 </r>
       <r>   -0.8245    1.0000 </r>
       <r>   -0.7737    1.0000 </r>
       <r>   -0.7661    1.0000 </r>
       <r>   -0.6452    1.0000 </r>
       <r>   -0.5110    1.0000 </r>
       <r>   -0.5086    1.0000 </r>
       <r>   -0.4814    1.0000 </r>
       <r>   -0.3562    1.0000 </r>
       <r>   -0.2289    1.0000 </r>
       <r>   -0.2235    1.0000 </r>
       <r>    0.1448    1.0000 </r>
       <r>    0.2368    1.0000 </r>
       <r>    0.4778    1.0000 </r>
       <r>    0.5079    1.0000 </r>
       <r>    0.9102    1.0000 </r>
       <r>    0.9808    1.0000 </r>
       <r>    1.0398    1.0000 </r>
       <r>    1.0928    1.0000 </r>
       <r>    1.2188    1.0000 </r>
       <r>    1.5026    1.0000 </r>
       <r>    1.5644    1.0000 </r>
       <r>    1.5903    1.0000 </r>
       <r>    1.8403    1.0000 </r>
       <r>    1.8922    1.0000 </r>
       <r>    1.9507    1.0000 </r>
       <r>    2.1254    1.0000 </r>
       <r>    2.1624    1.0000 </r>
       <r>    2.2911    1.0000 </r>
       <r>    2.4548    1.0000 </r>
       <r>    3.1657    0.0000 </r>
       <r>    4.2352    0.0000 </r>
       <r>    4.5079    0.0000 </r>
       <r>    5.8063    0.0000 </r>
       <r>    6.4478    0.0000 </r>
       <r>    7.3715    0.0000 </r>
       <r>    7.5951    0.0000 </r>
       <r>    7.7311    0.0000 </r>
       <r>    7.8420    0.0000 </r>
       <r>    7.9024    0.0000 </r>
       <r>    8.0802    0.0000 </r>
       <r>    8.3234    0.0000 </r>
       <r>    8.4830    0.0000 </r>
       <r>    8.8297    0.0000 </r>
       <r>    9.0260    0.0000 </r>
       <r>    9.4404    0.0000 </r>
       <r>    9.5996    0.0000 </r>
       <r>    9.7516    0.0000 </r>
       <r>    9.8531    0.0000 </r>
       <r>    9.9221    0.0000 </r>
       <r>   10.0552    0.0000 </r>
      </set>
      <set comment="kpoint 11">
       <r>  -31.3711    1.0000 </r>
       <r>  -31.3646    1.0000 </r>
       <r>  -31.3645    1.0000 </r>
       <r>  -31.3582    1.0000 </r>
       <r>  -14.8472    1.0000 </r>
       <r>  -14.7188    1.0000 </r>
       <r>  -14.5936    1.0000 </r>
       <r>  -14.4988    1.0000 </r>
       <r>  -13.9829    1.0000 </r>
       <r>  -13.9241    1.0000 </r>
       <r>  -13.7101    1.0000 </r>
       <r>  -13.6166    1.0000 </r>
       <r>  -13.4637    1.0000 </r>
       <r>  -13.3604    1.0000 </r>
       <r>  -13.3537    1.0000 </r>
       <r>  -13.3157    1.0000 </r>
       <r>  -13.1677    1.0000 </r>
       <r>  -13.1288    1.0000 </r>
       <r>  -13.0362    1.0000 </r>
       <r>  -12.9758    1.0000 </r>
       <r>  -12.8891    1.0000 </r>
       <r>  -12.8526    1.0000 </r>
       <r>  -12.8462    1.0000 </r>
       <r>  -12.8274    1.0000 </r>
       <r>   -2.7194    1.0000 </r>
       <r>   -2.5157    1.0000 </r>
       <r>   -2.2256    1.0000 </r>
       <r>   -1.8396    1.0000 </r>
       <r>   -1.7957    1.0000 </r>
       <r>   -1.6732    1.0000 </r>
       <r>   -1.6207    1.0000 </r>
       <r>   -1.5612    1.0000 </r>
       <r>   -1.4718    1.0000 </r>
       <r>   -1.4420    1.0000 </r>
       <r>   -1.3672    1.0000 </r>
       <r>   -1.2235    1.0000 </r>
       <r>   -1.1411    1.0000 </r>
       <r>   -1.0728    1.0000 </r>
       <r>   -1.0259    1.0000 </r>
       <r>   -0.9191    1.0000 </r>
       <r>   -0.9054    1.0000 </r>
       <r>   -0.8008    1.0000 </r>
       <r>   -0.7129    1.0000 </r>
       <r>   -0.6939    1.0000 </r>
       <r>   -0.6663    1.0000 </r>
       <r>   -0.3114    1.0000 </r>
       <r>   -0.2252    1.0000 </r>
       <r>   -0.0617    1.0000 </r>
       <r>    0.3514    1.0000 </r>
       <r>    0.4531    1.0000 </r>
       <r>    0.6543    1.0000 </r>
       <r>    0.8940    1.0000 </r>
       <r>    0.9762    1.0000 </r>
       <r>    1.0725    1.0000 </r>
       <r>    1.1905    1.0000 </r>
       <r>    1.2385    1.0000 </r>
       <r>    1.2830    1.0000 </r>
       <r>    1.3845    1.0000 </r>
       <r>    1.4807    1.0000 </r>
       <r>    1.6678    1.0000 </r>
       <r>    1.7571    1.0000 </r>
       <r>    2.0145    1.0000 </r>
       <r>    2.0165    1.0000 </r>
       <r>    2.1967    1.0000 </r>
       <r>    2.3343    1.0000 </r>
       <r>    2.6325    1.0000 </r>
       <r>    3.1454    0.0000 </r>
       <r>    3.3840    0.0000 </r>
       <r>    4.2615    0.0000 </r>
       <r>    4.6720    0.0000 </r>
       <r>    5.7794    0.0000 </r>
       <r>    6.0084    0.0000 </r>
       <r>    7.3440    0.0000 </r>
       <r>    7.5602    0.0000 </r>
       <r>    7.7598    0.0000 </r>
       <r>    7.9059    0.0000 </r>
       <r>    8.1033    0.0000 </r>
       <r>    8.5214    0.0000 </r>
       <r>    8.7056    0.0000 </r>
       <r>    8.9366    0.0000 </r>
       <r>    8.9890    0.0000 </r>
       <r>    9.2320    0.0000 </r>
       <r>    9.3719    0.0000 </r>
       <r>    9.5018    0.0000 </r>
       <r>    9.6563    0.0000 </r>
       <r>    9.7084    0.0000 </r>
       <r>    9.8611    0.0000 </r>
       <r>    9.9048    0.0000 </r>
      </set>
      <set comment="kpoint 12">
       <r>  -31.3638    1.0000 </r>
       <r>  -31.3575    1.0000 </r>
       <r>  -31.3575    1.0000 </r>
       <r>  -31.3514    1.0000 </r>
       <r>  -14.9011    1.0000 </r>
       <r>  -14.7232    1.0000 </r>
       <r>  -14.4020    1.0000 </r>
       <r>  -14.3244    1.0000 </r>
       <r>  -13.9975    1.0000 </r>
       <r>  -13.9412    1.0000 </r>
       <r>  -13.7677    1.0000 </r>
       <r>  -13.5414    1.0000 </r>
       <r>  -13.4832    1.0000 </r>
       <r>  -13.4235    1.0000 </r>
       <r>  -13.3967    1.0000 </r>
       <r>  -13.3236    1.0000 </r>
       <r>  -13.3044    1.0000 </r>
       <r>  -13.2329    1.0000 </r>
       <r>  -13.1798    1.0000 </r>
       <r>  -13.0007    1.0000 </r>
       <r>  -12.8620    1.0000 </r>
       <r>  -12.8537    1.0000 </r>
       <r>  -12.8280    1.0000 </r>
       <r>  -12.7564    1.0000 </r>
       <r>   -2.7347    1.0000 </r>
       <r>   -2.6981    1.0000 </r>
       <r>   -2.6033    1.0000 </r>
       <r>   -2.3600    1.0000 </r>
       <r>   -2.0339    1.0000 </r>
       <r>   -1.8853    1.0000 </r>
       <r>   -1.8640    1.0000 </r>
       <r>   -1.7419    1.0000 </r>
       <r>   -1.5669    1.0000 </r>
       <r>   -1.5152    1.0000 </r>
       <r>   -1.4767    1.0000 </r>
       <r>   -1.4486    1.0000 </r>
       <r>   -1.2767    1.0000 </r>
       <r>   -1.1614    1.0000 </r>
       <r>   -1.1199    1.0000 </r>
       <r>   -1.0793    1.0000 </r>
       <r>   -0.9112    1.0000 </r>
       <r>   -0.8751    1.0000 </r>
       <r>   -0.7136    1.0000 </r>
       <r>   -0.7083    1.0000 </r>
       <r>   -0.6292    1.0000 </r>
       <r>   -0.1486    1.0000 </r>
       <r>   -0.0185    1.0000 </r>
       <r>    0.1333    1.0000 </r>
       <r>    0.2685    1.0000 </r>
       <r>    0.5647    1.0000 </r>
       <r>    0.7288    1.0000 </r>
       <r>    1.0501    1.0000 </r>
       <r>    1.0585    1.0000 </r>
       <r>    1.1141    1.0000 </r>
       <r>    1.1824    1.0000 </r>
       <r>    1.2588    1.0000 </r>
       <r>    1.4488    1.0000 </r>
       <r>    1.4963    1.0000 </r>
       <r>    1.5344    1.0000 </r>
       <r>    1.7265    1.0000 </r>
       <r>    1.8995    1.0000 </r>
       <r>    2.0561    1.0000 </r>
       <r>    2.2235    1.0000 </r>
       <r>    2.3334    1.0000 </r>
       <r>    2.4510    1.0000 </r>
       <r>    3.0198    0.0000 </r>
       <r>    3.5411    0.0000 </r>
       <r>    4.0508    0.0000 </r>
       <r>    4.1278    0.0000 </r>
       <r>    4.9667    0.0000 </r>
       <r>    5.3220    0.0000 </r>
       <r>    5.7163    0.0000 </r>
       <r>    6.8013    0.0000 </r>
       <r>    7.7174    0.0000 </r>
       <r>    8.3697    0.0000 </r>
       <r>    8.3916    0.0000 </r>
       <r>    8.5607    0.0000 </r>
       <r>    8.6512    0.0000 </r>
       <r>    8.7543    0.0000 </r>
       <r>    9.0202    0.0000 </r>
       <r>    9.1059    0.0000 </r>
       <r>    9.3574    0.0000 </r>
       <r>    9.6918    0.0000 </r>
       <r>    9.7313    0.0000 </r>
       <r>    9.8227    0.0000 </r>
       <r>   10.0784    0.0000 </r>
       <r>   10.2517    0.0000 </r>
       <r>   10.3808    0.0000 </r>
      </set>
     </set>
     <set comment="spin 2">
      <set comment="kpoint 1">
       <r>  -31.3825    1.0000 </r>
       <r>  -31.3691    1.0000 </r>
       <r>  -31.3687    1.0000 </r>
       <r>  -31.3561    1.0000 </r>
       <r>  -15.0255    1.0000 </r>
       <r>  -14.7421    1.0000 </r>
       <r>  -14.5832    1.0000 </r>
       <r>  -14.5275    1.0000 </r>
       <r>  -14.0463    1.0000 </r>
       <r>  -13.7783    1.0000 </r>
       <r>  -13.4394    1.0000 </r>
       <r>  -13.3912    1.0000 </r>
       <r>  -13.3639    1.0000 </r>
       <r>  -13.2765    1.0000 </r>
       <r>  -13.2606    1.0000 </r>
       <r>  -13.2490    1.0000 </r>
       <r>  -13.2336    1.0000 </r>
       <r>  -13.2254    1.0000 </r>
       <r>  -13.1983    1.0000 </r>
       <r>  -13.0747    1.0000 </r>
       <r>  -12.9047    1.0000 </r>
       <r>  -12.8477    1.0000 </r>
       <r>  -12.6903    1.0000 </r>
       <r>  -12.6860    1.0000 </r>
       <r>   -3.2917    1.0000 </r>
       <r>   -2.6301    1.0000 </r>
       <r>   -2.1285    1.0000 </r>
       <r>   -2.0533    1.0000 </r>
       <r>   -1.5191    1.0000 </r>
       <r>   -1.2717    1.0000 </r>
       <r>   -1.2469    1.0000 </r>
       <r>   -1.1978    1.0000 </r>
       <r>   -0.9798    1.0000 </r>
       <r>   -0.8696    1.0000 </r>
       <r>   -0.7649    1.0000 </r>
       <r>   -0.7515    1.0000 </r>
       <r>   -0.7496    1.0000 </r>
       <r>   -0.7224    1.0000 </r>
       <r>   -0.7144    1.0000 </r>
       <r>   -0.7103    1.0000 </r>
       <r>   -0.6745    1.0000 </r>
       <r>   -0.6547    1.0000 </r>
       <r>   -0.5952    1.0000 </r>
       <r>   -0.5594    1.0000 </r>
       <r>   -0.5501    1.0000 </r>
       <r>   -0.5418    1.0000 </r>
       <r>   -0.3952    1.0000 </r>
       <r>   -0.1799    1.0000 </r>
       <r>   -0.1529    1.0000 </r>
       <r>    0.0294    1.0000 </r>
       <r>    0.3514    1.0000 </r>
       <r>    0.4624    1.0000 </r>
       <r>    0.6148    1.0000 </r>
       <r>    0.9062    1.0000 </r>
[...]
       <r>     2.0535     8.9398    62.5010 </r>
       <r>     2.2080     5.9700    63.4236 </r>
       <r>     2.3626     7.7185    64.6164 </r>
       <r>     2.5171     4.9652    65.3837 </r>
       <r>     2.6717     4.0441    66.0086 </r>
       <r>     2.8262     0.9668    66.1580 </r>
       <r>     2.9807     0.5701    66.2461 </r>
       <r>     3.1353     1.9171    66.5424 </r>
       <r>     3.2898     2.3485    66.9053 </r>
       <r>     3.4443     1.9526    67.2071 </r>
       <r>     3.5989     1.9066    67.5017 </r>
       <r>     3.7534     0.5605    67.5883 </r>
       <r>     3.9079     0.1035    67.6043 </r>
       <r>     4.0625     1.6026    67.8520 </r>
       <r>     4.2170     3.4600    68.3867 </r>
       <r>     4.3716     2.2556    68.7352 </r>
       <r>     4.5261     2.0636    69.0541 </r>
       <r>     4.6806     1.5827    69.2987 </r>
       <r>     4.8352     2.2515    69.6467 </r>
       <r>     4.9897     1.4204    69.8662 </r>
       <r>     5.1442     0.8551    69.9983 </r>
       <r>     5.2988     0.5413    70.0819 </r>
       <r>     5.4533     2.0474    70.3983 </r>
       <r>     5.6078     0.0124    70.4003 </r>
       <r>     5.7624     2.5302    70.7913 </r>
       <r>     5.9169     3.5356    71.3376 </r>
       <r>     6.0714     1.5772    71.5814 </r>
       <r>     6.2260     1.7116    71.8459 </r>
       <r>     6.3805     0.1507    71.8692 </r>
       <r>     6.5351     0.6345    71.9672 </r>
       <r>     6.6896     0.7253    72.0793 </r>
       <r>     6.8441     1.0828    72.2466 </r>
       <r>     6.9987     0.3569    72.3018 </r>
       <r>     7.1532     2.4773    72.6846 </r>
       <r>     7.3077     0.8255    72.8122 </r>
       <r>     7.4623     2.3341    73.1729 </r>
       <r>     7.6168     5.4450    74.0144 </r>
       <r>     7.7713     3.7172    74.5888 </r>
       <r>     7.9259     2.8033    75.0220 </r>
       <r>     8.0804     3.6149    75.5807 </r>
       <r>     8.2350     3.1216    76.0631 </r>
       <r>     8.3895     3.9780    76.6778 </r>
       <r>     8.5440     5.2053    77.4822 </r>
       <r>     8.6986     7.6403    78.6629 </r>
       <r>     8.8531     4.9755    79.4318 </r>
       <r>     9.0076     5.5444    80.2886 </r>
       <r>     9.1622     5.1068    81.0778 </r>
       <r>     9.3167     2.5753    81.4758 </r>
       <r>     9.4712     4.0659    82.1041 </r>
       <r>     9.6258     5.0647    82.8868 </r>
       <r>     9.7803     9.3020    84.3243 </r>
       <r>     9.9349     7.7092    85.5156 </r>
       <r>    10.0894     6.4244    86.5084 </r>
       <r>    10.2439     3.5959    87.0641 </r>
       <r>    10.3985     3.1151    87.5455 </r>
       <r>    10.5530     2.0477    87.8620 </r>
       <r>    10.7075     0.3503    87.9161 </r>
       <r>    10.8621     0.5414    87.9998 </r>
       <r>    11.0166     0.0016    88.0000 </r>
       <r>    11.1711     0.0000    88.0000 </r>
       <r>    11.3257     0.0000    88.0000 </r>
       <r>    11.4802     0.0000    88.0000 </r>
       <r>    11.6348     0.0000    88.0000 </r>
       <r>    11.7893     0.0000    88.0000 </r>
       <r>    11.9438     0.0000    88.0000 </r>
       <r>    12.0984     0.0000    88.0000 </r>
       <r>    12.2529     0.0000    88.0000 </r>
       <r>    12.4074     0.0000    88.0000 </r>
       <r>    12.5620     0.0000    88.0000 </r>
       <r>    12.7165     0.0000    88.0000 </r>
       <r>    12.8710     0.0000    88.0000 </r>
      </set>
      <set comment="spin 2">
       <r>   -33.4898     0.0000     0.0000 </r>
       <r>   -33.3353     0.0000     0.0000 </r>
       <r>   -33.1807     0.0000     0.0000 </r>
       <r>   -33.0262     0.0000     0.0000 </r>
       <r>   -32.8717     0.0000     0.0000 </r>
       <r>   -32.7171     0.0000     0.0000 </r>
       <r>   -32.5626     0.0000     0.0000 </r>
       <r>   -32.4081     0.0000     0.0000 </r>
       <r>   -32.2535     0.0000     0.0000 </r>
       <r>   -32.0990     0.0000     0.0000 </r>
       <r>   -31.9445     0.0000     0.0000 </r>
       <r>   -31.7899     0.0000     0.0000 </r>
       <r>   -31.6354     0.0000     0.0000 </r>
       <r>   -31.4809     0.0144     0.0022 </r>
       <r>   -31.3263    21.8096     3.3726 </r>
       <r>   -31.1718     4.0599     4.0000 </r>
       <r>   -31.0172     0.0000     4.0000 </r>
       <r>   -30.8627     0.0000     4.0000 </r>
       <r>   -30.7082     0.0000     4.0000 </r>
       <r>   -30.5536     0.0000     4.0000 </r>
       <r>   -30.3991     0.0000     4.0000 </r>
       <r>   -30.2446     0.0000     4.0000 </r>
       <r>   -30.0900     0.0000     4.0000 </r>
       <r>   -29.9355     0.0000     4.0000 </r>
       <r>   -29.7810     0.0000     4.0000 </r>
       <r>   -29.6264     0.0000     4.0000 </r>
       <r>   -29.4719     0.0000     4.0000 </r>
       <r>   -29.3173     0.0000     4.0000 </r>
       <r>   -29.1628     0.0000     4.0000 </r>
       <r>   -29.0083     0.0000     4.0000 </r>
       <r>   -28.8537     0.0000     4.0000 </r>
       <r>   -28.6992     0.0000     4.0000 </r>
       <r>   -28.5447     0.0000     4.0000 </r>
       <r>   -28.3901     0.0000     4.0000 </r>
       <r>   -28.2356     0.0000     4.0000 </r>
       <r>   -28.0811     0.0000     4.0000 </r>
       <r>   -27.9265     0.0000     4.0000 </r>
       <r>   -27.7720     0.0000     4.0000 </r>
       <r>   -27.6174     0.0000     4.0000 </r>
       <r>   -27.4629     0.0000     4.0000 </r>
       <r>   -27.3084     0.0000     4.0000 </r>
       <r>   -27.1538     0.0000     4.0000 </r>
       <r>   -26.9993     0.0000     4.0000 </r>
       <r>   -26.8448     0.0000     4.0000 </r>
       <r>   -26.6902     0.0000     4.0000 </r>
       <r>   -26.5357     0.0000     4.0000 </r>
       <r>   -26.3812     0.0000     4.0000 </r>
       <r>   -26.2266     0.0000     4.0000 </r>
       <r>   -26.0721     0.0000     4.0000 </r>
       <r>   -25.9175     0.0000     4.0000 </r>
       <r>   -25.7630     0.0000     4.0000 </r>
       <r>   -25.6085     0.0000     4.0000 </r>
       <r>   -25.4539     0.0000     4.0000 </r>
       <r>   -25.2994     0.0000     4.0000 </r>
       <r>   -25.1449     0.0000     4.0000 </r>
       <r>   -24.9903     0.0000     4.0000 </r>
       <r>   -24.8358     0.0000     4.0000 </r>
       <r>   -24.6813     0.0000     4.0000 </r>
       <r>   -24.5267     0.0000     4.0000 </r>
       <r>   -24.3722     0.0000     4.0000 </r>
       <r>   -24.2176     0.0000     4.0000 </r>
       <r>   -24.0631     0.0000     4.0000 </r>
       <r>   -23.9086     0.0000     4.0000 </r>
       <r>   -23.7540     0.0000     4.0000 </r>
       <r>   -23.5995     0.0000     4.0000 </r>
       <r>   -23.4450     0.0000     4.0000 </r>
       <r>   -23.2904     0.0000     4.0000 </r>
       <r>   -23.1359     0.0000     4.0000 </r>
       <r>   -22.9814     0.0000     4.0000 </r>
       <r>   -22.8268     0.0000     4.0000 </r>
       <r>   -22.6723     0.0000     4.0000 </r>
       <r>   -22.5178     0.0000     4.0000 </r>
       <r>   -22.3632     0.0000     4.0000 </r>
       <r>   -22.2087     0.0000     4.0000 </r>
       <r>   -22.0541     0.0000     4.0000 </r>
       <r>   -21.8996     0.0000     4.0000 </r>
       <r>   -21.7451     0.0000     4.0000 </r>
       <r>   -21.5905     0.0000     4.0000 </r>
       <r>   -21.4360     0.0000     4.0000 </r>
       <r>   -21.2815     0.0000     4.0000 </r>
       <r>   -21.1269     0.0000     4.0000 </r>
       <r>   -20.9724     0.0000     4.0000 </r>
       <r>   -20.8179     0.0000     4.0000 </r>
       <r>   -20.6633     0.0000     4.0000 </r>
       <r>   -20.5088     0.0000     4.0000 </r>
       <r>   -20.3542     0.0000     4.0000 </r>
       <r>   -20.1997     0.0000     4.0000 </r>
       <r>   -20.0452     0.0000     4.0000 </r>
       <r>   -19.8906     0.0000     4.0000 </r>
       <r>   -19.7361     0.0000     4.0000 </r>
       <r>   -19.5816     0.0000     4.0000 </r>
       <r>   -19.4270     0.0000     4.0000 </r>
       <r>   -19.2725     0.0000     4.0000 </r>
       <r>   -19.1180     0.0000     4.0000 </r>
       <r>   -18.9634     0.0000     4.0000 </r>
       <r>   -18.8089     0.0000     4.0000 </r>
       <r>   -18.6543     0.0000     4.0000 </r>
       <r>   -18.4998     0.0000     4.0000 </r>
       <r>   -18.3453     0.0000     4.0000 </r>
       <r>   -18.1907     0.0000     4.0000 </r>
       <r>   -18.0362     0.0000     4.0000 </r>
       <r>   -17.8817     0.0000     4.0000 </r>
       <r>   -17.7271     0.0000     4.0000 </r>
       <r>   -17.5726     0.0000     4.0000 </r>
       <r>   -17.4181     0.0000     4.0000 </r>
       <r>   -17.2635     0.0000     4.0000 </r>
       <r>   -17.1090     0.0000     4.0000 </r>
       <r>   -16.9544     0.0000     4.0000 </r>
       <r>   -16.7999     0.0000     4.0000 </r>
       <r>   -16.6454     0.0000     4.0000 </r>
       <r>   -16.4908     0.0000     4.0000 </r>
       <r>   -16.3363     0.0000     4.0000 </r>
       <r>   -16.1818     0.0000     4.0000 </r>
       <r>   -16.0272     0.0000     4.0000 </r>
       <r>   -15.8727     0.0000     4.0000 </r>
       <r>   -15.7182     0.0000     4.0000 </r>
       <r>   -15.5636     0.0000     4.0000 </r>
       <r>   -15.4091     0.0000     4.0000 </r>
       <r>   -15.2545     0.0000     4.0000 </r>
       <r>   -15.1000     0.0085     4.0013 </r>
       <r>   -14.9455     3.1096     4.4819 </r>
       <r>   -14.7909     4.9177     5.2418 </r>
       <r>   -14.6364     5.4313     6.0811 </r>
       <r>   -14.4819     4.7807     6.8199 </r>
       <r>   -14.3273     5.4922     7.6687 </r>
       <r>   -14.1728     1.8805     7.9593 </r>
       <r>   -14.0183     1.7999     8.2374 </r>
       <r>   -13.8637     8.3549     9.5286 </r>
       <r>   -13.7092     5.6587    10.4030 </r>
       <r>   -13.5547     3.7700    10.9856 </r>
       <r>   -13.4001    13.0034    12.9951 </r>
       <r>   -13.2456    21.8164    16.3666 </r>
       <r>   -13.0910    14.7679    18.6487 </r>
       <r>   -12.9365     6.6264    19.6728 </r>
       <r>   -12.7820    15.1316    22.0111 </r>
       <r>   -12.6274    12.6696    23.9691 </r>
       <r>   -12.4729     0.2003    24.0000 </r>
       <r>   -12.3184     0.0000    24.0000 </r>
       <r>   -12.1638     0.0000    24.0000 </r>
       <r>   -12.0093     0.0000    24.0000 </r>
       <r>   -11.8548     0.0000    24.0000 </r>
       <r>   -11.7002     0.0000    24.0000 </r>
       <r>   -11.5457     0.0000    24.0000 </r>
       <r>   -11.3911     0.0000    24.0000 </r>
       <r>   -11.2366     0.0000    24.0000 </r>
       <r>   -11.0821     0.0000    24.0000 </r>
       <r>   -10.9275     0.0000    24.0000 </r>
       <r>   -10.7730     0.0000    24.0000 </r>
       <r>   -10.6185     0.0000    24.0000 </r>
       <r>   -10.4639     0.0000    24.0000 </r>
       <r>   -10.3094     0.0000    24.0000 </r>
       <r>   -10.1549     0.0000    24.0000 </r>
       <r>   -10.0003     0.0000    24.0000 </r>
       <r>    -9.8458     0.0000    24.0000 </r>
       <r>    -9.6912     0.0000    24.0000 </r>
       <r>    -9.5367     0.0000    24.0000 </r>
       <r>    -9.3822     0.0000    24.0000 </r>
       <r>    -9.2276     0.0000    24.0000 </r>
       <r>    -9.0731     0.0000    24.0000 </r>
       <r>    -8.9186     0.0000    24.0000 </r>
       <r>    -8.7640     0.0000    24.0000 </r>
       <r>    -8.6095     0.0000    24.0000 </r>
       <r>    -8.4550     0.0000    24.0000 </r>
       <r>    -8.3004     0.0000    24.0000 </r>
       <r>    -8.1459     0.0000    24.0000 </r>
       <r>    -7.9913     0.0000    24.0000 </r>
       <r>    -7.8368     0.0000    24.0000 </r>
       <r>    -7.6823     0.0000    24.0000 </r>
       <r>    -7.5277     0.0000    24.0000 </r>
       <r>    -7.3732     0.0000    24.0000 </r>
       <r>    -7.2187     0.0000    24.0000 </r>
       <r>    -7.0641     0.0000    24.0000 </r>
       <r>    -6.9096     0.0000    24.0000 </r>
       <r>    -6.7551     0.0000    24.0000 </r>
       <r>    -6.6005     0.0000    24.0000 </r>
       <r>    -6.4460     0.0000    24.0000 </r>
       <r>    -6.2914     0.0000    24.0000 </r>
       <r>    -6.1369     0.0000    24.0000 </r>
       <r>    -5.9824     0.0000    24.0000 </r>
       <r>    -5.8278     0.0000    24.0000 </r>
       <r>    -5.6733     0.0000    24.0000 </r>
       <r>    -5.5188     0.0000    24.0000 </r>
       <r>    -5.3642     0.0000    24.0000 </r>
       <r>    -5.2097     0.0000    24.0000 </r>
       <r>    -5.0552     0.0000    24.0000 </r>
       <r>    -4.9006     0.0000    24.0000 </r>
       <r>    -4.7461     0.0000    24.0000 </r>
       <r>    -4.5915     0.0000    24.0000 </r>
       <r>    -4.4370     0.0000    24.0000 </r>
       <r>    -4.2825     0.0000    24.0000 </r>
       <r>    -4.1279     0.0000    24.0000 </r>
       <r>    -3.9734     0.0000    24.0000 </r>
       <r>    -3.8189     0.0000    24.0000 </r>
       <r>    -3.6643     0.0000    24.0000 </r>
       <r>    -3.5098     0.0000    24.0000 </r>
       <r>    -3.3553     0.0190    24.0029 </r>
       <r>    -3.2007     1.9396    24.3027 </r>
       <r>    -3.0462     0.1984    24.3333 </r>
       <r>    -2.8917     1.6578    24.5895 </r>
       <r>    -2.7371     4.6467    25.3076 </r>
       <r>    -2.5826     2.1219    25.6355 </r>
       <r>    -2.4280     1.9512    25.9371 </r>
       <r>    -2.2735     2.2993    26.2924 </r>
       <r>    -2.1190     1.3252    26.4972 </r>
       <r>    -1.9644     5.4486    27.3392 </r>
       <r>    -1.8099     8.9792    28.7268 </r>
       <r>    -1.6554    11.0808    30.4392 </r>
       <r>    -1.5008     5.7913    31.3342 </r>
       <r>    -1.3463    13.3073    33.3906 </r>
       <r>    -1.1918    11.1078    35.1072 </r>
       <r>    -1.0372    13.2057    37.1480 </r>
       <r>    -0.8827    15.5819    39.5559 </r>
       <r>    -0.7281    14.2870    41.7638 </r>
       <r>    -0.5736    16.6379    44.3349 </r>
       <r>    -0.4191     6.4030    45.3244 </r>
       <r>    -0.2645     6.1835    46.2800 </r>
       <r>    -0.1100     6.8379    47.3367 </r>
       <r>     0.0445     5.5945    48.2013 </r>
       <r>     0.1991     2.9604    48.6588 </r>
       <r>     0.3536     4.4150    49.3410 </r>
       <r>     0.5081     4.3314    50.0104 </r>
       <r>     0.6627     4.2288    50.6639 </r>
       <r>     0.8172     3.8765    51.2630 </r>
       <r>     0.9718     6.0634    52.2000 </r>
       <r>     1.1263     9.9685    53.7405 </r>
       <r>     1.2808    11.0099    55.4419 </r>
       <r>     1.4354    11.3991    57.2035 </r>
       <r>     1.5899     9.1497    58.6174 </r>
       <r>     1.7444     9.4643    60.0800 </r>
       <r>     1.8990     5.5277    60.9343 </r>
       <r>     2.0535     7.7468    62.1314 </r>
       <r>     2.2080     7.6749    63.3175 </r>
       <r>     2.3626     6.2679    64.2861 </r>
       <r>     2.5171     5.2205    65.0928 </r>
       <r>     2.6717     2.6877    65.5082 </r>
       <r>     2.8262     2.1507    65.8405 </r>
       <r>     2.9807     2.3245    66.1998 </r>
       <r>     3.1353     1.3565    66.4094 </r>
       <r>     3.2898     1.6516    66.6646 </r>
       <r>     3.4443     0.5271    66.7461 </r>
       <r>     3.5989     2.4792    67.1292 </r>
       <r>     3.7534     1.1306    67.3039 </r>
       <r>     3.9079     1.9424    67.6041 </r>
       <r>     4.0625     3.1109    68.0848 </r>
       <r>     4.2170     2.7243    68.5058 </r>
       <r>     4.3716     2.3257    68.8653 </r>
       <r>     4.5261     0.4970    68.9420 </r>
       <r>     4.6806     2.1375    69.2724 </r>
       <r>     4.8352     2.2772    69.6243 </r>
       <r>     4.9897     1.8148    69.9047 </r>
       <r>     5.1442     0.6163    70.0000 </r>
       <r>     5.2988     1.0597    70.1637 </r>
       <r>     5.4533     1.5275    70.3998 </r>
       <r>     5.6078     0.0015    70.4000 </r>
       <r>     5.7624     1.7320    70.6677 </r>
       <r>     5.9169     4.2614    71.3262 </r>
       <r>     6.0714     1.4901    71.5565 </r>
       <r>     6.2260     1.9003    71.8501 </r>
       <r>     6.3805     0.1126    71.8676 </r>
       <r>     6.5351     0.6652    71.9703 </r>
       <r>     6.6896     0.6672    72.0735 </r>
       <r>     6.8441     1.0477    72.2354 </r>
       <r>     6.9987     0.4309    72.3019 </r>
       <r>     7.1532     2.4319    72.6778 </r>
       <r>     7.3077     0.8352    72.8068 </r>
       <r>     7.4623     2.2630    73.1565 </r>
       <r>     7.6168     5.3607    73.9850 </r>
       <r>     7.7713     3.8005    74.5723 </r>
       <r>     7.9259     2.8373    75.0107 </r>
       <r>     8.0804     3.4288    75.5406 </r>
       <r>     8.2350     3.3148    76.0529 </r>
       <r>     8.3895     3.9657    76.6657 </r>
       <r>     8.5440     5.0320    77.4434 </r>
       <r>     8.6986     7.7743    78.6448 </r>
       <r>     8.8531     5.0018    79.4177 </r>
       <r>     9.0076     5.6055    80.2840 </r>
       <r>     9.1622     5.0556    81.0653 </r>
       <r>     9.3167     2.5442    81.4584 </r>
       <r>     9.4712     3.9611    82.0706 </r>
       <r>     9.6258     4.9887    82.8415 </r>
       <r>     9.7803     9.1783    84.2599 </r>
       <r>     9.9349     7.9015    85.4810 </r>
       <r>    10.0894     6.3255    86.4585 </r>
       <r>    10.2439     3.6691    87.0255 </r>
       <r>    10.3985     3.2596    87.5292 </r>
       <r>    10.5530     2.1425    87.8603 </r>
       <r>    10.7075     0.3826    87.9194 </r>
       <r>    10.8621     0.5208    87.9999 </r>
       <r>    11.0166     0.0007    88.0000 </r>
       <r>    11.1711     0.0000    88.0000 </r>
       <r>    11.3257     0.0000    88.0000 </r>
       <r>    11.4802     0.0000    88.0000 </r>
       <r>    11.6348     0.0000    88.0000 </r>
       <r>    11.7893     0.0000    88.0000 </r>
       <r>    11.9438     0.0000    88.0000 </r>
       <r>    12.0984     0.0000    88.0000 </r>
       <r>    12.2529     0.0000    88.0000 </r>
       <r>    12.4074     0.0000    88.0000 </r>
       <r>    12.5620     0.0000    88.0000 </r>
       <r>    12.7165     0.0000    88.0000 </r>
       <r>    12.8710     0.0000    88.0000 </r>
      </set>
     </set>
    </array>
   </total>
  </dos>
 </calculation>
 <structure name="finalpos" >
  <crystal>
   <varray name="basis" >
    <v>       4.00000000       0.00000000       0.00000000 </v>
    <v>       0.00000000       8.00000000       0.00000000 </v>
    <v>       0.00000000       0.00000000       8.00000000 </v>
   </varray>
   <i name="volume">    256.00000000 </i>
   <varray name="rec_basis" >
    <v>       0.25000000       0.00000000       0.00000000 </v>
    <v>       0.00000000       0.12500000       0.00000000 </v>
    <v>       0.00000000       0.00000000       0.12500000 </v>
   </varray>
  </crystal>
  <varray name="positions" >
   <v>       0.00000000       0.75000000       0.75000000 </v>
   <v>       0.00000000       0.25000000       0.75000000 </v>
   <v>       0.00000000       0.75000000       0.25000000 </v>
   <v>       0.00000000       0.25000000       0.25000000 </v>
   <v>       0.50000000       0.00000000       0.00000000 </v>
   <v>       0.50000000       0.50000000       0.00000000 </v>
   <v>       0.50000000       0.00000000       0.50000000 </v>
   <v>       0.50000000       0.50000000       0.50000000 </v>
   <v>       0.50000000       0.50000000       0.75000000 </v>
   <v>       0.50000000       0.50000000       0.25000000 </v>
   <v>       0.00000000       0.00000000       0.50000000 </v>
   <v>       0.00000000       0.50000000       0.50000000 </v>
   <v>       0.50000000       0.75000000       0.00000000 </v>
   <v>       0.50000000       0.25000000       0.00000000 </v>
   <v>       0.50000000       0.75000000       0.50000000 </v>
   <v>       0.50000000       0.25000000       0.50000000 </v>
  </varray>
 </structure>
</modeling>
