<?xml version="1.0" encoding="ISO-8859-1"?>
<modeling>
 <generator>
  <i name="program" type="string">vasp </i>
  <i name="version" type="string">5.3.5  </i>
  <i name="subversion" type="string">31Mar14 (build Jun 20 2014 13:15:13) complex                          parallel </i>
  <i name="platform" type="string">LinuxIFC </i>
  <i name="date" type="string">2025 12 12 </i>
  <i name="time" type="string">11:53:42 </i>
 </generator>
 <incar>
  <i type="string" name="PREC">accurate</i>
  <i type="int" name="IALGO">    38</i>
  <i type="logical" name="ADDGRID"> T  </i>
  <i type="int" name="ISPIN">     2</i>
  <i type="int" name="NELM">   100</i>
  <i type="int" name="NELMIN">     4</i>
  <i name="EDIFF">      0.00000100</i>
  <i name="ENCUT">    500.00000000</i>
  <i type="logical" name="LREAL"> F  </i>
  <i type="int" name="ISMEAR">     0</i>
  <i name="SIGMA">      0.05000000</i>
  <i type="logical" name="LWAVE"> F  </i>
  <i type="logical" name="LCHARG"> F  </i>
  <i type="int" name="NELM">   100</i>
  <i type="logical" name="LDAU"> T  </i>
  <v name="LDAUU">      0.00000000      4.00000000      0.00000000</v>
  <v name="LDAUJ">      0.00000000      0.00000000      0.00000000</v>
 </incar>
 <kpoints>
  <generation param="Auto">
   <i name="subdivisionlength">     20.00000000 </i>
   <v type="int" name="divisions">       3        5        3 </v>
   <v name="usershift">      0.00000000       0.00000000       0.00000000 </v>
   <v name="genvec1">      0.33333333       0.00000000       0.00000000 </v>
   <v name="genvec2">      0.00000000       0.20000000       0.00000000 </v>
   <v name="genvec3">      0.00000000       0.00000000       0.33333333 </v>
   <v name="shift">      0.00000000       0.00000000       0.00000000 </v>
  </generation>
  <varray name="kpointlist" >
   <v>       0.00000000       0.00000000       0.00000000 </v>
   <v>       0.33333333       0.00000000       0.00000000 </v>
   <v>       0.00000000       0.20000000       0.00000000 </v>
   <v>       0.33333333       0.20000000       0.00000000 </v>
   <v>       0.00000000       0.40000000       0.00000000 </v>
   <v>       0.33333333       0.40000000       0.00000000 </v>
   <v>       0.00000000       0.00000000       0.33333333 </v>
   <v>       0.33333333       0.00000000       0.33333333 </v>
   <v>      -0.33333333       0.00000000       0.33333333 </v>
   <v>       0.00000000       0.20000000       0.33333333 </v>
   <v>       0.33333333       0.20000000       0.33333333 </v>
   <v>      -0.33333333       0.20000000       0.33333333 </v>
   <v>       0.00000000       0.40000000       0.33333333 </v>
   <v>       0.33333333       0.40000000       0.33333333 </v>
   <v>      -0.33333333       0.40000000       0.33333333 </v>
  </varray>
  <varray name="weights" >
   <v>       0.02222222 </v>
   <v>       0.04444444 </v>
   <v>       0.04444444 </v>
   <v>       0.08888889 </v>
   <v>       0.04444444 </v>
   <v>       0.08888889 </v>
   <v>       0.04444444 </v>
   <v>       0.04444444 </v>
   <v>       0.04444444 </v>
   <v>       0.08888889 </v>
   <v>       0.08888889 </v>
   <v>       0.08888889 </v>
   <v>       0.08888889 </v>
   <v>       0.08888889 </v>
   <v>       0.08888889 </v>
  </varray>
 </kpoints>
 <parameters>
  <separator name="general" >
   <i type="string" name="SYSTEM">unknown system</i>
   <i type="logical" name="LCOMPAT"> F  </i>
  </separator>
  <separator name="electronic" >
   <i type="string" name="PREC">accura</i>
   <i name="ENMAX">    500.00000000</i>
   <i name="ENAUG">    586.98000000</i>
   <i name="EDIFF">      0.00000100</i>
   <i type="int" name="IALGO">    38</i>
   <i type="int" name="IWAVPR">    10</i>
   <i type="int" name="NBANDS">    92</i>
   <i name="NELECT">    138.00000000</i>
   <i type="int" name="TURBO">     0</i>
   <i type="int" name="IRESTART">     0</i>
   <i type="int" name="NREBOOT">     0</i>
   <i type="int" name="NMIN">     0</i>
   <i name="EREF">      0.00000000</i>
   <separator name="electronic smearing" >
    <i type="int" name="ISMEAR">     0</i>
    <i name="SIGMA">      0.05000000</i>
    <i name="KSPACING">      0.50000000</i>
    <i type="logical" name="KGAMMA"> T  </i>
   </separator>
   <separator name="electronic projectors" >
    <i type="logical" name="LREAL"> F  </i>
    <v name="ROPT">      0.00000000      0.00000000      0.00000000</v>
    <i type="int" name="LMAXPAW">  -100</i>
    <i type="int" name="LMAXMIX">     2</i>
    <i type="logical" name="NLSPLINE"> F  </i>
   </separator>
   <separator name="electronic startup" >
    <i type="int" name="ISTART">     0</i>
    <i type="int" name="ICHARG">     2</i>
    <i type="int" name="INIWAV">     1</i>
   </separator>
   <separator name="electronic spin" >
    <i type="int" name="ISPIN">     2</i>
    <i type="logical" name="LNONCOLLINEAR"> F  </i>
    <v name="MAGMOM">      1.00000000      1.00000000      1.00000000      1.00000000      1.00000000      1.00000000      1.00000000      1.00000000      1.00000000      1.00000000      1.00000000      1.00000000      1.00000000      1.00000000      1.00000000      1.00000000      1.00000000</v>
    <i name="NUPDOWN">     -1.00000000</i>
    <i type="logical" name="LSORBIT"> F  </i>
    <v name="SAXIS">      0.00000000      0.00000000      1.00000000</v>
    <i type="logical" name="LSPIRAL"> F  </i>
    <v name="QSPIRAL">      0.00000000      0.00000000      0.00000000</v>
    <i type="logical" name="LZEROZ"> F  </i>
   </separator>
   <separator name="electronic exchange-correlation" >
    <i type="logical" name="LASPH"> F  </i>
    <i type="logical" name="LMETAGGA"> F  </i>
   </separator>
   <separator name="electronic convergence" >
    <i type="int" name="NELM">   100</i>
    <i type="int" name="NELMDL">    -5</i>
    <i type="int" name="NELMIN">     4</i>
    <i name="ENINI">    500.00000000</i>
    <separator name="electronic convergence detail" >
     <i type="logical" name="LDIAG"> T  </i>
     <i type="logical" name="LSUBROT"> F  </i>
     <i name="WEIMIN">      0.00000000</i>
     <i name="EBREAK">      0.00000000</i>
     <i name="DEPER">      0.30000000</i>
     <i type="int" name="NRMM">     4</i>
     <i name="TIME">      0.40000000</i>
    </separator>
   </separator>
   <separator name="electronic mixer" >
    <i name="AMIX">      0.40000000</i>
    <i name="BMIX">      1.00000000</i>
    <i name="AMIN">      0.10000000</i>
    <i name="AMIX_MAG">      1.60000000</i>
    <i name="BMIX_MAG">      1.00000000</i>
    <separator name="electronic mixer details" >
     <i type="int" name="IMIX">     4</i>
     <i type="int" name="MAXMIX">   -45</i>
     <i name="WC">    100.00000000</i>
     <i type="int" name="INIMIX">     1</i>
     <i type="int" name="MIXPRE">     1</i>
     <i type="int" name="MREMOVE">     5</i>
    </separator>
   </separator>
   <separator name="electronic dipolcorrection" >
    <i type="logical" name="LDIPOL"> F  </i>
    <i type="logical" name="LMONO"> F  </i>
    <i type="int" name="IDIPOL">     0</i>
    <i name="EPSILON">      1.00000000</i>
    <v name="DIPOL">   -100.00000000   -100.00000000   -100.00000000</v>
    <i name="EFIELD">      0.00000000</i>
   </separator>
  </separator>
  <separator name="grids" >
   <i type="int" name="NGX">    60</i>
   <i type="int" name="NGY">    30</i>
   <i type="int" name="NGZ">    70</i>
   <i type="int" name="NGXF">   120</i>
   <i type="int" name="NGYF">    60</i>
   <i type="int" name="NGZF">   140</i>
   <i type="logical" name="ADDGRID"> T  </i>
  </separator>
  <separator name="ionic" >
   <i type="int" name="NSW">     0</i>
   <i type="int" name="IBRION">    -1</i>
   <i type="int" name="ISIF">     2</i>
   <i name="PSTRESS">      0.00000000</i>
   <i name="EDIFFG">      0.00001000</i>
   <i type="int" name="NFREE">     0</i>
   <i name="POTIM">      0.50000000</i>
   <i name="SMASS">     -3.00000000</i>
   <i name="SCALEE">      1.00000000</i>
  </separator>
  <separator name="ionic md" >
   <i name="TEBEG">      0.00010000</i>
   <i name="TEEND">      0.00010000</i>
   <i type="int" name="NBLOCK">     1</i>
   <i type="int" name="KBLOCK">     1</i>
   <i type="int" name="NPACO">   256</i>
   <i name="APACO">     16.00000000</i>
  </separator>
  <separator name="symmetry" >
   <i type="int" name="ISYM">     2</i>
   <i name="SYMPREC">      0.00001000</i>
  </separator>
  <separator name="dos" >
   <i type="logical" name="LORBIT"> F  </i>
   <v name="RWIGS">     -1.00000000     -1.00000000     -1.00000000</v>
   <i type="int" name="NEDOS">   301</i>
   <i name="EMIN">     10.00000000</i>
   <i name="EMAX">    -10.00000000</i>
   <i name="EFERMI">      0.00000000</i>
  </separator>
  <separator name="writing" >
   <i type="int" name="NWRITE">     2</i>
   <i type="logical" name="LWAVE"> F  </i>
   <i type="logical" name="LCHARG"> F  </i>
   <i type="logical" name="LPARD"> F  </i>
   <i type="logical" name="LVTOT"> F  </i>
   <i type="logical" name="LVHAR"> F  </i>
   <i type="logical" name="LELF"> F  </i>
   <i type="logical" name="LOPTICS"> F  </i>
   <v name="STM">      0.00000000      0.00000000      0.00000000      0.00000000      0.00000000      0.00000000      0.00000000</v>
  </separator>
  <separator name="performance" >
   <i type="int" name="NPAR">     4</i>
   <i type="int" name="NSIM">     4</i>
   <i type="int" name="NBLK">    -1</i>
   <i type="logical" name="LPLANE"> T  </i>
   <i type="logical" name="LSCALAPACK"> T  </i>
   <i type="logical" name="LSCAAWARE"> F  </i>
   <i type="logical" name="LSCALU"> F  </i>
   <i type="logical" name="LASYNC"> F  </i>
   <i type="logical" name="LORBITALREAL"> F  </i>
  </separator>
  <separator name="miscellaneous" >
   <i type="int" name="IDIOT">     3</i>
   <i type="logical" name="LMUSIC"> F  </i>
   <v name="POMASS">     87.62000000     63.54600000     16.00000000</v>
   <v name="DARWINR">      0.00000000      0.00000000      0.00000000</v>
   <v name="DARWINV">      1.00000000      1.00000000      1.00000000</v>
   <i type="logical" name="LCORR"> T  </i>
  </separator>
  <i type="logical" name="GGA_COMPAT"> T  </i>
  <i type="logical" name="LBERRY"> F  </i>
  <i type="int" name="ICORELEVEL">     0</i>
  <i type="logical" name="LDAU"> T  </i>
  <v type="int" name="LDAUTYPE">     2</v>
  <v type="int" name="LDAUL">     2</v>
  <v name="LDAUU">      0.00000000</v>
  <v name="LDAUJ">      0.00000000</v>
  <i type="int" name="LDAUPRINT">     0</i>
  <i type="int" name="I_CONSTRAINED_M">     0</i>
  <separator name="electronic exchange-correlation" >
   <i type="string" name="GGA">--</i>
   <i type="int" name="VOSKOWN">     0</i>
   <i type="logical" name="LHFCALC"> F  </i>
   <i type="string" name="PRECFOCK"></i>
   <i type="logical" name="LSYMGRAD"> F  </i>
   <i type="logical" name="LHFONE"> F  </i>
   <i type="logical" name="LRHFCALC"> F  </i>
   <i type="logical" name="LTHOMAS"> F  </i>
   <i type="logical" name="LMODELHF"> F  </i>
   <i name="ENCUT4O">     -1.00000000</i>
   <i type="int" name="EXXOEP">     0</i>
   <i type="int" name="FOURORBIT">     0</i>
   <i name="AEXX">      0.00000000</i>
   <i name="HFALPHA">      0.00000000</i>
   <i name="MCALPHA">      0.00000000</i>
   <i name="ALDAX">      1.00000000</i>
   <i name="AGGAX">      1.00000000</i>
   <i name="ALDAC">      1.00000000</i>
   <i name="AGGAC">      1.00000000</i>
   <i type="int" name="NKREDX">     1</i>
   <i type="int" name="NKREDY">     1</i>
   <i type="int" name="NKREDZ">     1</i>
   <i type="logical" name="SHIFTRED"> F  </i>
   <i type="logical" name="ODDONLY"> F  </i>
   <i type="logical" name="EVENONLY"> F  </i>
   <i type="int" name="LMAXFOCK">     0</i>
   <i type="int" name="NMAXFOCKAE">     0</i>
   <i type="logical" name="LFOCKAEDFT"> F  </i>
   <i name="HFSCREEN">      0.00000000</i>
   <i name="HFSCREENC">      0.00000000</i>
   <i type="int" name="NBANDSGWLOW">     0</i>
  </separator>
  <separator name="vdW DFT" >
   <i type="logical" name="LUSE_VDW"> F  </i>
   <i name="Zab_VDW">     -0.84910000</i>
   <i name="PARAM1">      0.12340000</i>
   <i name="PARAM2">      1.00000000</i>
   <i name="PARAM3">      0.00000000</i>
  </separator>
  <separator name="model GW" >
   <i type="int" name="MODEL_GW">     0</i>
   <i name="MODEL_EPS0">      9.03529412</i>
   <i name="MODEL_ALPHA">      1.00000000</i>
  </separator>
  <separator name="linear response parameters" >
   <i type="logical" name="LEPSILON"> F  </i>
   <i type="logical" name="LRPA"> F  </i>
   <i type="logical" name="LNABLA"> F  </i>
   <i type="logical" name="LVEL"> F  </i>
   <i type="int" name="KINTER">     0</i>
   <i name="CSHIFT">      0.10000000</i>
   <i name="OMEGAMAX">     -1.00000000</i>
   <i name="DEG_THRESHOLD">      0.00200000</i>
  </separator>
  <separator name="orbital magnetization" >
   <i type="logical" name="NUCIND"> F  </i>
   <v name="MAGPOS">      0.00000000      0.00000000      0.00000000</v>
   <i type="logical" name="LNICSALL"> T  </i>
   <i type="logical" name="ORBITALMAG"> F  </i>
   <i type="logical" name="LMAGBLOCH"> F  </i>
   <i type="logical" name="LCHIMAG"> F  </i>
   <i type="logical" name="LGAUGE"> T  </i>
   <i type="int" name="MAGATOM">     0</i>
   <v name="MAGDIPOL">      0.00000000      0.00000000      0.00000000</v>
   <v name="AVECCONST">      0.00000000      0.00000000      0.00000000</v>
  </separator>
  <separator name="response functions" >
   <i type="logical" name="LADDER"> F  </i>
   <i type="logical" name="LFXC"> F  </i>
   <i type="logical" name="LHARTREE"> T  </i>
   <i type="int" name="IBSE">     0</i>
   <i type="logical" name="LTCTE"> F  </i>
   <i type="logical" name="LTETE"> F  </i>
   <i type="logical" name="LTRIPLET"> F  </i>
   <i type="logical" name="LFXCEPS"> F  </i>
   <i type="logical" name="LFXHEG"> F  </i>
   <i type="logical" name="L2ORDER"> F  </i>
   <i type="logical" name="LUSEW"> F  </i>
   <i name="ENCUTGW">     -2.00000000</i>
   <i name="ENCUTGWSOFT">     -2.00000000</i>
   <i name="ENCUTLF">     -1.00000000</i>
   <i type="int" name="LMAXMP2">    -1</i>
   <i name="SCISSOR">      0.00000000</i>
   <i type="int" name="NOMEGA">     0</i>
   <i type="int" name="NOMEGAR">     0</i>
   <i type="int" name="NBANDSGW">    -1</i>
   <i type="int" name="NBANDSO">    -1</i>
   <i type="int" name="NBANDSV">    -1</i>
   <i type="int" name="NELM">   100</i>
   <i type="int" name="DIM">     3</i>
   <i type="int" name="ANTIRES">     0</i>
   <i name="OMEGAMAX">    -30.00000000</i>
   <i name="OMEGAMIN">    -30.00000000</i>
   <i name="OMEGATL">   -200.00000000</i>
   <i type="int" name="OMEGAGRID">     0</i>
   <i name="CSHIFT">     -0.10000000</i>
   <i type="logical" name="SELFENERGY"> F  </i>
   <i type="logical" name="LSPECTRAL"> F  </i>
   <i type="logical" name="ODDONLYGW"> F  </i>
   <i type="logical" name="EVENONLYGW"> F  </i>
   <i type="int" name="NKREDLFX">     1</i>
   <i type="int" name="NKREDLFY">     1</i>
   <i type="int" name="NKREDLFZ">     1</i>
   <i type="int" name="MAXMEM">  1800</i>
   <i type="int" name="TELESCOPE">     0</i>
   <i type="int" name="TAUPAR">     1</i>
  </separator>
  <separator name="External order field" >
   <i name="OFIELD_KAPPA">      0.00000000</i>
   <v name="OFIELD_K">      0.00000000      0.00000000      0.00000000</v>
   <i name="OFIELD_Q6_NEAR">      0.00000000</i>
   <i name="OFIELD_Q6_FAR">      0.00000000</i>
   <i name="OFIELD_A">      0.00000000</i>
  </separator>
 </parameters>
 <atominfo>
  <atoms>      17 </atoms>
  <types>       3 </types>
  <array name="atoms" >
   <dimension dim="1">ion</dimension>
   <field type="string">element</field>
   <field type="int">atomtype</field>
   <set>
    <rc><c>Sr</c><c>   1</c></rc>
    <rc><c>Sr</c><c>   1</c></rc>
    <rc><c>Sr</c><c>   1</c></rc>
    <rc><c>Sr</c><c>   1</c></rc>
    <rc><c>Cu</c><c>   2</c></rc>
    <rc><c>Cu</c><c>   2</c></rc>
    <rc><c>Cu</c><c>   2</c></rc>
    <rc><c>Cu</c><c>   2</c></rc>
    <rc><c>O </c><c>   3</c></rc>
    <rc><c>O </c><c>   3</c></rc>
    <rc><c>O </c><c>   3</c></rc>
    <rc><c>O </c><c>   3</c></rc>
    <rc><c>O </c><c>   3</c></rc>
    <rc><c>O </c><c>   3</c></rc>
    <rc><c>O </c><c>   3</c></rc>
    <rc><c>O </c><c>   3</c></rc>
    <rc><c>O </c><c>   3</c></rc>
   </set>
  </array>
  <array name="atomtypes" >
   <dimension dim="1">type</dimension>
   <field type="int">atomspertype</field>
   <field type="string">element</field>
   <field>mass</field>
   <field>valence</field>
   <field type="string">pseudopotential</field>
   <set>
    <rc><c>   4</c><c>Sr</c><c>     87.62000000</c><c>     10.00000000</c><c>  PAW_PBE Sr_sv 07Sep2000               </c></rc>
    <rc><c>   4</c><c>Cu</c><c>     63.54600000</c><c>     11.00000000</c><c>  PAW_PBE Cu 22Jun2005                  </c></rc>
    <rc><c>   9</c><c>O </c><c>     16.00000000</c><c>      6.00000000</c><c>  PAW_PBE O_s 07Sep2000                 </c></rc>
   </set>
  </array>
 </atominfo>
 <structure name="initialpos" >
  <crystal>
   <varray name="basis" >
    <v>       8.00000000       0.00000000       0.00000000 </v>
    <v>       0.00000000       4.00000000       0.00000000 </v>
    <v>      -4.00000000       0.00000000       8.00000000 </v>
   </varray>
   <i name="volume">    256.00000000 </i>
   <varray name="rec_basis" >
    <v>       0.12500000       0.00000000       0.06250000 </v>
    <v>       0.00000000       0.25000000       0.00000000 </v>
    <v>       0.00000000       0.00000000       0.12500000 </v>
   </varray>
  </crystal>
  <varray name="positions" >
   <v>       0.75000000       0.00000000       0.00000000 </v>
   <v>       0.50000000       0.00000000       0.50000000 </v>
   <v>       0.25000000       0.00000000       0.00000000 </v>
   <v>       0.00000000       0.00000000       0.50000000 </v>
   <v>       0.87500000       0.50000000       0.75000000 </v>
   <v>       0.62500000       0.50000000       0.25000000 </v>
   <v>       0.37500000       0.50000000       0.75000000 </v>
   <v>       0.12500000       0.50000000       0.25000000 </v>
   <v>       0.75000000       0.50000000       0.50000000 </v>
   <v>       0.50000000       0.50000000       0.00000000 </v>
   <v>       0.25000000       0.50000000       0.50000000 </v>
   <v>       0.87500000       0.00000000       0.75000000 </v>
   <v>       0.62500000       0.00000000       0.25000000 </v>
   <v>       0.37500000       0.00000000       0.75000000 </v>
   <v>       0.12500000       0.00000000       0.25000000 </v>
   <v>       0.12500000       0.50000000       0.75000000 </v>
   <v>       0.87500000       0.50000000       0.25000000 </v>
  </varray>
 </structure>
 <calculation>
  <scstep>
   <time name="dav">    1.92    1.92</time>
   <time name="total">    2.05    2.06</time>
   <energy>
    <i name="alphaZ">    635.64916683 </i>
    <i name="ewald">  -9071.11541604 </i>
    <i name="hartreedc">  -3865.08180557 </i>
    <i name="XCdc">    571.21601105 </i>
    <i name="pawpsdc">  10532.98817047 </i>
    <i name="pawaedc"> -10865.93268589 </i>
    <i name="eentropy">     -0.00505560 </i>
    <i name="bandstr">    978.96136178 </i>
    <i name="atom">  12827.37956309 </i>
    <i name="e_fr_energy">   1744.05931012 </i>
    <i name="e_wo_entrp">   1744.06436572 </i>
    <i name="e_0_energy">   1744.06183792 </i>
   </energy>
  </scstep>
  <scstep>
   <time name="dav">    2.03    2.03</time>
   <time name="total">    2.03    2.04</time>
   <energy>
    <i name="e_fr_energy">    156.81692494 </i>
    <i name="e_wo_entrp">    156.82441458 </i>
    <i name="e_0_energy">    156.82066976 </i>
   </energy>
  </scstep>
  <scstep>
   <time name="dav">    2.02    2.02</time>
   <time name="total">    2.02    2.03</time>
   <energy>
    <i name="e_fr_energy">    -86.52880984 </i>
    <i name="e_wo_entrp">    -86.51317194 </i>
    <i name="e_0_energy">    -86.52099089 </i>
   </energy>
  </scstep>
  <scstep>
   <time name="dav">    2.67    2.67</time>
   <time name="total">    2.67    2.69</time>
   <energy>
    <i name="e_fr_energy">   -105.38009946 </i>
    <i name="e_wo_entrp">   -105.35793353 </i>
    <i name="e_0_energy">   -105.36901650 </i>
   </energy>
  </scstep>
  <scstep>
   <time name="dav">    3.11    3.11</time>
   <time name="total">    3.34    3.35</time>
   <energy>
    <i name="e_fr_energy">   -106.47963705 </i>
    <i name="e_wo_entrp">   -106.45749210 </i>
    <i name="e_0_energy">   -106.46856458 </i>
   </energy>
  </scstep>
  <scstep>
   <time name="dav">    2.57    2.57</time>
   <time name="total">    2.92    2.93</time>
   <energy>
    <i name="e_fr_energy">    -98.53248407 </i>
    <i name="e_wo_entrp">    -98.51101330 </i>
    <i name="e_0_energy">    -98.52174868 </i>
   </energy>
  </scstep>
  <scstep>
   <time name="dav">    2.55    2.55</time>
   <time name="total">    2.89    2.90</time>
   <energy>
    <i name="e_fr_energy">    -85.06090047 </i>
    <i name="e_wo_entrp">    -85.04940755 </i>
    <i name="e_0_energy">    -85.05515401 </i>
   </energy>
  </scstep>
  <scstep>
   <time name="dav">    2.72    2.72</time>
   <time name="total">    3.07    3.08</time>
   <energy>
    <i name="e_fr_energy">    -85.27294476 </i>
    <i name="e_wo_entrp">    -85.25988164 </i>
    <i name="e_0_energy">    -85.26641320 </i>
   </energy>
  </scstep>
  <scstep>
   <time name="dav">    2.67    2.67</time>
   <time name="total">    3.02    3.03</time>
   <energy>
    <i name="e_fr_energy">    -84.35341102 </i>
    <i name="e_wo_entrp">    -84.34868406 </i>
    <i name="e_0_energy">    -84.35104754 </i>
   </energy>
  </scstep>
  <scstep>
   <time name="dav">    2.75    2.75</time>
   <time name="total">    3.10    3.11</time>
   <energy>
    <i name="e_fr_energy">    -84.17972956 </i>
    <i name="e_wo_entrp">    -84.17482160 </i>
    <i name="e_0_energy">    -84.17727558 </i>
   </energy>
  </scstep>
  <scstep>
   <time name="dav">    2.72    2.72</time>
   <time name="total">    3.07    3.08</time>
   <energy>
    <i name="e_fr_energy">    -84.09246630 </i>
    <i name="e_wo_entrp">    -84.08582758 </i>
    <i name="e_0_energy">    -84.08914694 </i>
   </energy>
  </scstep>
  <scstep>
   <time name="dav">    2.66    2.66</time>
   <time name="total">    3.01    3.03</time>
   <energy>
    <i name="e_fr_energy">    -84.11061413 </i>
    <i name="e_wo_entrp">    -84.10480529 </i>
    <i name="e_0_energy">    -84.10770971 </i>
   </energy>
  </scstep>
  <scstep>
   <time name="dav">    2.82    2.82</time>
   <time name="total">    3.17    3.18</time>
   <energy>
    <i name="e_fr_energy">    -84.10949692 </i>
    <i name="e_wo_entrp">    -84.10396231 </i>
    <i name="e_0_energy">    -84.10672962 </i>
   </energy>
  </scstep>
  <scstep>
   <time name="dav">    2.47    2.47</time>
   <time name="total">    2.82    2.83</time>
   <energy>
    <i name="e_fr_energy">    -84.10974374 </i>
    <i name="e_wo_entrp">    -84.10434143 </i>
    <i name="e_0_energy">    -84.10704259 </i>
   </energy>
  </scstep>
  <scstep>
   <time name="dav">    2.51    2.51</time>
   <time name="total">    2.86    2.87</time>
   <energy>
    <i name="e_fr_energy">    -84.11017402 </i>
    <i name="e_wo_entrp">    -84.10477024 </i>
    <i name="e_0_energy">    -84.10747213 </i>
   </energy>
  </scstep>
  <scstep>
   <time name="dav">    2.71    2.71</time>
   <time name="total">    3.06    3.07</time>
   <energy>
    <i name="e_fr_energy">    -84.11038456 </i>
    <i name="e_wo_entrp">    -84.10498996 </i>
    <i name="e_0_energy">    -84.10768726 </i>
   </energy>
  </scstep>
  <scstep>
   <time name="dav">    2.69    2.69</time>
   <time name="total">    3.04    3.05</time>
   <energy>
    <i name="e_fr_energy">    -84.11037918 </i>
    <i name="e_wo_entrp">    -84.10504105 </i>
    <i name="e_0_energy">    -84.10771011 </i>
   </energy>
  </scstep>
  <scstep>
   <time name="dav">    2.63    2.63</time>
   <time name="total">    2.98    2.99</time>
   <energy>
    <i name="e_fr_energy">    -84.11039360 </i>
    <i name="e_wo_entrp">    -84.10507308 </i>
    <i name="e_0_energy">    -84.10773334 </i>
   </energy>
  </scstep>
  <scstep>
   <time name="dav">    2.56    2.56</time>
   <time name="total">    2.91    2.92</time>
   <energy>
    <i name="e_fr_energy">    -84.11039555 </i>
    <i name="e_wo_entrp">    -84.10506809 </i>
    <i name="e_0_energy">    -84.10773182 </i>
   </energy>
  </scstep>
  <scstep>
   <time name="dav">    1.86    1.86</time>
   <time name="total">    2.21    2.22</time>
   <energy>
    <i name="e_fr_energy">    -84.11039709 </i>
    <i name="e_wo_entrp">    -84.10506951 </i>
    <i name="e_0_energy">    -84.10773330 </i>
   </energy>
  </scstep>
  <scstep>
   <time name="dav">    1.54    1.54</time>
   <time name="total">    1.67    1.68</time>
   <energy>
    <i name="alphaZ">    635.64916683 </i>
    <i name="ewald">  -9071.11541604 </i>
    <i name="hartreedc">  -3853.83852358 </i>
    <i name="XCdc">    571.16918910 </i>
    <i name="pawpsdc">  16303.92031960 </i>
    <i name="pawaedc"> -16675.08769605 </i>
    <i name="eentropy">     -0.00532730 </i>
    <i name="bandstr">   -822.18167251 </i>
    <i name="atom">  12827.37956309 </i>
    <i name="e_fr_energy">    -84.11039686 </i>
    <i name="e_wo_entrp">    -84.10506956 </i>
    <i name="e_0_energy">    -84.10773321 </i>
   </energy>
  </scstep>
  <structure>
   <crystal>
    <varray name="basis" >
     <v>       8.00000000       0.00000000       0.00000000 </v>
     <v>       0.00000000       4.00000000       0.00000000 </v>
     <v>      -4.00000000       0.00000000       8.00000000 </v>
    </varray>
    <i name="volume">    256.00000000 </i>
    <varray name="rec_basis" >
     <v>       0.12500000       0.00000000       0.06250000 </v>
     <v>       0.00000000       0.25000000       0.00000000 </v>
     <v>       0.00000000       0.00000000       0.12500000 </v>
    </varray>
   </crystal>
   <varray name="positions" >
    <v>       0.75000000       0.00000000       0.00000000 </v>
    <v>       0.50000000       0.00000000       0.50000000 </v>
    <v>       0.25000000       0.00000000       0.00000000 </v>
    <v>       0.00000000       0.00000000       0.50000000 </v>
    <v>       0.87500000       0.50000000       0.75000000 </v>
    <v>       0.62500000       0.50000000       0.25000000 </v>
    <v>       0.37500000       0.50000000       0.75000000 </v>
    <v>       0.12500000       0.50000000       0.25000000 </v>
    <v>       0.75000000       0.50000000       0.50000000 </v>
    <v>       0.50000000       0.50000000       0.00000000 </v>
    <v>       0.25000000       0.50000000       0.50000000 </v>
    <v>       0.87500000       0.00000000       0.75000000 </v>
    <v>       0.62500000       0.00000000       0.25000000 </v>
    <v>       0.37500000       0.00000000       0.75000000 </v>
    <v>       0.12500000       0.00000000       0.25000000 </v>
    <v>       0.12500000       0.50000000       0.75000000 </v>
    <v>       0.87500000       0.50000000       0.25000000 </v>
   </varray>
  </structure>
  <varray name="forces" >
   <v>      -1.31953159       0.00000000       1.37539893 </v>
   <v>       0.00000000       0.00000000       0.00000000 </v>
   <v>       1.31953159       0.00000000      -1.37539893 </v>
   <v>       0.00000000       0.00000000       0.00000000 </v>
   <v>       1.22728702       0.00000000      -0.88821162 </v>
   <v>       0.94637399       0.00000000       0.36324233 </v>
   <v>      -0.94637399       0.00000000      -0.36324233 </v>
   <v>      -1.22728702       0.00000000       0.88821162 </v>
   <v>      -1.19523235       0.00000000      -0.92802220 </v>
   <v>       0.00000000       0.00000000       0.00000000 </v>
   <v>       1.19523235       0.00000000       0.92802220 </v>
   <v>      -1.18968745       0.00000000       1.17267511 </v>
   <v>      -1.06765386       0.00000000      -0.13325444 </v>
   <v>       1.06765386       0.00000000       0.13325444 </v>
   <v>       1.18968745       0.00000000      -1.17267511 </v>
   <v>      -0.71381556       0.00000000       0.90484544 </v>
   <v>       0.71381556       0.00000000      -0.90484544 </v>
  </varray>
  <varray name="stress" >
   <v>     -98.76840681       0.00000000      17.11143032 </v>
   <v>       0.00000000     -90.02488316       0.00000000 </v>
   <v>      17.11143061       0.00000000     -87.85010240 </v>
  </varray>
  <energy>
   <i name="e_fr_energy">    -84.11039686 </i>
   <i name="e_wo_entrp">    -84.10773321 </i>
   <i name="e_0_energy">     -0.00532730 </i>
  </energy>
  <time name="totalsc">   61.77   62.08</time>
  <eigenvalues>
   <array>
    <dimension dim="1">band</dimension>
    <dimension dim="2">kpoint</dimension>
    <dimension dim="3">spin</dimension>
    <field>eigene</field>
    <field>occ</field>
    <set>
     <set comment="spin 1">
      <set comment="kpoint 1">
       <r>  -31.3893    1.0000 </r>
       <r>  -31.3759    1.0000 </r>
       <r>  -31.2823    1.0000 </r>
       <r>  -30.0650    1.0000 </r>
       <r>  -14.9090    1.0000 </r>
       <r>  -14.8129    1.0000 </r>
       <r>  -14.7236    1.0000 </r>
       <r>  -14.6572    1.0000 </r>
       <r>  -13.9456    1.0000 </r>
       <r>  -13.8656    1.0000 </r>
       <r>  -13.8054    1.0000 </r>
       <r>  -13.6880    1.0000 </r>
       <r>  -13.5919    1.0000 </r>
       <r>  -13.4018    1.0000 </r>
       <r>  -13.3741    1.0000 </r>
       <r>  -13.2729    1.0000 </r>
       <r>  -13.2648    1.0000 </r>
       <r>  -13.2395    1.0000 </r>
       <r>  -13.1031    1.0000 </r>
       <r>  -12.9830    1.0000 </r>
       <r>  -12.9210    1.0000 </r>
       <r>  -12.8152    1.0000 </r>
       <r>  -11.9888    1.0000 </r>
       <r>  -11.8546    1.0000 </r>
       <r>  -11.8308    1.0000 </r>
       <r>   -2.5317    1.0000 </r>
       <r>   -2.2538    1.0000 </r>
       <r>   -2.2256    1.0000 </r>
       <r>   -1.9955    1.0000 </r>
       <r>   -1.6876    1.0000 </r>
       <r>   -1.6616    1.0000 </r>
       <r>   -1.4814    1.0000 </r>
       <r>   -1.3352    1.0000 </r>
       <r>   -1.3218    1.0000 </r>
       <r>   -1.2119    1.0000 </r>
       <r>   -1.2043    1.0000 </r>
       <r>   -0.9292    1.0000 </r>
       <r>   -0.9160    1.0000 </r>
       <r>   -0.8104    1.0000 </r>
       <r>   -0.7821    1.0000 </r>
       <r>   -0.7670    1.0000 </r>
       <r>   -0.7600    1.0000 </r>
       <r>   -0.6431    1.0000 </r>
       <r>   -0.6369    1.0000 </r>
       <r>   -0.5912    1.0000 </r>
       <r>   -0.5039    1.0000 </r>
       <r>   -0.4655    1.0000 </r>
       <r>   -0.4461    1.0000 </r>
       <r>   -0.3580    1.0000 </r>
       <r>    0.1346    1.0000 </r>
       <r>    0.2684    1.0000 </r>
       <r>    0.2787    1.0000 </r>
       <r>    0.3221    1.0000 </r>
       <r>    0.3833    1.0000 </r>
       <r>    0.4162    1.0000 </r>
       <r>    0.6892    1.0000 </r>
       <r>    0.7018    1.0000 </r>
       <r>    0.9822    1.0000 </r>
       <r>    1.0782    1.0000 </r>
       <r>    1.3167    1.0000 </r>
       <r>    1.3856    1.0000 </r>
       <r>    1.5085    1.0000 </r>
       <r>    1.6493    1.0000 </r>
       <r>    1.6497    1.0000 </r>
       <r>    1.7335    1.0000 </r>
       <r>    1.7877    1.0000 </r>
       <r>    1.8172    1.0000 </r>
       <r>    1.8410    1.0000 </r>
       <r>    1.9796    1.0000 </r>
       <r>    2.0621    1.0000 </r>
       <r>    2.5505    0.1067 </r>
       <r>    2.6559    0.0000 </r>
       <r>    3.4906    0.0000 </r>
       <r>    5.3151    0.0000 </r>
       <r>    5.5831    0.0000 </r>
       <r>    7.3113    0.0000 </r>
       <r>    7.4412    0.0000 </r>
       <r>    7.9104    0.0000 </r>
       <r>    8.0815    0.0000 </r>
       <r>    8.2622    0.0000 </r>
       <r>    8.6164    0.0000 </r>
       <r>    9.1653    0.0000 </r>
       <r>    9.2650    0.0000 </r>
       <r>    9.4570    0.0000 </r>
       <r>    9.6389    0.0000 </r>
       <r>    9.7306    0.0000 </r>
       <r>    9.7691    0.0000 </r>
       <r>    9.8153    0.0000 </r>
       <r>   10.0094    0.0000 </r>
       <r>   10.1037    0.0000 </r>
       <r>   10.1564    0.0000 </r>
       <r>   10.6445    0.0000 </r>
      </set>
      <set comment="kpoint 2">
       <r>  -31.3859    1.0000 </r>
       <r>  -31.3793    1.0000 </r>
       <r>  -31.2823    1.0000 </r>
       <r>  -30.0651    1.0000 </r>
       <r>  -14.8642    1.0000 </r>
       <r>  -14.8450    1.0000 </r>
       <r>  -14.7707    1.0000 </r>
       <r>  -14.5108    1.0000 </r>
       <r>  -14.0754    1.0000 </r>
       <r>  -13.9263    1.0000 </r>
       <r>  -13.7902    1.0000 </r>
       <r>  -13.7238    1.0000 </r>
       <r>  -13.6069    1.0000 </r>
       <r>  -13.3953    1.0000 </r>
       <r>  -13.3806    1.0000 </r>
       <r>  -13.2870    1.0000 </r>
       <r>  -13.2728    1.0000 </r>
       <r>  -13.1462    1.0000 </r>
       <r>  -13.1004    1.0000 </r>
       <r>  -13.0031    1.0000 </r>
       <r>  -12.9088    1.0000 </r>
       <r>  -12.7426    1.0000 </r>
       <r>  -11.9890    1.0000 </r>
       <r>  -11.8647    1.0000 </r>
       <r>  -11.8436    1.0000 </r>
       <r>   -2.5992    1.0000 </r>
       <r>   -2.2425    1.0000 </r>
       <r>   -2.2238    1.0000 </r>
       <r>   -2.0024    1.0000 </r>
       <r>   -1.8395    1.0000 </r>
       <r>   -1.4952    1.0000 </r>
       <r>   -1.3774    1.0000 </r>
       <r>   -1.3356    1.0000 </r>
       <r>   -1.3104    1.0000 </r>
       <r>   -1.2207    1.0000 </r>
       <r>   -1.1803    1.0000 </r>
       <r>   -0.9895    1.0000 </r>
       <r>   -0.9226    1.0000 </r>
       <r>   -0.8325    1.0000 </r>
       <r>   -0.8222    1.0000 </r>
       <r>   -0.7886    1.0000 </r>
       <r>   -0.7698    1.0000 </r>
       <r>   -0.6433    1.0000 </r>
       <r>   -0.5999    1.0000 </r>
       <r>   -0.5449    1.0000 </r>
       <r>   -0.4868    1.0000 </r>
       <r>   -0.3824    1.0000 </r>
       <r>   -0.3713    1.0000 </r>
       <r>   -0.2234    1.0000 </r>
       <r>   -0.0882    1.0000 </r>
       <r>    0.0374    1.0000 </r>
       <r>    0.1723    1.0000 </r>
       <r>    0.4042    1.0000 </r>
       <r>    0.4299    1.0000 </r>
       <r>    0.5806    1.0000 </r>
       <r>    0.6596    1.0000 </r>
       <r>    0.8938    1.0000 </r>
       <r>    0.9875    1.0000 </r>
       <r>    1.0714    1.0000 </r>
       <r>    1.1998    1.0000 </r>
       <r>    1.3382    1.0000 </r>
       <r>    1.4978    1.0000 </r>
       <r>    1.6160    1.0000 </r>
       <r>    1.6851    1.0000 </r>
       <r>    1.7339    1.0000 </r>
       <r>    1.8253    1.0000 </r>
       <r>    1.8601    1.0000 </r>
       <r>    1.9011    1.0000 </r>
       <r>    2.0015    1.0000 </r>
       <r>    2.0132    1.0000 </r>
       <r>    2.0880    1.0000 </r>
       <r>    2.8229    0.0000 </r>
       <r>    3.8403    0.0000 </r>
       <r>    4.6395    0.0000 </r>
       <r>    6.3257    0.0000 </r>
       <r>    7.0482    0.0000 </r>
       <r>    7.6499    0.0000 </r>
       <r>    7.8025    0.0000 </r>
       <r>    8.0844    0.0000 </r>
       <r>    8.5453    0.0000 </r>
       <r>    8.6020    0.0000 </r>
       <r>    8.8454    0.0000 </r>
       <r>    9.0315    0.0000 </r>
       <r>    9.3455    0.0000 </r>
       <r>    9.6237    0.0000 </r>
       <r>    9.7405    0.0000 </r>
       <r>    9.8505    0.0000 </r>
       <r>    9.9237    0.0000 </r>
       <r>   10.1022    0.0000 </r>
       <r>   10.1406    0.0000 </r>
       <r>   10.3500    0.0000 </r>
       <r>   10.5668    0.0000 </r>
      </set>
      <set comment="kpoint 3">
       <r>  -31.3847    1.0000 </r>
       <r>  -31.3716    1.0000 </r>
       <r>  -31.2779    1.0000 </r>
       <r>  -30.0602    1.0000 </r>
       <r>  -14.7979    1.0000 </r>
       <r>  -14.7584    1.0000 </r>
       <r>  -14.5889    1.0000 </r>
       <r>  -14.5870    1.0000 </r>
       <r>  -13.9857    1.0000 </r>
       <r>  -13.9401    1.0000 </r>
       <r>  -13.9386    1.0000 </r>
       <r>  -13.7582    1.0000 </r>
       <r>  -13.6880    1.0000 </r>
       <r>  -13.3965    1.0000 </r>
       <r>  -13.3328    1.0000 </r>
       <r>  -13.2552    1.0000 </r>
       <r>  -13.2263    1.0000 </r>
       <r>  -13.1934    1.0000 </r>
       <r>  -13.0902    1.0000 </r>
       <r>  -12.9628    1.0000 </r>
       <r>  -12.9394    1.0000 </r>
       <r>  -12.8556    1.0000 </r>
       <r>  -11.9307    1.0000 </r>
       <r>  -11.9109    1.0000 </r>
       <r>  -11.8841    1.0000 </r>
       <r>   -2.5720    1.0000 </r>
       <r>   -2.2624    1.0000 </r>
       <r>   -2.2268    1.0000 </r>
       <r>   -2.0204    1.0000 </r>
       <r>   -1.8418    1.0000 </r>
       <r>   -1.8057    1.0000 </r>
       <r>   -1.7970    1.0000 </r>
       <r>   -1.7699    1.0000 </r>
       <r>   -1.6460    1.0000 </r>
       <r>   -1.6412    1.0000 </r>
       <r>   -1.6224    1.0000 </r>
       <r>   -1.4636    1.0000 </r>
       <r>   -1.4209    1.0000 </r>
       <r>   -1.4022    1.0000 </r>
       <r>   -1.2114    1.0000 </r>
       <r>   -1.1245    1.0000 </r>
       <r>   -1.0680    1.0000 </r>
       <r>   -1.0164    1.0000 </r>
       <r>   -0.9618    1.0000 </r>
       <r>   -0.9043    1.0000 </r>
       <r>   -0.7401    1.0000 </r>
       <r>   -0.4210    1.0000 </r>
       <r>   -0.2276    1.0000 </r>
       <r>    0.1803    1.0000 </r>
       <r>    0.4975    1.0000 </r>
       <r>    0.6261    1.0000 </r>
       <r>    0.6711    1.0000 </r>
       <r>    0.7475    1.0000 </r>
       <r>    0.8502    1.0000 </r>
       <r>    0.8660    1.0000 </r>
       <r>    1.0388    1.0000 </r>
       <r>    1.1295    1.0000 </r>
       <r>    1.1422    1.0000 </r>
       <r>    1.2618    1.0000 </r>
       <r>    1.4280    1.0000 </r>
       <r>    1.4435    1.0000 </r>
       <r>    1.4714    1.0000 </r>
       <r>    1.5188    1.0000 </r>
       <r>    1.6112    1.0000 </r>
       <r>    1.6425    1.0000 </r>
       <r>    1.7616    1.0000 </r>
       <r>    1.9096    1.0000 </r>
       <r>    2.3089    1.0000 </r>
       <r>    2.3841    0.9997 </r>
       <r>    2.5653    0.0481 </r>
       <r>    2.6723    0.0000 </r>
       <r>    3.0128    0.0000 </r>
       <r>    4.2613    0.0000 </r>
       <r>    5.3447    0.0000 </r>
       <r>    5.8347    0.0000 </r>
       <r>    7.6102    0.0000 </r>
       <r>    7.7824    0.0000 </r>
       <r>    7.8078    0.0000 </r>
       <r>    8.0170    0.0000 </r>
       <r>    8.3226    0.0000 </r>
       <r>    8.7351    0.0000 </r>
       <r>    8.7769    0.0000 </r>
       <r>    9.3286    0.0000 </r>
       <r>    9.3526    0.0000 </r>
       <r>    9.5699    0.0000 </r>
       <r>    9.8455    0.0000 </r>
       <r>    9.8755    0.0000 </r>
       <r>   10.0956    0.0000 </r>
       <r>   10.2524    0.0000 </r>
       <r>   10.3535    0.0000 </r>
       <r>   10.6317    0.0000 </r>
       <r>   10.9785    0.0000 </r>
      </set>
      <set comment="kpoint 4">
       <r>  -31.3815    1.0000 </r>
       <r>  -31.3749    1.0000 </r>
       <r>  -31.2779    1.0000 </r>
       <r>  -30.0603    1.0000 </r>
       <r>  -14.7762    1.0000 </r>
       <r>  -14.7439    1.0000 </r>
       <r>  -14.6779    1.0000 </r>
       <r>  -14.4376    1.0000 </r>
       <r>  -14.0517    1.0000 </r>
       <r>  -13.9688    1.0000 </r>
       <r>  -13.9117    1.0000 </r>
       <r>  -13.8179    1.0000 </r>
       <r>  -13.7653    1.0000 </r>
       <r>  -13.4008    1.0000 </r>
       <r>  -13.3113    1.0000 </r>
       <r>  -13.2708    1.0000 </r>
       <r>  -13.1884    1.0000 </r>
       <r>  -13.1228    1.0000 </r>
       <r>  -13.0931    1.0000 </r>
       <r>  -13.0138    1.0000 </r>
       <r>  -12.9341    1.0000 </r>
       <r>  -12.8043    1.0000 </r>
       <r>  -11.9285    1.0000 </r>
       <r>  -11.9127    1.0000 </r>
       <r>  -11.8871    1.0000 </r>
       <r>   -2.6498    1.0000 </r>
       <r>   -2.2513    1.0000 </r>
       <r>   -2.2226    1.0000 </r>
       <r>   -2.0402    1.0000 </r>
       <r>   -1.8863    1.0000 </r>
       <r>   -1.8246    1.0000 </r>
       <r>   -1.7809    1.0000 </r>
       <r>   -1.7432    1.0000 </r>
       <r>   -1.7192    1.0000 </r>
       <r>   -1.6398    1.0000 </r>
       <r>   -1.4819    1.0000 </r>
       <r>   -1.4571    1.0000 </r>
       <r>   -1.3880    1.0000 </r>
       <r>   -1.3255    1.0000 </r>
       <r>   -1.2319    1.0000 </r>
       <r>   -1.1093    1.0000 </r>
       <r>   -1.0902    1.0000 </r>
       <r>   -1.0710    1.0000 </r>
       <r>   -1.0018    1.0000 </r>
       <r>   -0.9590    1.0000 </r>
       <r>   -0.8044    1.0000 </r>
       <r>   -0.1596    1.0000 </r>
       <r>   -0.0068    1.0000 </r>
       <r>    0.2007    1.0000 </r>
       <r>    0.3412    1.0000 </r>
       <r>    0.4756    1.0000 </r>
       <r>    0.6358    1.0000 </r>
       <r>    0.7674    1.0000 </r>
       <r>    0.8911    1.0000 </r>
       <r>    0.9854    1.0000 </r>
       <r>    1.0631    1.0000 </r>
       <r>    1.1163    1.0000 </r>
       <r>    1.1567    1.0000 </r>
       <r>    1.1887    1.0000 </r>
       <r>    1.3349    1.0000 </r>
       <r>    1.3834    1.0000 </r>
       <r>    1.4629    1.0000 </r>
       <r>    1.5083    1.0000 </r>
       <r>    1.5887    1.0000 </r>
       <r>    1.7308    1.0000 </r>
       <r>    1.8752    1.0000 </r>
       <r>    1.9235    1.0000 </r>
       <r>    2.1456    1.0000 </r>
       <r>    2.3015    1.0000 </r>
       <r>    2.5099    0.4611 </r>
       <r>    2.7620    0.0000 </r>
       <r>    3.0485    0.0000 </r>
       <r>    4.3321    0.0000 </r>
       <r>    4.8828    0.0000 </r>
       <r>    6.3937    0.0000 </r>
       <r>    7.3198    0.0000 </r>
       <r>    7.9970    0.0000 </r>
       <r>    8.0315    0.0000 </r>
       <r>    8.1152    0.0000 </r>
       <r>    8.4929    0.0000 </r>
       <r>    8.6181    0.0000 </r>
       <r>    8.9743    0.0000 </r>
       <r>    9.1646    0.0000 </r>
       <r>    9.3136    0.0000 </r>
       <r>    9.4544    0.0000 </r>
       <r>    9.6679    0.0000 </r>
       <r>    9.7927    0.0000 </r>
       <r>    9.9477    0.0000 </r>
       <r>   10.2250    0.0000 </r>
       <r>   10.3846    0.0000 </r>
       <r>   10.6212    0.0000 </r>
       <r>   10.8469    0.0000 </r>
      </set>
      <set comment="kpoint 5">
       <r>  -31.3774    1.0000 </r>
       <r>  -31.3647    1.0000 </r>
       <r>  -31.2708    1.0000 </r>
       <r>  -30.0525    1.0000 </r>
       <r>  -14.7235    1.0000 </r>
       <r>  -14.5581    1.0000 </r>
       <r>  -14.4190    1.0000 </r>
       <r>  -14.2634    1.0000 </r>
       <r>  -14.2346    1.0000 </r>
       <r>  -14.1286    1.0000 </r>
       <r>  -13.9527    1.0000 </r>
       <r>  -13.8382    1.0000 </r>
       <r>  -13.7920    1.0000 </r>
       <r>  -13.3592    1.0000 </r>
       <r>  -13.3250    1.0000 </r>
       <r>  -13.2723    1.0000 </r>
       <r>  -13.2393    1.0000 </r>
       <r>  -13.1888    1.0000 </r>
       <r>  -13.0346    1.0000 </r>
       <r>  -12.9714    1.0000 </r>
       <r>  -12.9518    1.0000 </r>
       <r>  -12.9032    1.0000 </r>
       <r>  -11.9937    1.0000 </r>
       <r>  -11.9597    1.0000 </r>
       <r>  -11.8439    1.0000 </r>
       <r>   -2.9507    1.0000 </r>
       <r>   -2.8495    1.0000 </r>
       <r>   -2.7324    1.0000 </r>
       <r>   -2.6717    1.0000 </r>
       <r>   -2.3679    1.0000 </r>
       <r>   -2.1859    1.0000 </r>
       <r>   -2.1771    1.0000 </r>
       <r>   -2.1532    1.0000 </r>
       <r>   -1.8951    1.0000 </r>
       <r>   -1.8127    1.0000 </r>
       <r>   -1.8111    1.0000 </r>
       <r>   -1.7073    1.0000 </r>
       <r>   -1.5807    1.0000 </r>
       <r>   -1.4627    1.0000 </r>
       <r>   -1.4504    1.0000 </r>
       <r>   -1.4037    1.0000 </r>
       <r>   -1.2832    1.0000 </r>
       <r>   -1.2724    1.0000 </r>
       <r>   -1.1850    1.0000 </r>
       <r>   -0.9122    1.0000 </r>
       <r>   -0.7204    1.0000 </r>
       <r>   -0.3499    1.0000 </r>
       <r>   -0.1225    1.0000 </r>
       <r>    0.5656    1.0000 </r>
       <r>    0.7159    1.0000 </r>
       <r>    0.7906    1.0000 </r>
       <r>    0.9486    1.0000 </r>
       <r>    0.9837    1.0000 </r>
       <r>    1.1210    1.0000 </r>
       <r>    1.1349    1.0000 </r>
       <r>    1.3189    1.0000 </r>
       <r>    1.3333    1.0000 </r>
       <r>    1.3886    1.0000 </r>
       <r>    1.4311    1.0000 </r>
       <r>    1.4610    1.0000 </r>
       <r>    1.5607    1.0000 </r>
       <r>    1.6836    1.0000 </r>
       <r>    1.7398    1.0000 </r>
       <r>    1.7423    1.0000 </r>
       <r>    1.8909    1.0000 </r>
       <r>    1.9472    1.0000 </r>
       <r>    2.1945    1.0000 </r>
       <r>    2.2725    1.0000 </r>
       <r>    2.3542    1.0000 </r>
       <r>    2.9735    0.0000 </r>
       <r>    3.0453    0.0000 </r>
       <r>    3.8793    0.0000 </r>
       <r>    5.1464    0.0000 </r>
       <r>    5.3797    0.0000 </r>
       <r>    6.2275    0.0000 </r>
       <r>    7.3729    0.0000 </r>
       <r>    7.8208    0.0000 </r>
       <r>    7.8480    0.0000 </r>
       <r>    8.7438    0.0000 </r>
       <r>    9.0783    0.0000 </r>
       <r>    9.1114    0.0000 </r>
       <r>    9.2155    0.0000 </r>
       <r>    9.6401    0.0000 </r>
       <r>    9.6583    0.0000 </r>
       <r>    9.7160    0.0000 </r>
       <r>    9.9718    0.0000 </r>
       <r>   10.0918    0.0000 </r>
       <r>   10.3054    0.0000 </r>
       <r>   10.6175    0.0000 </r>
       <r>   10.7910    0.0000 </r>
       <r>   10.9533    0.0000 </r>
       <r>   11.1219    0.0000 </r>
      </set>
      <set comment="kpoint 6">
       <r>  -31.3742    1.0000 </r>
       <r>  -31.3679    1.0000 </r>
       <r>  -31.2708    1.0000 </r>
       <r>  -30.0525    1.0000 </r>
       <r>  -14.6577    1.0000 </r>
       <r>  -14.5123    1.0000 </r>
       <r>  -14.4713    1.0000 </r>
       <r>  -14.2927    1.0000 </r>
       <r>  -14.2404    1.0000 </r>
       <r>  -14.1008    1.0000 </r>
       <r>  -14.0461    1.0000 </r>
       <r>  -13.9029    1.0000 </r>
       <r>  -13.7702    1.0000 </r>
       <r>  -13.3658    1.0000 </r>
       <r>  -13.3189    1.0000 </r>
       <r>  -13.2284    1.0000 </r>
       <r>  -13.1663    1.0000 </r>
       <r>  -13.1432    1.0000 </r>
       <r>  -13.0807    1.0000 </r>
       <r>  -13.0250    1.0000 </r>
       <r>  -12.9567    1.0000 </r>
       <r>  -12.8643    1.0000 </r>
       <r>  -11.9943    1.0000 </r>
       <r>  -11.9574    1.0000 </r>
       <r>  -11.8579    1.0000 </r>
       <r>   -3.0702    1.0000 </r>
       <r>   -2.7746    1.0000 </r>
       <r>   -2.7358    1.0000 </r>
       <r>   -2.6889    1.0000 </r>
       <r>   -2.3726    1.0000 </r>
       <r>   -2.2013    1.0000 </r>
       <r>   -2.1733    1.0000 </r>
       <r>   -2.0921    1.0000 </r>
       <r>   -1.9177    1.0000 </r>
       <r>   -1.8351    1.0000 </r>
       <r>   -1.7767    1.0000 </r>
       <r>   -1.6863    1.0000 </r>
       <r>   -1.6446    1.0000 </r>
       <r>   -1.4577    1.0000 </r>
       <r>   -1.4091    1.0000 </r>
       <r>   -1.3865    1.0000 </r>
       <r>   -1.3114    1.0000 </r>
       <r>   -1.3054    1.0000 </r>
       <r>   -1.1850    1.0000 </r>
       <r>   -0.9598    1.0000 </r>
       <r>   -0.7935    1.0000 </r>
       <r>   -0.0055    1.0000 </r>
       <r>    0.1582    1.0000 </r>
       <r>    0.5109    1.0000 </r>
       <r>    0.8576    1.0000 </r>
       <r>    0.8889    1.0000 </r>
       <r>    0.8976    1.0000 </r>
       <r>    0.9944    1.0000 </r>
       <r>    1.0501    1.0000 </r>
       <r>    1.1312    1.0000 </r>
       <r>    1.2391    1.0000 </r>
       <r>    1.2852    1.0000 </r>
       <r>    1.3161    1.0000 </r>
       <r>    1.3796    1.0000 </r>
       <r>    1.4111    1.0000 </r>
       <r>    1.4552    1.0000 </r>
       <r>    1.6533    1.0000 </r>
       <r>    1.6599    1.0000 </r>
       <r>    1.7541    1.0000 </r>
       <r>    1.8674    1.0000 </r>
       <r>    1.9135    1.0000 </r>
       <r>    2.1093    1.0000 </r>
       <r>    2.3443    1.0000 </r>
       <r>    2.3504    1.0000 </r>
       <r>    2.7305    0.0000 </r>
       <r>    3.1986    0.0000 </r>
       <r>    3.8412    0.0000 </r>
       <r>    5.0765    0.0000 </r>
       <r>    5.6217    0.0000 </r>
       <r>    6.3140    0.0000 </r>
       <r>    7.5113    0.0000 </r>
       <r>    7.9870    0.0000 </r>
       <r>    8.1222    0.0000 </r>
       <r>    8.6281    0.0000 </r>
       <r>    8.7148    0.0000 </r>
       <r>    8.9471    0.0000 </r>
       <r>    9.2365    0.0000 </r>
       <r>    9.4703    0.0000 </r>
       <r>    9.6274    0.0000 </r>
       <r>    9.8827    0.0000 </r>
       <r>    9.9670    0.0000 </r>
       <r>   10.2274    0.0000 </r>
       <r>   10.3021    0.0000 </r>
       <r>   10.4684    0.0000 </r>
       <r>   10.5151    0.0000 </r>
       <r>   10.8452    0.0000 </r>
       <r>   11.0333    0.0000 </r>
      </set>
      <set comment="kpoint 7">
       <r>  -31.3891    1.0000 </r>
       <r>  -31.3761    1.0000 </r>
       <r>  -31.2823    1.0000 </r>
       <r>  -30.0650    1.0000 </r>
       <r>  -14.9630    1.0000 </r>
       <r>  -14.8560    1.0000 </r>
       <r>  -14.7301    1.0000 </r>
       <r>  -14.3877    1.0000 </r>
       <r>  -14.0288    1.0000 </r>
       <r>  -14.0104    1.0000 </r>
       <r>  -13.7716    1.0000 </r>
       <r>  -13.7175    1.0000 </r>
       <r>  -13.6352    1.0000 </r>
       <r>  -13.4014    1.0000 </r>
       <r>  -13.3745    1.0000 </r>
       <r>  -13.2729    1.0000 </r>
       <r>  -13.2646    1.0000 </r>
       <r>  -13.1826    1.0000 </r>
       <r>  -13.1181    1.0000 </r>
       <r>  -12.9413    1.0000 </r>
       <r>  -12.9133    1.0000 </r>
       <r>  -12.7989    1.0000 </r>
       <r>  -11.9888    1.0000 </r>
       <r>  -11.8624    1.0000 </r>
       <r>  -11.8267    1.0000 </r>
       <r>   -2.5767    1.0000 </r>
       <r>   -2.2245    1.0000 </r>
       <r>   -2.2090    1.0000 </r>
       <r>   -1.9888    1.0000 </r>
       <r>   -1.8795    1.0000 </r>
       <r>   -1.5098    1.0000 </r>
       <r>   -1.3611    1.0000 </r>
       <r>   -1.3262    1.0000 </r>
       <r>   -1.2788    1.0000 </r>
       <r>   -1.2271    1.0000 </r>
       <r>   -1.1824    1.0000 </r>
       <r>   -0.9594    1.0000 </r>
       <r>   -0.9316    1.0000 </r>
       <r>   -0.8652    1.0000 </r>
       <r>   -0.8132    1.0000 </r>
       <r>   -0.7847    1.0000 </r>
       <r>   -0.7438    1.0000 </r>
       <r>   -0.6985    1.0000 </r>
       <r>   -0.6463    1.0000 </r>
       <r>   -0.6250    1.0000 </r>
       <r>   -0.5827    1.0000 </r>
       <r>   -0.4509    1.0000 </r>
       <r>   -0.3302    1.0000 </r>
       <r>   -0.2589    1.0000 </r>
       <r>    0.0917    1.0000 </r>
       <r>    0.1313    1.0000 </r>
       <r>    0.2404    1.0000 </r>
       <r>    0.3031    1.0000 </r>
       <r>    0.4072    1.0000 </r>
       <r>    0.5720    1.0000 </r>
       <r>    0.6678    1.0000 </r>
       <r>    0.9064    1.0000 </r>
       <r>    0.9677    1.0000 </r>
       <r>    1.0241    1.0000 </r>
       <r>    1.2629    1.0000 </r>
       <r>    1.4005    1.0000 </r>
       <r>    1.5537    1.0000 </r>
       <r>    1.6166    1.0000 </r>
       <r>    1.6761    1.0000 </r>
       <r>    1.7315    1.0000 </r>
       <r>    1.7822    1.0000 </r>
       <r>    1.8101    1.0000 </r>
       <r>    1.8322    1.0000 </r>
       <r>    1.8348    1.0000 </r>
       <r>    2.0719    1.0000 </r>
       <r>    2.1043    1.0000 </r>
       <r>    2.9307    0.0000 </r>
       <r>    3.9023    0.0000 </r>
       <r>    4.8580    0.0000 </r>
       <r>    6.0578    0.0000 </r>
       <r>    7.0053    0.0000 </r>
       <r>    7.6174    0.0000 </r>
       <r>    7.8980    0.0000 </r>
       <r>    8.0768    0.0000 </r>
       <r>    8.3905    0.0000 </r>
       <r>    8.5763    0.0000 </r>
       <r>    8.9215    0.0000 </r>
       <r>    9.2006    0.0000 </r>
       <r>    9.3622    0.0000 </r>
       <r>    9.4479    0.0000 </r>
       <r>    9.6508    0.0000 </r>
       <r>    9.9147    0.0000 </r>
       <r>    9.9613    0.0000 </r>
       <r>   10.0121    0.0000 </r>
       <r>   10.1415    0.0000 </r>
       <r>   10.2885    0.0000 </r>
       <r>   10.5022    0.0000 </r>
      </set>
      <set comment="kpoint 8">
       <r>  -31.3858    1.0000 </r>
       <r>  -31.3794    1.0000 </r>
       <r>  -31.2823    1.0000 </r>
       <r>  -30.0651    1.0000 </r>
       <r>  -14.9637    1.0000 </r>
       <r>  -14.7613    1.0000 </r>
       <r>  -14.7481    1.0000 </r>
       <r>  -14.4407    1.0000 </r>
       <r>  -14.1388    1.0000 </r>
       <r>  -13.9041    1.0000 </r>
       <r>  -13.8576    1.0000 </r>
       <r>  -13.7065    1.0000 </r>
       <r>  -13.6429    1.0000 </r>
       <r>  -13.3949    1.0000 </r>
       <r>  -13.3811    1.0000 </r>
       <r>  -13.2760    1.0000 </r>
       <r>  -13.2728    1.0000 </r>
       <r>  -13.1587    1.0000 </r>
       <r>  -13.0715    1.0000 </r>
       <r>  -12.9795    1.0000 </r>
       <r>  -12.9133    1.0000 </r>
       <r>  -12.7334    1.0000 </r>
       <r>  -11.9890    1.0000 </r>
       <r>  -11.8696    1.0000 </r>
       <r>  -11.8427    1.0000 </r>
       <r>   -2.5841    1.0000 </r>
       <r>   -2.2476    1.0000 </r>
       <r>   -2.2312    1.0000 </r>
       <r>   -1.9941    1.0000 </r>
       <r>   -1.8456    1.0000 </r>
       <r>   -1.5060    1.0000 </r>
       <r>   -1.3448    1.0000 </r>
       <r>   -1.3022    1.0000 </r>
       <r>   -1.2806    1.0000 </r>
       <r>   -1.2224    1.0000 </r>
       <r>   -1.1797    1.0000 </r>
       <r>   -1.0209    1.0000 </r>
       <r>   -0.9598    1.0000 </r>
       <r>   -0.8311    1.0000 </r>
       <r>   -0.8214    1.0000 </r>
       <r>   -0.7918    1.0000 </r>
       <r>   -0.7492    1.0000 </r>
       <r>   -0.6425    1.0000 </r>
       <r>   -0.6018    1.0000 </r>
       <r>   -0.5949    1.0000 </r>
       <r>   -0.5622    1.0000 </r>
       <r>   -0.3489    1.0000 </r>
       <r>   -0.3197    1.0000 </r>
       <r>   -0.2893    1.0000 </r>
       <r>   -0.1231    1.0000 </r>
       <r>    0.0888    1.0000 </r>
       <r>    0.2012    1.0000 </r>
       <r>    0.3165    1.0000 </r>
       <r>    0.4086    1.0000 </r>
       <r>    0.7005    1.0000 </r>
       <r>    0.7512    1.0000 </r>
       <r>    0.8856    1.0000 </r>
       <r>    0.9905    1.0000 </r>
       <r>    1.0810    1.0000 </r>
       <r>    1.1562    1.0000 </r>
       <r>    1.3435    1.0000 </r>
       <r>    1.5084    1.0000 </r>
       <r>    1.6004    1.0000 </r>
       <r>    1.6183    1.0000 </r>
       <r>    1.7352    1.0000 </r>
       <r>    1.7983    1.0000 </r>
       <r>    1.8237    1.0000 </r>
       <r>    1.8684    1.0000 </r>
       <r>    1.9440    1.0000 </r>
       <r>    2.0239    1.0000 </r>
       <r>    2.1281    1.0000 </r>
       <r>    2.8685    0.0000 </r>
       <r>    4.1431    0.0000 </r>
       <r>    4.5671    0.0000 </r>
       <r>    6.1848    0.0000 </r>
       <r>    7.0155    0.0000 </r>
       <r>    7.3665    0.0000 </r>
       <r>    7.8872    0.0000 </r>
       <r>    8.1780    0.0000 </r>
       <r>    8.5709    0.0000 </r>
       <r>    8.7158    0.0000 </r>
       <r>    8.8466    0.0000 </r>
       <r>    9.0581    0.0000 </r>
       <r>    9.2172    0.0000 </r>
       <r>    9.3961    0.0000 </r>
       <r>    9.6946    0.0000 </r>
       <r>    9.8540    0.0000 </r>
       <r>   10.1492    0.0000 </r>
       <r>   10.1573    0.0000 </r>
       <r>   10.2829    0.0000 </r>
       <r>   10.3400    0.0000 </r>
       <r>   10.4976    0.0000 </r>
      </set>
      <set comment="kpoint 9">
       <r>  -31.3859    1.0000 </r>
       <r>  -31.3792    1.0000 </r>
       <r>  -31.2823    1.0000 </r>
       <r>  -30.0651    1.0000 </r>
       <r>  -14.9516    1.0000 </r>
       <r>  -14.7610    1.0000 </r>
       <r>  -14.6768    1.0000 </r>
       <r>  -14.6035    1.0000 </r>
       <r>  -14.0695    1.0000 </r>
       <r>  -13.9336    1.0000 </r>
       <r>  -13.8474    1.0000 </r>
       <r>  -13.6632    1.0000 </r>
       <r>  -13.6205    1.0000 </r>
       <r>  -13.3952    1.0000 </r>
       <r>  -13.3807    1.0000 </r>
       <r>  -13.2728    1.0000 </r>
       <r>  -13.2288    1.0000 </r>
       <r>  -13.1874    1.0000 </r>
       <r>  -13.0701    1.0000 </r>
       <r>  -13.0337    1.0000 </r>
       <r>  -12.9103    1.0000 </r>
       <r>  -12.7406    1.0000 </r>
       <r>  -11.9890    1.0000 </r>
       <r>  -11.8695    1.0000 </r>
       <r>  -11.8427    1.0000 </r>
       <r>   -2.5326    1.0000 </r>
       <r>   -2.2745    1.0000 </r>
       <r>   -2.2515    1.0000 </r>
       <r>   -1.9705    1.0000 </r>
       <r>   -1.6734    1.0000 </r>
       <r>   -1.5875    1.0000 </r>
       <r>   -1.4917    1.0000 </r>
       <r>   -1.3727    1.0000 </r>
       <r>   -1.3010    1.0000 </r>
       <r>   -1.2104    1.0000 </r>
       <r>   -1.2059    1.0000 </r>
       <r>   -0.9993    1.0000 </r>
       <r>   -0.9491    1.0000 </r>
       <r>   -0.8273    1.0000 </r>
       <r>   -0.7882    1.0000 </r>
       <r>   -0.7821    1.0000 </r>
       <r>   -0.7609    1.0000 </r>
       <r>   -0.6338    1.0000 </r>
       <r>   -0.6055    1.0000 </r>
       <r>   -0.5070    1.0000 </r>
       <r>   -0.4861    1.0000 </r>
       <r>   -0.4278    1.0000 </r>
       <r>   -0.3661    1.0000 </r>
       <r>   -0.2498    1.0000 </r>
       <r>   -0.1129    1.0000 </r>
       <r>    0.0538    1.0000 </r>
       <r>    0.1261    1.0000 </r>
       <r>    0.3676    1.0000 </r>
       <r>    0.5060    1.0000 </r>
       <r>    0.6041    1.0000 </r>
       <r>    0.6840    1.0000 </r>
       <r>    0.8582    1.0000 </r>
       <r>    1.0011    1.0000 </r>
       <r>    1.0797    1.0000 </r>
       <r>    1.2816    1.0000 </r>
       <r>    1.2988    1.0000 </r>
       <r>    1.4327    1.0000 </r>
       <r>    1.6441    1.0000 </r>
       <r>    1.6574    1.0000 </r>
       <r>    1.7314    1.0000 </r>
       <r>    1.7400    1.0000 </r>
       <r>    1.7787    1.0000 </r>
       <r>    1.8692    1.0000 </r>
       <r>    2.0048    1.0000 </r>
       <r>    2.0191    1.0000 </r>
       <r>    2.5030    0.5386 </r>
       <r>    2.6498    0.0000 </r>
       <r>    3.9362    0.0000 </r>
       <r>    4.9416    0.0000 </r>
       <r>    5.7211    0.0000 </r>
       <r>    7.1836    0.0000 </r>
       <r>    7.4787    0.0000 </r>
       <r>    7.6391    0.0000 </r>
       <r>    8.0628    0.0000 </r>
       <r>    8.6004    0.0000 </r>
       <r>    8.6808    0.0000 </r>
       <r>    8.8467    0.0000 </r>
       <r>    9.3451    0.0000 </r>
       <r>    9.3614    0.0000 </r>
       <r>    9.5023    0.0000 </r>
       <r>    9.7354    0.0000 </r>
       <r>    9.8504    0.0000 </r>
       <r>   10.0273    0.0000 </r>
       <r>   10.1400    0.0000 </r>
       <r>   10.1525    0.0000 </r>
       <r>   10.3520    0.0000 </r>
       <r>   10.5935    0.0000 </r>
      </set>
      <set comment="kpoint 10">
       <r>  -31.3846    1.0000 </r>
       <r>  -31.3718    1.0000 </r>
       <r>  -31.2779    1.0000 </r>
       <r>  -30.0602    1.0000 </r>
       <r>  -14.8469    1.0000 </r>
       <r>  -14.7623    1.0000 </r>
       <r>  -14.6648    1.0000 </r>
       <r>  -14.2935    1.0000 </r>
       <r>  -14.0606    1.0000 </r>
       <r>  -13.9962    1.0000 </r>
       <r>  -13.9036    1.0000 </r>
       <r>  -13.8616    1.0000 </r>
       <r>  -13.7483    1.0000 </r>
       <r>  -13.3727    1.0000 </r>
       <r>  -13.3420    1.0000 </r>
       <r>  -13.2549    1.0000 </r>
       <r>  -13.2092    1.0000 </r>
       <r>  -13.1472    1.0000 </r>
       <r>  -13.1260    1.0000 </r>
       <r>  -12.9591    1.0000 </r>
       <r>  -12.9252    1.0000 </r>
       <r>  -12.8155    1.0000 </r>
       <r>  -11.9331    1.0000 </r>
       <r>  -11.9122    1.0000 </r>
       <r>  -11.8826    1.0000 </r>
       <r>   -2.6086    1.0000 </r>
       <r>   -2.2310    1.0000 </r>
       <r>   -2.2028    1.0000 </r>
       <r>   -2.0316    1.0000 </r>
       <r>   -1.8734    1.0000 </r>
       <r>   -1.8347    1.0000 </r>
       <r>   -1.7786    1.0000 </r>
       <r>   -1.7703    1.0000 </r>
       <r>   -1.7009    1.0000 </r>
       <r>   -1.6298    1.0000 </r>
       <r>   -1.5593    1.0000 </r>
       <r>   -1.4925    1.0000 </r>
       <r>   -1.3913    1.0000 </r>
       <r>   -1.3002    1.0000 </r>
       <r>   -1.2522    1.0000 </r>
       <r>   -1.0715    1.0000 </r>
       <r>   -1.0637    1.0000 </r>
       <r>   -1.0304    1.0000 </r>
       <r>   -1.0047    1.0000 </r>
       <r>   -0.9068    1.0000 </r>
       <r>   -0.8216    1.0000 </r>
       <r>   -0.3913    1.0000 </r>
       <r>   -0.1781    1.0000 </r>
       <r>    0.1467    1.0000 </r>
       <r>    0.3989    1.0000 </r>
       <r>    0.6411    1.0000 </r>
       <r>    0.6655    1.0000 </r>
       <r>    0.7012    1.0000 </r>
       <r>    0.9019    1.0000 </r>
       <r>    1.0137    1.0000 </r>
       <r>    1.0482    1.0000 </r>
       <r>    1.0980    1.0000 </r>
       <r>    1.1539    1.0000 </r>
       <r>    1.2494    1.0000 </r>
       <r>    1.3506    1.0000 </r>
       <r>    1.3992    1.0000 </r>
       <r>    1.4374    1.0000 </r>
       <r>    1.5393    1.0000 </r>
       <r>    1.6127    1.0000 </r>
       <r>    1.6811    1.0000 </r>
       <r>    1.8231    1.0000 </r>
       <r>    1.8834    1.0000 </r>
       <r>    2.1813    1.0000 </r>
       <r>    2.3463    1.0000 </r>
       <r>    2.5605    0.0631 </r>
       <r>    2.7347    0.0000 </r>
       <r>    3.1368    0.0000 </r>
       <r>    4.3522    0.0000 </r>
       <r>    5.1243    0.0000 </r>
       <r>    6.0978    0.0000 </r>
       <r>    7.3413    0.0000 </r>
       <r>    7.8690    0.0000 </r>
       <r>    7.9696    0.0000 </r>
       <r>    8.1928    0.0000 </r>
       <r>    8.2908    0.0000 </r>
       <r>    8.4833    0.0000 </r>
       <r>    8.9614    0.0000 </r>
       <r>    9.1471    0.0000 </r>
       <r>    9.3001    0.0000 </r>
       <r>    9.4103    0.0000 </r>
       <r>    9.8126    0.0000 </r>
       <r>    9.9286    0.0000 </r>
       <r>   10.1330    0.0000 </r>
       <r>   10.3532    0.0000 </r>
       <r>   10.5662    0.0000 </r>
       <r>   10.6632    0.0000 </r>
       <r>   10.8272    0.0000 </r>
      </set>
      <set comment="kpoint 11">
       <r>  -31.3813    1.0000 </r>
       <r>  -31.3751    1.0000 </r>
       <r>  -31.2779    1.0000 </r>
       <r>  -30.0603    1.0000 </r>
       <r>  -14.8628    1.0000 </r>
       <r>  -14.6733    1.0000 </r>
       <r>  -14.6527    1.0000 </r>
       <r>  -14.3711    1.0000 </r>
       <r>  -14.1071    1.0000 </r>
       <r>  -13.9730    1.0000 </r>
       <r>  -13.9301    1.0000 </r>
       <r>  -13.8504    1.0000 </r>
       <r>  -13.7538    1.0000 </r>
       <r>  -13.3773    1.0000 </r>
       <r>  -13.3482    1.0000 </r>
       <r>  -13.2639    1.0000 </r>
       <r>  -13.1968    1.0000 </r>
       <r>  -13.1510    1.0000 </r>
       <r>  -13.0614    1.0000 </r>
       <r>  -12.9811    1.0000 </r>
       <r>  -12.9509    1.0000 </r>
       <r>  -12.7821    1.0000 </r>
       <r>  -11.9292    1.0000 </r>
       <r>  -11.9152    1.0000 </r>
       <r>  -11.8860    1.0000 </r>
       <r>   -2.6198    1.0000 </r>
       <r>   -2.2640    1.0000 </r>
       <r>   -2.2332    1.0000 </r>
       <r>   -2.0364    1.0000 </r>
       <r>   -1.8844    1.0000 </r>
       <r>   -1.8230    1.0000 </r>
       <r>   -1.7847    1.0000 </r>
       <r>   -1.7549    1.0000 </r>
       <r>   -1.6878    1.0000 </r>
       <r>   -1.6312    1.0000 </r>
       <r>   -1.5158    1.0000 </r>
       <r>   -1.4582    1.0000 </r>
       <r>   -1.3758    1.0000 </r>
       <r>   -1.3072    1.0000 </r>
       <r>   -1.2284    1.0000 </r>
       <r>   -1.1312    1.0000 </r>
       <r>   -1.1053    1.0000 </r>
       <r>   -1.0620    1.0000 </r>
       <r>   -0.9966    1.0000 </r>
       <r>   -0.9390    1.0000 </r>
       <r>   -0.8129    1.0000 </r>
       <r>   -0.2467    1.0000 </r>
       <r>    0.0581    1.0000 </r>
       <r>    0.0711    1.0000 </r>
       <r>    0.2642    1.0000 </r>
       <r>    0.5310    1.0000 </r>
       <r>    0.6468    1.0000 </r>
       <r>    0.8287    1.0000 </r>
       <r>    0.9231    1.0000 </r>
       <r>    1.0257    1.0000 </r>
       <r>    1.0398    1.0000 </r>
       <r>    1.1201    1.0000 </r>
       <r>    1.1312    1.0000 </r>
       <r>    1.1999    1.0000 </r>
       <r>    1.3439    1.0000 </r>
       <r>    1.3679    1.0000 </r>
       <r>    1.4753    1.0000 </r>
       <r>    1.5206    1.0000 </r>
       <r>    1.5465    1.0000 </r>
       <r>    1.7715    1.0000 </r>
       <r>    1.8574    1.0000 </r>
       <r>    1.9483    1.0000 </r>
       <r>    2.2063    1.0000 </r>
       <r>    2.2846    1.0000 </r>
       <r>    2.5180    0.3721 </r>
       <r>    2.7141    0.0000 </r>
       <r>    3.0795    0.0000 </r>
       <r>    4.4011    0.0000 </r>
       <r>    4.8849    0.0000 </r>
       <r>    6.2432    0.0000 </r>
       <r>    7.3798    0.0000 </r>
       <r>    7.8947    0.0000 </r>
       <r>    8.0955    0.0000 </r>
       <r>    8.2460    0.0000 </r>
       <r>    8.3308    0.0000 </r>
       <r>    8.7619    0.0000 </r>
       <r>    8.8639    0.0000 </r>
       <r>    9.0940    0.0000 </r>
       <r>    9.3389    0.0000 </r>
       <r>    9.4736    0.0000 </r>
       <r>    9.5212    0.0000 </r>
       <r>    9.7274    0.0000 </r>
       <r>   10.0233    0.0000 </r>
       <r>   10.4291    0.0000 </r>
       <r>   10.5374    0.0000 </r>
       <r>   10.5836    0.0000 </r>
       <r>   10.7812    0.0000 </r>
      </set>
      <set comment="kpoint 12">
       <r>  -31.3815    1.0000 </r>
       <r>  -31.3749    1.0000 </r>
       <r>  -31.2779    1.0000 </r>
       <r>  -30.0603    1.0000 </r>
       <r>  -14.8616    1.0000 </r>
       <r>  -14.6633    1.0000 </r>
       <r>  -14.5904    1.0000 </r>
       <r>  -14.5078    1.0000 </r>
       <r>  -14.0786    1.0000 </r>
       <r>  -13.9908    1.0000 </r>
       <r>  -13.9347    1.0000 </r>
       <r>  -13.7786    1.0000 </r>
       <r>  -13.7443    1.0000 </r>
       <r>  -13.4025    1.0000 </r>
       <r>  -13.3208    1.0000 </r>
       <r>  -13.2121    1.0000 </r>
       <r>  -13.2044    1.0000 </r>
       <r>  -13.1542    1.0000 </r>
       <r>  -13.0924    1.0000 </r>
       <r>  -13.0106    1.0000 </r>
       <r>  -12.9418    1.0000 </r>
       <r>  -12.8006    1.0000 </r>
       <r>  -11.9280    1.0000 </r>
       <r>  -11.9138    1.0000 </r>
       <r>  -11.8878    1.0000 </r>
       <r>   -2.5652    1.0000 </r>
       <r>   -2.2890    1.0000 </r>
       <r>   -2.2620    1.0000 </r>
       <r>   -1.9971    1.0000 </r>
       <r>   -1.8632    1.0000 </r>
       <r>   -1.8033    1.0000 </r>
       <r>   -1.7864    1.0000 </r>
       <r>   -1.7694    1.0000 </r>
       <r>   -1.6527    1.0000 </r>
       <r>   -1.6251    1.0000 </r>
       <r>   -1.5419    1.0000 </r>
       <r>   -1.4866    1.0000 </r>
       <r>   -1.4097    1.0000 </r>
       <r>   -1.3810    1.0000 </r>
       <r>   -1.2428    1.0000 </r>
       <r>   -1.1172    1.0000 </r>
       <r>   -1.0844    1.0000 </r>
       <r>   -1.0729    1.0000 </r>
       <r>   -0.9992    1.0000 </r>
       <r>   -0.9283    1.0000 </r>
       <r>   -0.7697    1.0000 </r>
       <r>   -0.2790    1.0000 </r>
       <r>   -0.0386    1.0000 </r>
       <r>    0.1590    1.0000 </r>
       <r>    0.2594    1.0000 </r>
       <r>    0.5258    1.0000 </r>
       <r>    0.5969    1.0000 </r>
       <r>    0.8486    1.0000 </r>
       <r>    0.9016    1.0000 </r>
       <r>    0.9598    1.0000 </r>
       <r>    1.0520    1.0000 </r>
       <r>    1.1138    1.0000 </r>
       <r>    1.1892    1.0000 </r>
       <r>    1.2285    1.0000 </r>
       <r>    1.3427    1.0000 </r>
       <r>    1.4614    1.0000 </r>
       <r>    1.4810    1.0000 </r>
       <r>    1.5414    1.0000 </r>
       <r>    1.6073    1.0000 </r>
       <r>    1.7147    1.0000 </r>
       <r>    1.8517    1.0000 </r>
       <r>    1.9502    1.0000 </r>
       <r>    2.2786    1.0000 </r>
       <r>    2.2884    1.0000 </r>
       <r>    2.5383    0.1843 </r>
       <r>    2.6657    0.0000 </r>
       <r>    3.0031    0.0000 </r>
       <r>    4.3572    0.0000 </r>
       <r>    5.0588    0.0000 </r>
       <r>    5.9263    0.0000 </r>
       <r>    7.7233    0.0000 </r>
       <r>    7.7944    0.0000 </r>
       <r>    7.9360    0.0000 </r>
       <r>    8.0870    0.0000 </r>
       <r>    8.4344    0.0000 </r>
       <r>    8.5320    0.0000 </r>
       <r>    9.0547    0.0000 </r>
       <r>    9.1937    0.0000 </r>
       <r>    9.3393    0.0000 </r>
       <r>    9.6032    0.0000 </r>
       <r>    9.6703    0.0000 </r>
       <r>    9.8177    0.0000 </r>
       <r>    9.9304    0.0000 </r>
       <r>   10.2177    0.0000 </r>
       <r>   10.4219    0.0000 </r>
       <r>   10.5741    0.0000 </r>
       <r>   10.7607    0.0000 </r>
      </set>
      <set comment="kpoint 13">
       <r>  -31.3772    1.0000 </r>
       <r>  -31.3649    1.0000 </r>
       <r>  -31.2708    1.0000 </r>
       <r>  -30.0525    1.0000 </r>
       <r>  -14.6736    1.0000 </r>
       <r>  -14.5517    1.0000 </r>
       <r>  -14.5188    1.0000 </r>
       <r>  -14.2965    1.0000 </r>
       <r>  -14.1427    1.0000 </r>
       <r>  -14.0757    1.0000 </r>
       <r>  -13.9905    1.0000 </r>
       <r>  -13.8473    1.0000 </r>
       <r>  -13.8142    1.0000 </r>
       <r>  -13.3784    1.0000 </r>
       <r>  -13.3455    1.0000 </r>
       <r>  -13.2392    1.0000 </r>
       <r>  -13.2201    1.0000 </r>
       <r>  -13.1917    1.0000 </r>
       <r>  -13.0873    1.0000 </r>
       <r>  -13.0302    1.0000 </r>
       <r>  -12.9313    1.0000 </r>
       <r>  -12.8267    1.0000 </r>
       <r>  -11.9874    1.0000 </r>
       <r>  -11.9552    1.0000 </r>
       <r>  -11.8456    1.0000 </r>
       <r>   -2.9824    1.0000 </r>
       <r>   -2.7983    1.0000 </r>
       <r>   -2.7491    1.0000 </r>
       <r>   -2.6911    1.0000 </r>
       <r>   -2.3700    1.0000 </r>
       <r>   -2.1820    1.0000 </r>
       <r>   -2.1508    1.0000 </r>
       <r>   -2.0483    1.0000 </r>
       <r>   -1.9517    1.0000 </r>
       <r>   -1.9278    1.0000 </r>
       <r>   -1.7877    1.0000 </r>
       <r>   -1.6873    1.0000 </r>
       <r>   -1.6437    1.0000 </r>
       <r>   -1.4238    1.0000 </r>
       <r>   -1.3843    1.0000 </r>
       <r>   -1.3726    1.0000 </r>
       <r>   -1.3174    1.0000 </r>
       <r>   -1.3119    1.0000 </r>
       <r>   -1.1590    1.0000 </r>
       <r>   -0.9463    1.0000 </r>
       <r>   -0.8069    1.0000 </r>
       <r>   -0.2176    1.0000 </r>
       <r>   -0.1039    1.0000 </r>
       <r>    0.4338    1.0000 </r>
       <r>    0.7484    1.0000 </r>
       <r>    0.8627    1.0000 </r>
       <r>    0.9153    1.0000 </r>
       <r>    0.9986    1.0000 </r>
       <r>    1.1490    1.0000 </r>
       <r>    1.1619    1.0000 </r>
       <r>    1.2693    1.0000 </r>
       <r>    1.3582    1.0000 </r>
       <r>    1.3657    1.0000 </r>
       <r>    1.4308    1.0000 </r>
       <r>    1.4492    1.0000 </r>
       <r>    1.5898    1.0000 </r>
       <r>    1.6363    1.0000 </r>
       <r>    1.6860    1.0000 </r>
       <r>    1.7559    1.0000 </r>
       <r>    1.8372    1.0000 </r>
       <r>    1.8664    1.0000 </r>
       <r>    2.0874    1.0000 </r>
       <r>    2.3621    1.0000 </r>
       <r>    2.6149    0.0011 </r>
       <r>    2.9036    0.0000 </r>
       <r>    3.1836    0.0000 </r>
       <r>    3.8276    0.0000 </r>
       <r>    4.9726    0.0000 </r>
       <r>    5.6317    0.0000 </r>
       <r>    6.0024    0.0000 </r>
       <r>    7.6122    0.0000 </r>
       <r>    7.9005    0.0000 </r>
       <r>    8.1759    0.0000 </r>
       <r>    8.5482    0.0000 </r>
       <r>    8.7589    0.0000 </r>
       <r>    8.9274    0.0000 </r>
       <r>    9.1288    0.0000 </r>
       <r>    9.2566    0.0000 </r>
       <r>    9.6146    0.0000 </r>
       <r>    9.8877    0.0000 </r>
       <r>   10.1929    0.0000 </r>
       <r>   10.2254    0.0000 </r>
       <r>   10.4789    0.0000 </r>
       <r>   10.5829    0.0000 </r>
       <r>   10.8629    0.0000 </r>
       <r>   11.0174    0.0000 </r>
       <r>   11.2498    0.0000 </r>
      </set>
      <set comment="kpoint 14">
       <r>  -31.3741    1.0000 </r>
       <r>  -31.3680    1.0000 </r>
       <r>  -31.2708    1.0000 </r>
       <r>  -30.0525    1.0000 </r>
       <r>  -14.6661    1.0000 </r>
       <r>  -14.5064    1.0000 </r>
       <r>  -14.4509    1.0000 </r>
       <r>  -14.3026    1.0000 </r>
       <r>  -14.1960    1.0000 </r>
       <r>  -14.1515    1.0000 </r>
       <r>  -14.0540    1.0000 </r>
       <r>  -13.9059    1.0000 </r>
       <r>  -13.7620    1.0000 </r>
       <r>  -13.3525    1.0000 </r>
       <r>  -13.3027    1.0000 </r>
       <r>  -13.2556    1.0000 </r>
       <r>  -13.1959    1.0000 </r>
       <r>  -13.1114    1.0000 </r>
       <r>  -13.0681    1.0000 </r>
       <r>  -13.0595    1.0000 </r>
       <r>  -12.9924    1.0000 </r>
       <r>  -12.8143    1.0000 </r>
       <r>  -11.9889    1.0000 </r>
       <r>  -11.9567    1.0000 </r>
       <r>  -11.8584    1.0000 </r>
       <r>   -3.0132    1.0000 </r>
       <r>   -2.8114    1.0000 </r>
       <r>   -2.7514    1.0000 </r>
       <r>   -2.6871    1.0000 </r>
       <r>   -2.3710    1.0000 </r>
       <r>   -2.2026    1.0000 </r>
       <r>   -2.1785    1.0000 </r>
       <r>   -2.0111    1.0000 </r>
       <r>   -1.9312    1.0000 </r>
       <r>   -1.8720    1.0000 </r>
       <r>   -1.8156    1.0000 </r>
       <r>   -1.6851    1.0000 </r>
       <r>   -1.6495    1.0000 </r>
       <r>   -1.4749    1.0000 </r>
       <r>   -1.4096    1.0000 </r>
       <r>   -1.3582    1.0000 </r>
       <r>   -1.3540    1.0000 </r>
       <r>   -1.3102    1.0000 </r>
       <r>   -1.1419    1.0000 </r>
       <r>   -0.9346    1.0000 </r>
       <r>   -0.8152    1.0000 </r>
       <r>   -0.0585    1.0000 </r>
       <r>    0.2000    1.0000 </r>
       <r>    0.3103    1.0000 </r>
       <r>    0.7421    1.0000 </r>
       <r>    0.8748    1.0000 </r>
       <r>    0.9627    1.0000 </r>
       <r>    1.0062    1.0000 </r>
       <r>    1.1220    1.0000 </r>
       <r>    1.1954    1.0000 </r>
       <r>    1.2579    1.0000 </r>
       <r>    1.2845    1.0000 </r>
       <r>    1.3612    1.0000 </r>
       <r>    1.4153    1.0000 </r>
       <r>    1.4441    1.0000 </r>
       <r>    1.4769    1.0000 </r>
       <r>    1.5446    1.0000 </r>
       <r>    1.7214    1.0000 </r>
       <r>    1.8296    1.0000 </r>
       <r>    1.8811    1.0000 </r>
       <r>    1.9756    1.0000 </r>
       <r>    2.1477    1.0000 </r>
       <r>    2.3472    1.0000 </r>
       <r>    2.3688    1.0000 </r>
       <r>    2.6905    0.0000 </r>
       <r>    3.0385    0.0000 </r>
       <r>    3.8877    0.0000 </r>
       <r>    5.0727    0.0000 </r>
       <r>    5.5903    0.0000 </r>
       <r>    6.2845    0.0000 </r>
       <r>    7.6935    0.0000 </r>
       <r>    8.0113    0.0000 </r>
       <r>    8.2977    0.0000 </r>
       <r>    8.3719    0.0000 </r>
       <r>    8.5040    0.0000 </r>
       <r>    9.0417    0.0000 </r>
       <r>    9.2369    0.0000 </r>
       <r>    9.2681    0.0000 </r>
       <r>    9.6398    0.0000 </r>
       <r>    9.7613    0.0000 </r>
       <r>   10.0390    0.0000 </r>
       <r>   10.1963    0.0000 </r>
       <r>   10.3202    0.0000 </r>
       <r>   10.6342    0.0000 </r>
       <r>   10.6955    0.0000 </r>
       <r>   10.9021    0.0000 </r>
       <r>   11.1430    0.0000 </r>
      </set>
      <set comment="kpoint 15">
       <r>  -31.3742    1.0000 </r>
       <r>  -31.3679    1.0000 </r>
       <r>  -31.2708    1.0000 </r>
       <r>  -30.0525    1.0000 </r>
       <r>  -14.7146    1.0000 </r>
       <r>  -14.4730    1.0000 </r>
       <r>  -14.4071    1.0000 </r>
       <r>  -14.2867    1.0000 </r>
       <r>  -14.2111    1.0000 </r>
       <r>  -14.1234    1.0000 </r>
       <r>  -14.0876    1.0000 </r>
       <r>  -13.9790    1.0000 </r>
       <r>  -13.7100    1.0000 </r>
       <r>  -13.3653    1.0000 </r>
       <r>  -13.2981    1.0000 </r>
       <r>  -13.2583    1.0000 </r>
       <r>  -13.1822    1.0000 </r>
       <r>  -13.1305    1.0000 </r>
       <r>  -13.0804    1.0000 </r>
       <r>  -13.0067    1.0000 </r>
       <r>  -12.9730    1.0000 </r>
       <r>  -12.8576    1.0000 </r>
       <r>  -11.9887    1.0000 </r>
       <r>  -11.9634    1.0000 </r>
       <r>  -11.8572    1.0000 </r>
       <r>   -2.9242    1.0000 </r>
       <r>   -2.8585    1.0000 </r>
       <r>   -2.7850    1.0000 </r>
       <r>   -2.6695    1.0000 </r>
       <r>   -2.3677    1.0000 </r>
       <r>   -2.2082    1.0000 </r>
       <r>   -2.1863    1.0000 </r>
       <r>   -2.0821    1.0000 </r>
       <r>   -1.8934    1.0000 </r>
       <r>   -1.8349    1.0000 </r>
       <r>   -1.7730    1.0000 </r>
       <r>   -1.7185    1.0000 </r>
       <r>   -1.5816    1.0000 </r>
       <r>   -1.4566    1.0000 </r>
       <r>   -1.4189    1.0000 </r>
       <r>   -1.4151    1.0000 </r>
       <r>   -1.3810    1.0000 </r>
       <r>   -1.3204    1.0000 </r>
       <r>   -1.2138    1.0000 </r>
       <r>   -0.9032    1.0000 </r>
       <r>   -0.7543    1.0000 </r>
       <r>   -0.2222    1.0000 </r>
       <r>    0.1638    1.0000 </r>
       <r>    0.4071    1.0000 </r>
       <r>    0.7270    1.0000 </r>
       <r>    0.7886    1.0000 </r>
       <r>    0.9857    1.0000 </r>
       <r>    1.0794    1.0000 </r>
       <r>    1.1514    1.0000 </r>
       <r>    1.1804    1.0000 </r>
       <r>    1.2740    1.0000 </r>
       <r>    1.3186    1.0000 </r>
       <r>    1.3246    1.0000 </r>
       <r>    1.4563    1.0000 </r>
       <r>    1.4924    1.0000 </r>
       <r>    1.5441    1.0000 </r>
       <r>    1.6370    1.0000 </r>
       <r>    1.6754    1.0000 </r>
       <r>    1.9053    1.0000 </r>
       <r>    1.9436    1.0000 </r>
       <r>    1.9788    1.0000 </r>
       <r>    2.0478    1.0000 </r>
       <r>    2.1596    1.0000 </r>
       <r>    2.3483    1.0000 </r>
       <r>    2.7397    0.0000 </r>
       <r>    3.0558    0.0000 </r>
       <r>    3.8102    0.0000 </r>
       <r>    5.1923    0.0000 </r>
       <r>    5.4053    0.0000 </r>
       <r>    6.4385    0.0000 </r>
       <r>    7.5913    0.0000 </r>
       <r>    7.9055    0.0000 </r>
       <r>    8.0083    0.0000 </r>
       <r>    8.4370    0.0000 </r>
       <r>    8.7117    0.0000 </r>
       <r>    9.1519    0.0000 </r>
       <r>    9.1755    0.0000 </r>
       <r>    9.5187    0.0000 </r>
       <r>    9.7643    0.0000 </r>
       <r>    9.8642    0.0000 </r>
       <r>   10.0709    0.0000 </r>
       <r>   10.1395    0.0000 </r>
       <r>   10.1939    0.0000 </r>
       <r>   10.4734    0.0000 </r>
       <r>   10.7054    0.0000 </r>
       <r>   10.8000    0.0000 </r>
       <r>   10.8885    0.0000 </r>
      </set>
     </set>
     <set comment="spin 2">
      <set comment="kpoint 1">
       <r>  -31.3904    1.0000 </r>
       <r>  -31.3770    1.0000 </r>
       <r>  -31.2818    1.0000 </r>
       <r>  -30.0662    1.0000 </r>
       <r>  -14.8482    1.0000 </r>
       <r>  -14.7606    1.0000 </r>
       <r>  -14.6944    1.0000 </r>
       <r>  -14.5971    1.0000 </r>
       <r>  -13.8310    1.0000 </r>
       <r>  -13.7822    1.0000 </r>
       <r>  -13.7393    1.0000 </r>
       <r>  -13.6540    1.0000 </r>
       <r>  -13.5541    1.0000 </r>
       <r>  -13.4030    1.0000 </r>
       <r>  -13.3754    1.0000 </r>
       <r>  -13.2715    1.0000 </r>
       <r>  -13.2659    1.0000 </r>
       <r>  -13.2033    1.0000 </r>
       <r>  -13.0383    1.0000 </r>
       <r>  -12.9687    1.0000 </r>
       <r>  -12.9013    1.0000 </r>
       <r>  -12.8167    1.0000 </r>
       <r>  -11.9903    1.0000 </r>
[...]
       <r>     2.5938     2.9915    69.7071 </r>
       <r>     2.7502     4.2383    70.3697 </r>
       <r>     2.9065     1.9564    70.6756 </r>
       <r>     3.0629     3.1192    71.1633 </r>
       <r>     3.2192     2.5393    71.5603 </r>
       <r>     3.3756     0.2539    71.6000 </r>
       <r>     3.5319     0.1249    71.6195 </r>
       <r>     3.6883     0.0174    71.6223 </r>
       <r>     3.8446     1.4518    71.8492 </r>
       <r>     4.0010     1.9485    72.1539 </r>
       <r>     4.1573     0.1976    72.1848 </r>
       <r>     4.3137     0.6773    72.2907 </r>
       <r>     4.4700     1.9641    72.5977 </r>
       <r>     4.6264     0.3861    72.6581 </r>
       <r>     4.7827     0.2039    72.6900 </r>
       <r>     4.9391     1.5757    72.9364 </r>
       <r>     5.0954     2.1354    73.2702 </r>
       <r>     5.2518     1.6626    73.5301 </r>
       <r>     5.4081     0.9626    73.6807 </r>
       <r>     5.5644     0.5577    73.7678 </r>
       <r>     5.7208     1.7636    74.0436 </r>
       <r>     5.8771     0.4461    74.1133 </r>
       <r>     6.0335     1.1041    74.2860 </r>
       <r>     6.1898     1.1074    74.4591 </r>
       <r>     6.3462     2.1688    74.7982 </r>
       <r>     6.5025     1.2703    74.9968 </r>
       <r>     6.6589     0.0206    75.0000 </r>
       <r>     6.8152     0.0000    75.0000 </r>
       <r>     6.9716     0.0831    75.0130 </r>
       <r>     7.1279     0.7823    75.1353 </r>
       <r>     7.2843     0.4290    75.2024 </r>
       <r>     7.4406     2.3432    75.5687 </r>
       <r>     7.5970     1.6509    75.8268 </r>
       <r>     7.7533     2.7103    76.2506 </r>
       <r>     7.9097     4.0925    76.8904 </r>
       <r>     8.0660     5.6464    77.7732 </r>
       <r>     8.2224     4.1380    78.4202 </r>
       <r>     8.3787     3.1325    78.9100 </r>
       <r>     8.5350     3.7793    79.5008 </r>
       <r>     8.6914     3.9295    80.1152 </r>
       <r>     8.8477     3.7247    80.6975 </r>
       <r>     9.0041     3.3502    81.2213 </r>
       <r>     9.1604     4.6718    81.9518 </r>
       <r>     9.3168     6.2246    82.9250 </r>
       <r>     9.4731     5.0408    83.7131 </r>
       <r>     9.6295     4.3473    84.3928 </r>
       <r>     9.7858     5.9932    85.3298 </r>
       <r>     9.9422     6.4683    86.3411 </r>
       <r>    10.0985     4.8836    87.1046 </r>
       <r>    10.2549     7.1339    88.2200 </r>
       <r>    10.4112     4.9617    88.9957 </r>
       <r>    10.5676     5.3266    89.8285 </r>
       <r>    10.7239     5.1709    90.6370 </r>
       <r>    10.8803     4.4295    91.3295 </r>
       <r>    11.0366     2.4230    91.7084 </r>
       <r>    11.1930     1.2763    91.9079 </r>
       <r>    11.3493     0.5875    91.9998 </r>
       <r>    11.5056     0.0014    92.0000 </r>
       <r>    11.6620     0.0000    92.0000 </r>
       <r>    11.8183     0.0000    92.0000 </r>
       <r>    11.9747     0.0000    92.0000 </r>
       <r>    12.1310     0.0000    92.0000 </r>
       <r>    12.2874     0.0000    92.0000 </r>
       <r>    12.4437     0.0000    92.0000 </r>
       <r>    12.6001     0.0000    92.0000 </r>
       <r>    12.7564     0.0000    92.0000 </r>
       <r>    12.9128     0.0000    92.0000 </r>
       <r>    13.0691     0.0000    92.0000 </r>
       <r>    13.2255     0.0000    92.0000 </r>
       <r>    13.3818     0.0000    92.0000 </r>
      </set>
      <set comment="spin 2">
       <r>   -33.5224     0.0000     0.0000 </r>
       <r>   -33.3660     0.0000     0.0000 </r>
       <r>   -33.2097     0.0000     0.0000 </r>
       <r>   -33.0533     0.0000     0.0000 </r>
       <r>   -32.8970     0.0000     0.0000 </r>
       <r>   -32.7406     0.0000     0.0000 </r>
       <r>   -32.5843     0.0000     0.0000 </r>
       <r>   -32.4279     0.0000     0.0000 </r>
       <r>   -32.2716     0.0000     0.0000 </r>
       <r>   -32.1153     0.0000     0.0000 </r>
       <r>   -31.9589     0.0000     0.0000 </r>
       <r>   -31.8026     0.0000     0.0000 </r>
       <r>   -31.6462     0.0000     0.0000 </r>
       <r>   -31.4899     0.0111     0.0017 </r>
       <r>   -31.3335    11.6864     1.8289 </r>
       <r>   -31.1772     7.4719     2.9971 </r>
       <r>   -31.0208     0.0186     3.0000 </r>
       <r>   -30.8645     0.0000     3.0000 </r>
       <r>   -30.7081     0.0000     3.0000 </r>
       <r>   -30.5518     0.0000     3.0000 </r>
       <r>   -30.3954     0.0000     3.0000 </r>
       <r>   -30.2391     0.0000     3.0000 </r>
       <r>   -30.0827     1.6323     3.2552 </r>
       <r>   -29.9264     4.7631     3.9999 </r>
       <r>   -29.7700     0.0006     4.0000 </r>
       <r>   -29.6137     0.0000     4.0000 </r>
       <r>   -29.4573     0.0000     4.0000 </r>
       <r>   -29.3010     0.0000     4.0000 </r>
       <r>   -29.1447     0.0000     4.0000 </r>
       <r>   -28.9883     0.0000     4.0000 </r>
       <r>   -28.8320     0.0000     4.0000 </r>
       <r>   -28.6756     0.0000     4.0000 </r>
       <r>   -28.5193     0.0000     4.0000 </r>
       <r>   -28.3629     0.0000     4.0000 </r>
       <r>   -28.2066     0.0000     4.0000 </r>
       <r>   -28.0502     0.0000     4.0000 </r>
       <r>   -27.8939     0.0000     4.0000 </r>
       <r>   -27.7375     0.0000     4.0000 </r>
       <r>   -27.5812     0.0000     4.0000 </r>
       <r>   -27.4248     0.0000     4.0000 </r>
       <r>   -27.2685     0.0000     4.0000 </r>
       <r>   -27.1121     0.0000     4.0000 </r>
       <r>   -26.9558     0.0000     4.0000 </r>
       <r>   -26.7994     0.0000     4.0000 </r>
       <r>   -26.6431     0.0000     4.0000 </r>
       <r>   -26.4867     0.0000     4.0000 </r>
       <r>   -26.3304     0.0000     4.0000 </r>
       <r>   -26.1741     0.0000     4.0000 </r>
       <r>   -26.0177     0.0000     4.0000 </r>
       <r>   -25.8614     0.0000     4.0000 </r>
       <r>   -25.7050     0.0000     4.0000 </r>
       <r>   -25.5487     0.0000     4.0000 </r>
       <r>   -25.3923     0.0000     4.0000 </r>
       <r>   -25.2360     0.0000     4.0000 </r>
       <r>   -25.0796     0.0000     4.0000 </r>
       <r>   -24.9233     0.0000     4.0000 </r>
       <r>   -24.7669     0.0000     4.0000 </r>
       <r>   -24.6106     0.0000     4.0000 </r>
       <r>   -24.4542     0.0000     4.0000 </r>
       <r>   -24.2979     0.0000     4.0000 </r>
       <r>   -24.1415     0.0000     4.0000 </r>
       <r>   -23.9852     0.0000     4.0000 </r>
       <r>   -23.8288     0.0000     4.0000 </r>
       <r>   -23.6725     0.0000     4.0000 </r>
       <r>   -23.5161     0.0000     4.0000 </r>
       <r>   -23.3598     0.0000     4.0000 </r>
       <r>   -23.2035     0.0000     4.0000 </r>
       <r>   -23.0471     0.0000     4.0000 </r>
       <r>   -22.8908     0.0000     4.0000 </r>
       <r>   -22.7344     0.0000     4.0000 </r>
       <r>   -22.5781     0.0000     4.0000 </r>
       <r>   -22.4217     0.0000     4.0000 </r>
       <r>   -22.2654     0.0000     4.0000 </r>
       <r>   -22.1090     0.0000     4.0000 </r>
       <r>   -21.9527     0.0000     4.0000 </r>
       <r>   -21.7963     0.0000     4.0000 </r>
       <r>   -21.6400     0.0000     4.0000 </r>
       <r>   -21.4836     0.0000     4.0000 </r>
       <r>   -21.3273     0.0000     4.0000 </r>
       <r>   -21.1709     0.0000     4.0000 </r>
       <r>   -21.0146     0.0000     4.0000 </r>
       <r>   -20.8582     0.0000     4.0000 </r>
       <r>   -20.7019     0.0000     4.0000 </r>
       <r>   -20.5456     0.0000     4.0000 </r>
       <r>   -20.3892     0.0000     4.0000 </r>
       <r>   -20.2329     0.0000     4.0000 </r>
       <r>   -20.0765     0.0000     4.0000 </r>
       <r>   -19.9202     0.0000     4.0000 </r>
       <r>   -19.7638     0.0000     4.0000 </r>
       <r>   -19.6075     0.0000     4.0000 </r>
       <r>   -19.4511     0.0000     4.0000 </r>
       <r>   -19.2948     0.0000     4.0000 </r>
       <r>   -19.1384     0.0000     4.0000 </r>
       <r>   -18.9821     0.0000     4.0000 </r>
       <r>   -18.8257     0.0000     4.0000 </r>
       <r>   -18.6694     0.0000     4.0000 </r>
       <r>   -18.5130     0.0000     4.0000 </r>
       <r>   -18.3567     0.0000     4.0000 </r>
       <r>   -18.2003     0.0000     4.0000 </r>
       <r>   -18.0440     0.0000     4.0000 </r>
       <r>   -17.8876     0.0000     4.0000 </r>
       <r>   -17.7313     0.0000     4.0000 </r>
       <r>   -17.5750     0.0000     4.0000 </r>
       <r>   -17.4186     0.0000     4.0000 </r>
       <r>   -17.2623     0.0000     4.0000 </r>
       <r>   -17.1059     0.0000     4.0000 </r>
       <r>   -16.9496     0.0000     4.0000 </r>
       <r>   -16.7932     0.0000     4.0000 </r>
       <r>   -16.6369     0.0000     4.0000 </r>
       <r>   -16.4805     0.0000     4.0000 </r>
       <r>   -16.3242     0.0000     4.0000 </r>
       <r>   -16.1678     0.0000     4.0000 </r>
       <r>   -16.0115     0.0000     4.0000 </r>
       <r>   -15.8551     0.0000     4.0000 </r>
       <r>   -15.6988     0.0000     4.0000 </r>
       <r>   -15.5424     0.0000     4.0000 </r>
       <r>   -15.3861     0.0000     4.0000 </r>
       <r>   -15.2297     0.0000     4.0000 </r>
       <r>   -15.0734     0.0000     4.0000 </r>
       <r>   -14.9170     0.4294     4.0671 </r>
       <r>   -14.7607     3.1432     4.5586 </r>
       <r>   -14.6044     7.3345     5.7053 </r>
       <r>   -14.4480     6.8966     6.7836 </r>
       <r>   -14.2917     4.9839     7.5628 </r>
       <r>   -14.1353     5.0132     8.3466 </r>
       <r>   -13.9790     7.6881     9.5486 </r>
       <r>   -13.8226     8.5309    10.8824 </r>
       <r>   -13.6663     8.9924    12.2883 </r>
       <r>   -13.5099     4.4260    12.9803 </r>
       <r>   -13.3536     5.5640    13.8502 </r>
       <r>   -13.1972    16.7411    16.4677 </r>
       <r>   -13.0409    14.4138    18.7212 </r>
       <r>   -12.8845    13.7315    20.8681 </r>
       <r>   -12.7282     6.7150    21.9180 </r>
       <r>   -12.5718     0.5245    22.0000 </r>
       <r>   -12.4155     0.0000    22.0000 </r>
       <r>   -12.2591     0.0000    22.0000 </r>
       <r>   -12.1028     0.0026    22.0004 </r>
       <r>   -11.9464     6.0458    22.9457 </r>
       <r>   -11.7901    12.7061    24.9322 </r>
       <r>   -11.6338     0.4335    25.0000 </r>
       <r>   -11.4774     0.0000    25.0000 </r>
       <r>   -11.3211     0.0000    25.0000 </r>
       <r>   -11.1647     0.0000    25.0000 </r>
       <r>   -11.0084     0.0000    25.0000 </r>
       <r>   -10.8520     0.0000    25.0000 </r>
       <r>   -10.6957     0.0000    25.0000 </r>
       <r>   -10.5393     0.0000    25.0000 </r>
       <r>   -10.3830     0.0000    25.0000 </r>
       <r>   -10.2266     0.0000    25.0000 </r>
       <r>   -10.0703     0.0000    25.0000 </r>
       <r>    -9.9139     0.0000    25.0000 </r>
       <r>    -9.7576     0.0000    25.0000 </r>
       <r>    -9.6012     0.0000    25.0000 </r>
       <r>    -9.4449     0.0000    25.0000 </r>
       <r>    -9.2885     0.0000    25.0000 </r>
       <r>    -9.1322     0.0000    25.0000 </r>
       <r>    -8.9759     0.0000    25.0000 </r>
       <r>    -8.8195     0.0000    25.0000 </r>
       <r>    -8.6632     0.0000    25.0000 </r>
       <r>    -8.5068     0.0000    25.0000 </r>
       <r>    -8.3505     0.0000    25.0000 </r>
       <r>    -8.1941     0.0000    25.0000 </r>
       <r>    -8.0378     0.0000    25.0000 </r>
       <r>    -7.8814     0.0000    25.0000 </r>
       <r>    -7.7251     0.0000    25.0000 </r>
       <r>    -7.5687     0.0000    25.0000 </r>
       <r>    -7.4124     0.0000    25.0000 </r>
       <r>    -7.2560     0.0000    25.0000 </r>
       <r>    -7.0997     0.0000    25.0000 </r>
       <r>    -6.9433     0.0000    25.0000 </r>
       <r>    -6.7870     0.0000    25.0000 </r>
       <r>    -6.6306     0.0000    25.0000 </r>
       <r>    -6.4743     0.0000    25.0000 </r>
       <r>    -6.3179     0.0000    25.0000 </r>
       <r>    -6.1616     0.0000    25.0000 </r>
       <r>    -6.0053     0.0000    25.0000 </r>
       <r>    -5.8489     0.0000    25.0000 </r>
       <r>    -5.6926     0.0000    25.0000 </r>
       <r>    -5.5362     0.0000    25.0000 </r>
       <r>    -5.3799     0.0000    25.0000 </r>
       <r>    -5.2235     0.0000    25.0000 </r>
       <r>    -5.0672     0.0000    25.0000 </r>
       <r>    -4.9108     0.0000    25.0000 </r>
       <r>    -4.7545     0.0000    25.0000 </r>
       <r>    -4.5981     0.0000    25.0000 </r>
       <r>    -4.4418     0.0000    25.0000 </r>
       <r>    -4.2854     0.0000    25.0000 </r>
       <r>    -4.1291     0.0000    25.0000 </r>
       <r>    -3.9727     0.0000    25.0000 </r>
       <r>    -3.8164     0.0000    25.0000 </r>
       <r>    -3.6600     0.0000    25.0000 </r>
       <r>    -3.5037     0.0000    25.0000 </r>
       <r>    -3.3473     0.0000    25.0000 </r>
       <r>    -3.1910     0.0000    25.0000 </r>
       <r>    -3.0347     0.0708    25.0111 </r>
       <r>    -2.8783     1.5472    25.2530 </r>
       <r>    -2.7220     1.6193    25.5061 </r>
       <r>    -2.5656     5.4578    26.3595 </r>
       <r>    -2.4093     5.3568    27.1970 </r>
       <r>    -2.2529     1.3160    27.4027 </r>
       <r>    -2.0966     2.6050    27.8100 </r>
       <r>    -1.9402     8.0169    29.0634 </r>
       <r>    -1.7839    15.1012    31.4245 </r>
       <r>    -1.6275    13.9981    33.6130 </r>
       <r>    -1.4712    11.6014    35.4269 </r>
       <r>    -1.3148    15.5045    37.8510 </r>
       <r>    -1.1585    15.1201    40.2149 </r>
       <r>    -1.0021     8.9869    41.6200 </r>
       <r>    -0.8458    11.3338    43.3920 </r>
       <r>    -0.6894     9.6576    44.9020 </r>
       <r>    -0.5331     4.2899    45.5727 </r>
       <r>    -0.3767     2.4271    45.9521 </r>
       <r>    -0.2204     3.1585    46.4460 </r>
       <r>    -0.0641     2.3372    46.8114 </r>
       <r>     0.0923     4.1005    47.4525 </r>
       <r>     0.2486     5.7604    48.3531 </r>
       <r>     0.4050     5.6218    49.2321 </r>
       <r>     0.5613     5.5285    50.0964 </r>
       <r>     0.7177     5.7908    51.0018 </r>
       <r>     0.8740     8.2387    52.2899 </r>
       <r>     1.0304    10.2733    53.8961 </r>
       <r>     1.1867    13.5886    56.0207 </r>
       <r>     1.3431    11.8421    57.8721 </r>
       <r>     1.4994    14.5284    60.1436 </r>
       <r>     1.6558    13.8808    62.3139 </r>
       <r>     1.8121    11.2618    64.0746 </r>
       <r>     1.9685    13.0819    66.1199 </r>
       <r>     2.1248     7.2168    67.2482 </r>
       <r>     2.2812     4.0397    67.8798 </r>
       <r>     2.4375     4.5533    68.5917 </r>
       <r>     2.5938     1.9377    68.8947 </r>
       <r>     2.7502     3.2577    69.4040 </r>
       <r>     2.9065     5.4935    70.2629 </r>
       <r>     3.0629     2.1890    70.6052 </r>
       <r>     3.2192     3.9095    71.2164 </r>
       <r>     3.3756     2.3246    71.5798 </r>
       <r>     3.5319     0.1641    71.6055 </r>
       <r>     3.6883     0.1070    71.6222 </r>
       <r>     3.8446     0.0359    71.6278 </r>
       <r>     4.0010     2.8240    72.0694 </r>
       <r>     4.1573     0.6105    72.1648 </r>
       <r>     4.3137     0.3224    72.2152 </r>
       <r>     4.4700     2.2004    72.5593 </r>
       <r>     4.6264     0.4284    72.6262 </r>
       <r>     4.7827     0.3996    72.6887 </r>
       <r>     4.9391     0.7142    72.8004 </r>
       <r>     5.0954     1.5143    73.0371 </r>
       <r>     5.2518     2.5600    73.4374 </r>
       <r>     5.4081     0.9005    73.5782 </r>
       <r>     5.5644     0.8739    73.7148 </r>
       <r>     5.7208     1.2961    73.9175 </r>
       <r>     5.8771     1.1587    74.0986 </r>
       <r>     6.0335     0.8728    74.2351 </r>
       <r>     6.1898     1.2592    74.4320 </r>
       <r>     6.3462     1.7098    74.6993 </r>
       <r>     6.5025     1.6995    74.9650 </r>
       <r>     6.6589     0.2240    75.0000 </r>
       <r>     6.8152     0.0000    75.0000 </r>
       <r>     6.9716     0.0462    75.0072 </r>
       <r>     7.1279     0.7975    75.1319 </r>
       <r>     7.2843     0.3797    75.1913 </r>
       <r>     7.4406     2.3393    75.5570 </r>
       <r>     7.5970     1.5139    75.7937 </r>
       <r>     7.7533     2.7246    76.2197 </r>
       <r>     7.9097     3.7506    76.8061 </r>
       <r>     8.0660     5.8557    77.7216 </r>
       <r>     8.2224     4.2575    78.3873 </r>
       <r>     8.3787     3.0452    78.8634 </r>
       <r>     8.5350     3.6719    79.4374 </r>
       <r>     8.6914     4.0667    80.0733 </r>
       <r>     8.8477     3.8820    80.6802 </r>
       <r>     9.0041     3.1758    81.1767 </r>
       <r>     9.1604     4.3328    81.8541 </r>
       <r>     9.3168     6.4214    82.8581 </r>
       <r>     9.4731     5.1714    83.6666 </r>
       <r>     9.6295     4.3217    84.3423 </r>
       <r>     9.7858     6.0557    85.2891 </r>
       <r>     9.9422     6.4475    86.2972 </r>
       <r>    10.0985     4.9597    87.0726 </r>
       <r>    10.2549     7.0050    88.1678 </r>
       <r>    10.4112     5.0718    88.9608 </r>
       <r>    10.5676     5.1059    89.7591 </r>
       <r>    10.7239     5.6651    90.6448 </r>
       <r>    10.8803     4.0373    91.2760 </r>
       <r>    11.0366     2.6322    91.6875 </r>
       <r>    11.1930     1.6213    91.9410 </r>
       <r>    11.3493     0.3771    92.0000 </r>
       <r>    11.5056     0.0000    92.0000 </r>
       <r>    11.6620     0.0000    92.0000 </r>
       <r>    11.8183     0.0000    92.0000 </r>
       <r>    11.9747     0.0000    92.0000 </r>
       <r>    12.1310     0.0000    92.0000 </r>
       <r>    12.2874     0.0000    92.0000 </r>
       <r>    12.4437     0.0000    92.0000 </r>
       <r>    12.6001     0.0000    92.0000 </r>
       <r>    12.7564     0.0000    92.0000 </r>
       <r>    12.9128     0.0000    92.0000 </r>
       <r>    13.0691     0.0000    92.0000 </r>
       <r>    13.2255     0.0000    92.0000 </r>
       <r>    13.3818     0.0000    92.0000 </r>
      </set>
     </set>
    </array>
   </total>
  </dos>
 </calculation>
 <structure name="finalpos" >
  <crystal>
   <varray name="basis" >
    <v>       8.00000000       0.00000000       0.00000000 </v>
    <v>       0.00000000       4.00000000       0.00000000 </v>
    <v>      -4.00000000       0.00000000       8.00000000 </v>
   </varray>
   <i name="volume">    256.00000000 </i>
   <varray name="rec_basis" >
    <v>       0.12500000       0.00000000       0.06250000 </v>
    <v>       0.00000000       0.25000000       0.00000000 </v>
    <v>       0.00000000       0.00000000       0.12500000 </v>
   </varray>
  </crystal>
  <varray name="positions" >
   <v>       0.75000000       0.00000000       0.00000000 </v>
   <v>       0.50000000       0.00000000       0.50000000 </v>
   <v>       0.25000000       0.00000000       0.00000000 </v>
   <v>       0.00000000       0.00000000       0.50000000 </v>
   <v>       0.87500000       0.50000000       0.75000000 </v>
   <v>       0.62500000       0.50000000       0.25000000 </v>
   <v>       0.37500000       0.50000000       0.75000000 </v>
   <v>       0.12500000       0.50000000       0.25000000 </v>
   <v>       0.75000000       0.50000000       0.50000000 </v>
   <v>       0.50000000       0.50000000       0.00000000 </v>
   <v>       0.25000000       0.50000000       0.50000000 </v>
   <v>       0.87500000       0.00000000       0.75000000 </v>
   <v>       0.62500000       0.00000000       0.25000000 </v>
   <v>       0.37500000       0.00000000       0.75000000 </v>
   <v>       0.12500000       0.00000000       0.25000000 </v>
   <v>       0.12500000       0.50000000       0.75000000 </v>
   <v>       0.87500000       0.50000000       0.25000000 </v>
  </varray>
 </structure>
</modeling>
