<?xml version="1.0" encoding="ISO-8859-1"?>
<modeling>
 <generator>
  <i name="program" type="string">vasp </i>
  <i name="version" type="string">5.3.5  </i>
  <i name="subversion" type="string">31Mar14 (build Jun 20 2014 13:15:13) complex                          parallel </i>
  <i name="platform" type="string">LinuxIFC </i>
  <i name="date" type="string">2025 11 21 </i>
  <i name="time" type="string">11:25:49 </i>
 </generator>
 <incar>
  <i type="string" name="PREC">accurate</i>
  <i type="int" name="IALGO">    68</i>
  <i type="logical" name="ADDGRID"> T  </i>
  <i type="int" name="NELM">   100</i>
  <i type="int" name="NELMIN">     4</i>
  <i type="int" name="IBRION">     2</i>
  <i name="EDIFF">      0.00000100</i>
  <i name="EDIFFG">     -0.02000000</i>
  <i type="int" name="NSW">    30</i>
  <i type="int" name="ISIF">     3</i>
  <i name="ENCUT">    500.00000000</i>
  <i type="logical" name="LREAL"> F  </i>
  <i type="int" name="ISMEAR">     1</i>
  <i name="SIGMA">      0.30000000</i>
  <i type="logical" name="LWAVE"> F  </i>
  <i type="logical" name="LCHARG"> F  </i>
  <i type="int" name="NELM">   100</i>
 </incar>
 <kpoints>
  <generation param="Auto">
   <i name="subdivisionlength">     70.00000000 </i>
   <v type="int" name="divisions">      28       28        5 </v>
   <v name="usershift">      0.00000000       0.00000000       0.00000000 </v>
   <v name="genvec1">      0.03571429       0.00000000       0.00000000 </v>
   <v name="genvec2">      0.00000000       0.03571429       0.00000000 </v>
   <v name="genvec3">      0.00000000       0.00000000       0.20000000 </v>
   <v name="shift">      0.00000000       0.00000000       0.00000000 </v>
  </generation>
  <varray name="kpointlist" >
   <v>       0.00000000       0.00000000       0.00000000 </v>
   <v>       0.03571429       0.00000000       0.00000000 </v>
   <v>       0.07142857       0.00000000       0.00000000 </v>
   <v>       0.10714286       0.00000000       0.00000000 </v>
   <v>       0.14285714       0.00000000       0.00000000 </v>
   <v>       0.17857143       0.00000000       0.00000000 </v>
   <v>       0.21428571       0.00000000       0.00000000 </v>
   <v>       0.25000000       0.00000000       0.00000000 </v>
   <v>       0.28571429       0.00000000       0.00000000 </v>
   <v>       0.32142857       0.00000000       0.00000000 </v>
   <v>       0.35714286       0.00000000       0.00000000 </v>
   <v>       0.39285714       0.00000000       0.00000000 </v>
   <v>       0.42857143       0.00000000       0.00000000 </v>
   <v>       0.46428571       0.00000000       0.00000000 </v>
   <v>       0.50000000       0.00000000       0.00000000 </v>
   <v>       0.03571429       0.03571429       0.00000000 </v>
   <v>       0.07142857       0.03571429       0.00000000 </v>
   <v>       0.10714286       0.03571429       0.00000000 </v>
   <v>       0.14285714       0.03571429       0.00000000 </v>
   <v>       0.17857143       0.03571429       0.00000000 </v>
   <v>       0.21428571       0.03571429       0.00000000 </v>
   <v>       0.25000000       0.03571429       0.00000000 </v>
   <v>       0.28571429       0.03571429       0.00000000 </v>
   <v>       0.32142857       0.03571429       0.00000000 </v>
   <v>       0.35714286       0.03571429       0.00000000 </v>
   <v>       0.39285714       0.03571429       0.00000000 </v>
   <v>       0.42857143       0.03571429       0.00000000 </v>
   <v>       0.46428571       0.03571429       0.00000000 </v>
   <v>       0.07142857       0.07142857       0.00000000 </v>
   <v>       0.10714286       0.07142857       0.00000000 </v>
   <v>       0.14285714       0.07142857       0.00000000 </v>
   <v>       0.17857143       0.07142857       0.00000000 </v>
   <v>       0.21428571       0.07142857       0.00000000 </v>
   <v>       0.25000000       0.07142857       0.00000000 </v>
   <v>       0.28571429       0.07142857       0.00000000 </v>
   <v>       0.32142857       0.07142857       0.00000000 </v>
   <v>       0.35714286       0.07142857       0.00000000 </v>
   <v>       0.39285714       0.07142857       0.00000000 </v>
   <v>       0.42857143       0.07142857       0.00000000 </v>
   <v>       0.46428571       0.07142857       0.00000000 </v>
   <v>       0.10714286       0.10714286       0.00000000 </v>
   <v>       0.14285714       0.10714286       0.00000000 </v>
   <v>       0.17857143       0.10714286       0.00000000 </v>
   <v>       0.21428571       0.10714286       0.00000000 </v>
   <v>       0.25000000       0.10714286       0.00000000 </v>
   <v>       0.28571429       0.10714286       0.00000000 </v>
   <v>       0.32142857       0.10714286       0.00000000 </v>
   <v>       0.35714286       0.10714286       0.00000000 </v>
   <v>       0.39285714       0.10714286       0.00000000 </v>
   <v>       0.42857143       0.10714286       0.00000000 </v>
   <v>       0.14285714       0.14285714       0.00000000 </v>
   <v>       0.17857143       0.14285714       0.00000000 </v>
   <v>       0.21428571       0.14285714       0.00000000 </v>
   <v>       0.25000000       0.14285714       0.00000000 </v>
   <v>       0.28571429       0.14285714       0.00000000 </v>
   <v>       0.32142857       0.14285714       0.00000000 </v>
   <v>       0.35714286       0.14285714       0.00000000 </v>
   <v>       0.39285714       0.14285714       0.00000000 </v>
   <v>       0.42857143       0.14285714       0.00000000 </v>
   <v>       0.17857143       0.17857143       0.00000000 </v>
   <v>       0.21428571       0.17857143       0.00000000 </v>
   <v>       0.25000000       0.17857143       0.00000000 </v>
   <v>       0.28571429       0.17857143       0.00000000 </v>
   <v>       0.32142857       0.17857143       0.00000000 </v>
   <v>       0.35714286       0.17857143       0.00000000 </v>
   <v>       0.39285714       0.17857143       0.00000000 </v>
   <v>       0.21428571       0.21428571       0.00000000 </v>
   <v>       0.25000000       0.21428571       0.00000000 </v>
   <v>       0.28571429       0.21428571       0.00000000 </v>
   <v>       0.32142857       0.21428571       0.00000000 </v>
   <v>       0.35714286       0.21428571       0.00000000 </v>
   <v>       0.39285714       0.21428571       0.00000000 </v>
   <v>       0.25000000       0.25000000       0.00000000 </v>
   <v>       0.28571429       0.25000000       0.00000000 </v>
   <v>       0.32142857       0.25000000       0.00000000 </v>
   <v>       0.35714286       0.25000000       0.00000000 </v>
   <v>       0.28571429       0.28571429       0.00000000 </v>
   <v>       0.32142857       0.28571429       0.00000000 </v>
   <v>       0.35714286       0.28571429       0.00000000 </v>
   <v>       0.32142857       0.32142857       0.00000000 </v>
   <v>       0.00000000       0.00000000       0.20000000 </v>
   <v>       0.03571429       0.00000000       0.20000000 </v>
   <v>       0.07142857       0.00000000       0.20000000 </v>
   <v>       0.10714286       0.00000000       0.20000000 </v>
   <v>       0.14285714       0.00000000       0.20000000 </v>
   <v>       0.17857143       0.00000000       0.20000000 </v>
   <v>       0.21428571       0.00000000       0.20000000 </v>
   <v>       0.25000000       0.00000000       0.20000000 </v>
   <v>       0.28571429       0.00000000       0.20000000 </v>
   <v>       0.32142857       0.00000000       0.20000000 </v>
   <v>       0.35714286       0.00000000       0.20000000 </v>
   <v>       0.39285714       0.00000000       0.20000000 </v>
   <v>       0.42857143       0.00000000       0.20000000 </v>
   <v>       0.46428571       0.00000000       0.20000000 </v>
   <v>       0.50000000       0.00000000       0.20000000 </v>
   <v>      -0.46428571       0.00000000       0.20000000 </v>
   <v>      -0.42857143       0.00000000       0.20000000 </v>
   <v>      -0.39285714       0.00000000       0.20000000 </v>
   <v>      -0.35714286       0.00000000       0.20000000 </v>
   <v>      -0.32142857       0.00000000       0.20000000 </v>
   <v>      -0.28571429       0.00000000       0.20000000 </v>
   <v>      -0.25000000       0.00000000       0.20000000 </v>
   <v>      -0.21428571       0.00000000       0.20000000 </v>
   <v>      -0.17857143       0.00000000       0.20000000 </v>
   <v>      -0.14285714       0.00000000       0.20000000 </v>
   <v>      -0.10714286       0.00000000       0.20000000 </v>
   <v>      -0.07142857       0.00000000       0.20000000 </v>
   <v>      -0.03571429       0.00000000       0.20000000 </v>
   <v>       0.03571429       0.03571429       0.20000000 </v>
   <v>       0.07142857       0.03571429       0.20000000 </v>
   <v>       0.10714286       0.03571429       0.20000000 </v>
   <v>       0.14285714       0.03571429       0.20000000 </v>
   <v>       0.17857143       0.03571429       0.20000000 </v>
   <v>       0.21428571       0.03571429       0.20000000 </v>
   <v>       0.25000000       0.03571429       0.20000000 </v>
   <v>       0.28571429       0.03571429       0.20000000 </v>
   <v>       0.32142857       0.03571429       0.20000000 </v>
   <v>       0.35714286       0.03571429       0.20000000 </v>
   <v>       0.39285714       0.03571429       0.20000000 </v>
   <v>       0.42857143       0.03571429       0.20000000 </v>
   <v>       0.46428571       0.03571429       0.20000000 </v>
   <v>       0.50000000       0.03571429       0.20000000 </v>
   <v>      -0.46428571       0.03571429       0.20000000 </v>
   <v>      -0.42857143       0.03571429       0.20000000 </v>
   <v>      -0.39285714       0.03571429       0.20000000 </v>
   <v>      -0.35714286       0.03571429       0.20000000 </v>
   <v>      -0.32142857       0.03571429       0.20000000 </v>
   <v>      -0.28571429       0.03571429       0.20000000 </v>
   <v>      -0.25000000       0.03571429       0.20000000 </v>
   <v>      -0.21428571       0.03571429       0.20000000 </v>
   <v>      -0.17857143       0.03571429       0.20000000 </v>
   <v>      -0.14285714       0.03571429       0.20000000 </v>
   <v>      -0.10714286       0.03571429       0.20000000 </v>
   <v>       0.07142857       0.07142857       0.20000000 </v>
   <v>       0.10714286       0.07142857       0.20000000 </v>
   <v>       0.14285714       0.07142857       0.20000000 </v>
   <v>       0.17857143       0.07142857       0.20000000 </v>
   <v>       0.21428571       0.07142857       0.20000000 </v>
   <v>       0.25000000       0.07142857       0.20000000 </v>
   <v>       0.28571429       0.07142857       0.20000000 </v>
   <v>       0.32142857       0.07142857       0.20000000 </v>
   <v>       0.35714286       0.07142857       0.20000000 </v>
   <v>       0.39285714       0.07142857       0.20000000 </v>
   <v>       0.42857143       0.07142857       0.20000000 </v>
   <v>       0.46428571       0.07142857       0.20000000 </v>
   <v>       0.50000000       0.07142857       0.20000000 </v>
   <v>      -0.46428571       0.07142857       0.20000000 </v>
   <v>      -0.42857143       0.07142857       0.20000000 </v>
   <v>      -0.39285714       0.07142857       0.20000000 </v>
   <v>      -0.35714286       0.07142857       0.20000000 </v>
   <v>      -0.32142857       0.07142857       0.20000000 </v>
   <v>      -0.28571429       0.07142857       0.20000000 </v>
   <v>      -0.25000000       0.07142857       0.20000000 </v>
   <v>      -0.21428571       0.07142857       0.20000000 </v>
   <v>      -0.17857143       0.07142857       0.20000000 </v>
   <v>       0.10714286       0.10714286       0.20000000 </v>
   <v>       0.14285714       0.10714286       0.20000000 </v>
   <v>       0.17857143       0.10714286       0.20000000 </v>
   <v>       0.21428571       0.10714286       0.20000000 </v>
   <v>       0.25000000       0.10714286       0.20000000 </v>
   <v>       0.28571429       0.10714286       0.20000000 </v>
   <v>       0.32142857       0.10714286       0.20000000 </v>
   <v>       0.35714286       0.10714286       0.20000000 </v>
   <v>       0.39285714       0.10714286       0.20000000 </v>
   <v>       0.42857143       0.10714286       0.20000000 </v>
   <v>       0.46428571       0.10714286       0.20000000 </v>
   <v>       0.50000000       0.10714286       0.20000000 </v>
   <v>      -0.46428571       0.10714286       0.20000000 </v>
   <v>      -0.42857143       0.10714286       0.20000000 </v>
   <v>      -0.39285714       0.10714286       0.20000000 </v>
   <v>      -0.35714286       0.10714286       0.20000000 </v>
   <v>      -0.32142857       0.10714286       0.20000000 </v>
   <v>      -0.28571429       0.10714286       0.20000000 </v>
   <v>      -0.25000000       0.10714286       0.20000000 </v>
   <v>       0.14285714       0.14285714       0.20000000 </v>
   <v>       0.17857143       0.14285714       0.20000000 </v>
   <v>       0.21428571       0.14285714       0.20000000 </v>
   <v>       0.25000000       0.14285714       0.20000000 </v>
   <v>       0.28571429       0.14285714       0.20000000 </v>
   <v>       0.32142857       0.14285714       0.20000000 </v>
   <v>       0.35714286       0.14285714       0.20000000 </v>
   <v>       0.39285714       0.14285714       0.20000000 </v>
   <v>       0.42857143       0.14285714       0.20000000 </v>
   <v>       0.46428571       0.14285714       0.20000000 </v>
   <v>       0.50000000       0.14285714       0.20000000 </v>
   <v>      -0.46428571       0.14285714       0.20000000 </v>
   <v>      -0.42857143       0.14285714       0.20000000 </v>
   <v>      -0.39285714       0.14285714       0.20000000 </v>
   <v>      -0.35714286       0.14285714       0.20000000 </v>
   <v>      -0.32142857       0.14285714       0.20000000 </v>
   <v>       0.17857143       0.17857143       0.20000000 </v>
   <v>       0.21428571       0.17857143       0.20000000 </v>
   <v>       0.25000000       0.17857143       0.20000000 </v>
   <v>       0.28571429       0.17857143       0.20000000 </v>
   <v>       0.32142857       0.17857143       0.20000000 </v>
   <v>       0.35714286       0.17857143       0.20000000 </v>
   <v>       0.39285714       0.17857143       0.20000000 </v>
   <v>       0.42857143       0.17857143       0.20000000 </v>
   <v>       0.46428571       0.17857143       0.20000000 </v>
   <v>       0.50000000       0.17857143       0.20000000 </v>
   <v>      -0.46428571       0.17857143       0.20000000 </v>
   <v>      -0.42857143       0.17857143       0.20000000 </v>
   <v>      -0.39285714       0.17857143       0.20000000 </v>
   <v>       0.21428571       0.21428571       0.20000000 </v>
   <v>       0.25000000       0.21428571       0.20000000 </v>
   <v>       0.28571429       0.21428571       0.20000000 </v>
   <v>       0.32142857       0.21428571       0.20000000 </v>
   <v>       0.35714286       0.21428571       0.20000000 </v>
   <v>       0.39285714       0.21428571       0.20000000 </v>
   <v>       0.42857143       0.21428571       0.20000000 </v>
   <v>       0.46428571       0.21428571       0.20000000 </v>
   <v>       0.50000000       0.21428571       0.20000000 </v>
   <v>      -0.46428571       0.21428571       0.20000000 </v>
   <v>       0.25000000       0.25000000       0.20000000 </v>
   <v>       0.28571429       0.25000000       0.20000000 </v>
   <v>       0.32142857       0.25000000       0.20000000 </v>
   <v>       0.35714286       0.25000000       0.20000000 </v>
   <v>       0.39285714       0.25000000       0.20000000 </v>
   <v>       0.42857143       0.25000000       0.20000000 </v>
   <v>       0.46428571       0.25000000       0.20000000 </v>
   <v>       0.28571429       0.28571429       0.20000000 </v>
   <v>       0.32142857       0.28571429       0.20000000 </v>
   <v>       0.35714286       0.28571429       0.20000000 </v>
   <v>       0.39285714       0.28571429       0.20000000 </v>
   <v>       0.32142857       0.32142857       0.20000000 </v>
   <v>       0.00000000       0.00000000       0.40000000 </v>
   <v>       0.03571429       0.00000000       0.40000000 </v>
   <v>       0.07142857       0.00000000       0.40000000 </v>
   <v>       0.10714286       0.00000000       0.40000000 </v>
   <v>       0.14285714       0.00000000       0.40000000 </v>
   <v>       0.17857143       0.00000000       0.40000000 </v>
   <v>       0.21428571       0.00000000       0.40000000 </v>
   <v>       0.25000000       0.00000000       0.40000000 </v>
   <v>       0.28571429       0.00000000       0.40000000 </v>
   <v>       0.32142857       0.00000000       0.40000000 </v>
   <v>       0.35714286       0.00000000       0.40000000 </v>
   <v>       0.39285714       0.00000000       0.40000000 </v>
   <v>       0.42857143       0.00000000       0.40000000 </v>
   <v>       0.46428571       0.00000000       0.40000000 </v>
   <v>       0.50000000       0.00000000       0.40000000 </v>
   <v>      -0.46428571       0.00000000       0.40000000 </v>
   <v>      -0.42857143       0.00000000       0.40000000 </v>
   <v>      -0.39285714       0.00000000       0.40000000 </v>
   <v>      -0.35714286       0.00000000       0.40000000 </v>
   <v>      -0.32142857       0.00000000       0.40000000 </v>
   <v>      -0.28571429       0.00000000       0.40000000 </v>
   <v>      -0.25000000       0.00000000       0.40000000 </v>
   <v>      -0.21428571       0.00000000       0.40000000 </v>
   <v>      -0.17857143       0.00000000       0.40000000 </v>
   <v>      -0.14285714       0.00000000       0.40000000 </v>
   <v>      -0.10714286       0.00000000       0.40000000 </v>
   <v>      -0.07142857       0.00000000       0.40000000 </v>
   <v>      -0.03571429       0.00000000       0.40000000 </v>
   <v>       0.03571429       0.03571429       0.40000000 </v>
   <v>       0.07142857       0.03571429       0.40000000 </v>
   <v>       0.10714286       0.03571429       0.40000000 </v>
   <v>       0.14285714       0.03571429       0.40000000 </v>
   <v>       0.17857143       0.03571429       0.40000000 </v>
   <v>       0.21428571       0.03571429       0.40000000 </v>
   <v>       0.25000000       0.03571429       0.40000000 </v>
   <v>       0.28571429       0.03571429       0.40000000 </v>
   <v>       0.32142857       0.03571429       0.40000000 </v>
   <v>       0.35714286       0.03571429       0.40000000 </v>
   <v>       0.39285714       0.03571429       0.40000000 </v>
   <v>       0.42857143       0.03571429       0.40000000 </v>
   <v>       0.46428571       0.03571429       0.40000000 </v>
   <v>       0.50000000       0.03571429       0.40000000 </v>
   <v>      -0.46428571       0.03571429       0.40000000 </v>
   <v>      -0.42857143       0.03571429       0.40000000 </v>
   <v>      -0.39285714       0.03571429       0.40000000 </v>
   <v>      -0.35714286       0.03571429       0.40000000 </v>
   <v>      -0.32142857       0.03571429       0.40000000 </v>
   <v>      -0.28571429       0.03571429       0.40000000 </v>
   <v>      -0.25000000       0.03571429       0.40000000 </v>
   <v>      -0.21428571       0.03571429       0.40000000 </v>
   <v>      -0.17857143       0.03571429       0.40000000 </v>
   <v>      -0.14285714       0.03571429       0.40000000 </v>
   <v>      -0.10714286       0.03571429       0.40000000 </v>
   <v>       0.07142857       0.07142857       0.40000000 </v>
   <v>       0.10714286       0.07142857       0.40000000 </v>
   <v>       0.14285714       0.07142857       0.40000000 </v>
   <v>       0.17857143       0.07142857       0.40000000 </v>
   <v>       0.21428571       0.07142857       0.40000000 </v>
   <v>       0.25000000       0.07142857       0.40000000 </v>
   <v>       0.28571429       0.07142857       0.40000000 </v>
   <v>       0.32142857       0.07142857       0.40000000 </v>
   <v>       0.35714286       0.07142857       0.40000000 </v>
   <v>       0.39285714       0.07142857       0.40000000 </v>
   <v>       0.42857143       0.07142857       0.40000000 </v>
   <v>       0.46428571       0.07142857       0.40000000 </v>
   <v>       0.50000000       0.07142857       0.40000000 </v>
   <v>      -0.46428571       0.07142857       0.40000000 </v>
   <v>      -0.42857143       0.07142857       0.40000000 </v>
   <v>      -0.39285714       0.07142857       0.40000000 </v>
   <v>      -0.35714286       0.07142857       0.40000000 </v>
   <v>      -0.32142857       0.07142857       0.40000000 </v>
   <v>      -0.28571429       0.07142857       0.40000000 </v>
   <v>      -0.25000000       0.07142857       0.40000000 </v>
   <v>      -0.21428571       0.07142857       0.40000000 </v>
   <v>      -0.17857143       0.07142857       0.40000000 </v>
   <v>       0.10714286       0.10714286       0.40000000 </v>
   <v>       0.14285714       0.10714286       0.40000000 </v>
   <v>       0.17857143       0.10714286       0.40000000 </v>
   <v>       0.21428571       0.10714286       0.40000000 </v>
   <v>       0.25000000       0.10714286       0.40000000 </v>
   <v>       0.28571429       0.10714286       0.40000000 </v>
   <v>       0.32142857       0.10714286       0.40000000 </v>
   <v>       0.35714286       0.10714286       0.40000000 </v>
   <v>       0.39285714       0.10714286       0.40000000 </v>
   <v>       0.42857143       0.10714286       0.40000000 </v>
   <v>       0.46428571       0.10714286       0.40000000 </v>
   <v>       0.50000000       0.10714286       0.40000000 </v>
   <v>      -0.46428571       0.10714286       0.40000000 </v>
   <v>      -0.42857143       0.10714286       0.40000000 </v>
   <v>      -0.39285714       0.10714286       0.40000000 </v>
   <v>      -0.35714286       0.10714286       0.40000000 </v>
   <v>      -0.32142857       0.10714286       0.40000000 </v>
   <v>      -0.28571429       0.10714286       0.40000000 </v>
   <v>      -0.25000000       0.10714286       0.40000000 </v>
   <v>       0.14285714       0.14285714       0.40000000 </v>
   <v>       0.17857143       0.14285714       0.40000000 </v>
   <v>       0.21428571       0.14285714       0.40000000 </v>
   <v>       0.25000000       0.14285714       0.40000000 </v>
   <v>       0.28571429       0.14285714       0.40000000 </v>
   <v>       0.32142857       0.14285714       0.40000000 </v>
   <v>       0.35714286       0.14285714       0.40000000 </v>
   <v>       0.39285714       0.14285714       0.40000000 </v>
   <v>       0.42857143       0.14285714       0.40000000 </v>
   <v>       0.46428571       0.14285714       0.40000000 </v>
   <v>       0.50000000       0.14285714       0.40000000 </v>
   <v>      -0.46428571       0.14285714       0.40000000 </v>
   <v>      -0.42857143       0.14285714       0.40000000 </v>
   <v>      -0.39285714       0.14285714       0.40000000 </v>
   <v>      -0.35714286       0.14285714       0.40000000 </v>
   <v>      -0.32142857       0.14285714       0.40000000 </v>
   <v>       0.17857143       0.17857143       0.40000000 </v>
   <v>       0.21428571       0.17857143       0.40000000 </v>
   <v>       0.25000000       0.17857143       0.40000000 </v>
   <v>       0.28571429       0.17857143       0.40000000 </v>
   <v>       0.32142857       0.17857143       0.40000000 </v>
   <v>       0.35714286       0.17857143       0.40000000 </v>
   <v>       0.39285714       0.17857143       0.40000000 </v>
   <v>       0.42857143       0.17857143       0.40000000 </v>
   <v>       0.46428571       0.17857143       0.40000000 </v>
   <v>       0.50000000       0.17857143       0.40000000 </v>
   <v>      -0.46428571       0.17857143       0.40000000 </v>
   <v>      -0.42857143       0.17857143       0.40000000 </v>
   <v>      -0.39285714       0.17857143       0.40000000 </v>
   <v>       0.21428571       0.21428571       0.40000000 </v>
   <v>       0.25000000       0.21428571       0.40000000 </v>
   <v>       0.28571429       0.21428571       0.40000000 </v>
   <v>       0.32142857       0.21428571       0.40000000 </v>
   <v>       0.35714286       0.21428571       0.40000000 </v>
   <v>       0.39285714       0.21428571       0.40000000 </v>
   <v>       0.42857143       0.21428571       0.40000000 </v>
   <v>       0.46428571       0.21428571       0.40000000 </v>
   <v>       0.50000000       0.21428571       0.40000000 </v>
   <v>      -0.46428571       0.21428571       0.40000000 </v>
   <v>       0.25000000       0.25000000       0.40000000 </v>
   <v>       0.28571429       0.25000000       0.40000000 </v>
   <v>       0.32142857       0.25000000       0.40000000 </v>
   <v>       0.35714286       0.25000000       0.40000000 </v>
   <v>       0.39285714       0.25000000       0.40000000 </v>
   <v>       0.42857143       0.25000000       0.40000000 </v>
   <v>       0.46428571       0.25000000       0.40000000 </v>
   <v>       0.28571429       0.28571429       0.40000000 </v>
   <v>       0.32142857       0.28571429       0.40000000 </v>
   <v>       0.35714286       0.28571429       0.40000000 </v>
   <v>       0.39285714       0.28571429       0.40000000 </v>
   <v>       0.32142857       0.32142857       0.40000000 </v>
  </varray>
  <varray name="weights" >
   <v>       0.00025510 </v>
   <v>       0.00153061 </v>
   <v>       0.00153061 </v>
   <v>       0.00153061 </v>
   <v>       0.00153061 </v>
   <v>       0.00153061 </v>
   <v>       0.00153061 </v>
   <v>       0.00153061 </v>
   <v>       0.00153061 </v>
   <v>       0.00153061 </v>
   <v>       0.00153061 </v>
   <v>       0.00153061 </v>
   <v>       0.00153061 </v>
   <v>       0.00153061 </v>
   <v>       0.00076531 </v>
   <v>       0.00153061 </v>
   <v>       0.00306122 </v>
   <v>       0.00306122 </v>
   <v>       0.00306122 </v>
   <v>       0.00306122 </v>
   <v>       0.00306122 </v>
   <v>       0.00306122 </v>
   <v>       0.00306122 </v>
   <v>       0.00306122 </v>
   <v>       0.00306122 </v>
   <v>       0.00306122 </v>
   <v>       0.00306122 </v>
   <v>       0.00306122 </v>
   <v>       0.00153061 </v>
   <v>       0.00306122 </v>
   <v>       0.00306122 </v>
   <v>       0.00306122 </v>
   <v>       0.00306122 </v>
   <v>       0.00306122 </v>
   <v>       0.00306122 </v>
   <v>       0.00306122 </v>
   <v>       0.00306122 </v>
   <v>       0.00306122 </v>
   <v>       0.00306122 </v>
   <v>       0.00153061 </v>
   <v>       0.00153061 </v>
   <v>       0.00306122 </v>
   <v>       0.00306122 </v>
   <v>       0.00306122 </v>
   <v>       0.00306122 </v>
   <v>       0.00306122 </v>
   <v>       0.00306122 </v>
   <v>       0.00306122 </v>
   <v>       0.00306122 </v>
   <v>       0.00306122 </v>
   <v>       0.00153061 </v>
   <v>       0.00306122 </v>
   <v>       0.00306122 </v>
   <v>       0.00306122 </v>
   <v>       0.00306122 </v>
   <v>       0.00306122 </v>
   <v>       0.00306122 </v>
   <v>       0.00306122 </v>
   <v>       0.00153061 </v>
   <v>       0.00153061 </v>
   <v>       0.00306122 </v>
   <v>       0.00306122 </v>
   <v>       0.00306122 </v>
   <v>       0.00306122 </v>
   <v>       0.00306122 </v>
   <v>       0.00306122 </v>
   <v>       0.00153061 </v>
   <v>       0.00306122 </v>
   <v>       0.00306122 </v>
   <v>       0.00306122 </v>
   <v>       0.00306122 </v>
   <v>       0.00153061 </v>
   <v>       0.00153061 </v>
   <v>       0.00306122 </v>
   <v>       0.00306122 </v>
   <v>       0.00306122 </v>
   <v>       0.00153061 </v>
   <v>       0.00306122 </v>
   <v>       0.00153061 </v>
   <v>       0.00153061 </v>
   <v>       0.00051020 </v>
   <v>       0.00153061 </v>
   <v>       0.00153061 </v>
   <v>       0.00153061 </v>
   <v>       0.00153061 </v>
   <v>       0.00153061 </v>
   <v>       0.00153061 </v>
   <v>       0.00153061 </v>
   <v>       0.00153061 </v>
   <v>       0.00153061 </v>
   <v>       0.00153061 </v>
   <v>       0.00153061 </v>
   <v>       0.00153061 </v>
   <v>       0.00153061 </v>
   <v>       0.00153061 </v>
   <v>       0.00153061 </v>
   <v>       0.00153061 </v>
   <v>       0.00153061 </v>
   <v>       0.00153061 </v>
   <v>       0.00153061 </v>
   <v>       0.00153061 </v>
   <v>       0.00153061 </v>
   <v>       0.00153061 </v>
   <v>       0.00153061 </v>
   <v>       0.00153061 </v>
   <v>       0.00153061 </v>
   <v>       0.00153061 </v>
   <v>       0.00153061 </v>
   <v>       0.00306122 </v>
   <v>       0.00306122 </v>
   <v>       0.00306122 </v>
   <v>       0.00306122 </v>
   <v>       0.00306122 </v>
   <v>       0.00306122 </v>
   <v>       0.00306122 </v>
   <v>       0.00306122 </v>
   <v>       0.00306122 </v>
   <v>       0.00306122 </v>
   <v>       0.00306122 </v>
   <v>       0.00306122 </v>
   <v>       0.00306122 </v>
   <v>       0.00306122 </v>
   <v>       0.00306122 </v>
   <v>       0.00306122 </v>
   <v>       0.00306122 </v>
   <v>       0.00306122 </v>
   <v>       0.00306122 </v>
   <v>       0.00306122 </v>
   <v>       0.00306122 </v>
   <v>       0.00306122 </v>
   <v>       0.00306122 </v>
   <v>       0.00306122 </v>
   <v>       0.00306122 </v>
   <v>       0.00306122 </v>
   <v>       0.00306122 </v>
   <v>       0.00306122 </v>
   <v>       0.00306122 </v>
   <v>       0.00306122 </v>
   <v>       0.00306122 </v>
   <v>       0.00306122 </v>
   <v>       0.00306122 </v>
   <v>       0.00306122 </v>
   <v>       0.00306122 </v>
   <v>       0.00306122 </v>
   <v>       0.00306122 </v>
   <v>       0.00306122 </v>
   <v>       0.00306122 </v>
   <v>       0.00306122 </v>
   <v>       0.00306122 </v>
   <v>       0.00306122 </v>
   <v>       0.00306122 </v>
   <v>       0.00306122 </v>
   <v>       0.00306122 </v>
   <v>       0.00306122 </v>
   <v>       0.00306122 </v>
   <v>       0.00306122 </v>
   <v>       0.00306122 </v>
   <v>       0.00306122 </v>
   <v>       0.00306122 </v>
   <v>       0.00306122 </v>
   <v>       0.00306122 </v>
   <v>       0.00306122 </v>
   <v>       0.00306122 </v>
   <v>       0.00306122 </v>
   <v>       0.00306122 </v>
   <v>       0.00306122 </v>
   <v>       0.00306122 </v>
   <v>       0.00306122 </v>
   <v>       0.00306122 </v>
   <v>       0.00306122 </v>
   <v>       0.00306122 </v>
   <v>       0.00306122 </v>
   <v>       0.00306122 </v>
   <v>       0.00306122 </v>
   <v>       0.00306122 </v>
   <v>       0.00306122 </v>
   <v>       0.00306122 </v>
   <v>       0.00306122 </v>
   <v>       0.00306122 </v>
   <v>       0.00306122 </v>
   <v>       0.00306122 </v>
   <v>       0.00306122 </v>
   <v>       0.00306122 </v>
   <v>       0.00306122 </v>
   <v>       0.00306122 </v>
   <v>       0.00306122 </v>
   <v>       0.00306122 </v>
   <v>       0.00306122 </v>
   <v>       0.00306122 </v>
   <v>       0.00306122 </v>
   <v>       0.00306122 </v>
   <v>       0.00306122 </v>
   <v>       0.00306122 </v>
   <v>       0.00306122 </v>
   <v>       0.00306122 </v>
   <v>       0.00306122 </v>
   <v>       0.00306122 </v>
   <v>       0.00306122 </v>
   <v>       0.00306122 </v>
   <v>       0.00306122 </v>
   <v>       0.00306122 </v>
   <v>       0.00306122 </v>
   <v>       0.00306122 </v>
   <v>       0.00306122 </v>
   <v>       0.00306122 </v>
   <v>       0.00306122 </v>
   <v>       0.00306122 </v>
   <v>       0.00306122 </v>
   <v>       0.00306122 </v>
   <v>       0.00306122 </v>
   <v>       0.00306122 </v>
   <v>       0.00306122 </v>
   <v>       0.00306122 </v>
   <v>       0.00306122 </v>
   <v>       0.00306122 </v>
   <v>       0.00306122 </v>
   <v>       0.00306122 </v>
   <v>       0.00306122 </v>
   <v>       0.00306122 </v>
   <v>       0.00306122 </v>
   <v>       0.00306122 </v>
   <v>       0.00306122 </v>
   <v>       0.00306122 </v>
   <v>       0.00306122 </v>
   <v>       0.00306122 </v>
   <v>       0.00051020 </v>
   <v>       0.00153061 </v>
   <v>       0.00153061 </v>
   <v>       0.00153061 </v>
   <v>       0.00153061 </v>
   <v>       0.00153061 </v>
   <v>       0.00153061 </v>
   <v>       0.00153061 </v>
   <v>       0.00153061 </v>
   <v>       0.00153061 </v>
   <v>       0.00153061 </v>
   <v>       0.00153061 </v>
   <v>       0.00153061 </v>
   <v>       0.00153061 </v>
   <v>       0.00153061 </v>
   <v>       0.00153061 </v>
   <v>       0.00153061 </v>
   <v>       0.00153061 </v>
   <v>       0.00153061 </v>
   <v>       0.00153061 </v>
   <v>       0.00153061 </v>
   <v>       0.00153061 </v>
   <v>       0.00153061 </v>
   <v>       0.00153061 </v>
   <v>       0.00153061 </v>
   <v>       0.00153061 </v>
   <v>       0.00153061 </v>
   <v>       0.00153061 </v>
   <v>       0.00306122 </v>
   <v>       0.00306122 </v>
   <v>       0.00306122 </v>
   <v>       0.00306122 </v>
   <v>       0.00306122 </v>
   <v>       0.00306122 </v>
   <v>       0.00306122 </v>
   <v>       0.00306122 </v>
   <v>       0.00306122 </v>
   <v>       0.00306122 </v>
   <v>       0.00306122 </v>
   <v>       0.00306122 </v>
   <v>       0.00306122 </v>
   <v>       0.00306122 </v>
   <v>       0.00306122 </v>
   <v>       0.00306122 </v>
   <v>       0.00306122 </v>
   <v>       0.00306122 </v>
   <v>       0.00306122 </v>
   <v>       0.00306122 </v>
   <v>       0.00306122 </v>
   <v>       0.00306122 </v>
   <v>       0.00306122 </v>
   <v>       0.00306122 </v>
   <v>       0.00306122 </v>
   <v>       0.00306122 </v>
   <v>       0.00306122 </v>
   <v>       0.00306122 </v>
   <v>       0.00306122 </v>
   <v>       0.00306122 </v>
   <v>       0.00306122 </v>
   <v>       0.00306122 </v>
   <v>       0.00306122 </v>
   <v>       0.00306122 </v>
   <v>       0.00306122 </v>
   <v>       0.00306122 </v>
   <v>       0.00306122 </v>
   <v>       0.00306122 </v>
   <v>       0.00306122 </v>
   <v>       0.00306122 </v>
   <v>       0.00306122 </v>
   <v>       0.00306122 </v>
   <v>       0.00306122 </v>
   <v>       0.00306122 </v>
   <v>       0.00306122 </v>
   <v>       0.00306122 </v>
   <v>       0.00306122 </v>
   <v>       0.00306122 </v>
   <v>       0.00306122 </v>
   <v>       0.00306122 </v>
   <v>       0.00306122 </v>
   <v>       0.00306122 </v>
   <v>       0.00306122 </v>
   <v>       0.00306122 </v>
   <v>       0.00306122 </v>
   <v>       0.00306122 </v>
   <v>       0.00306122 </v>
   <v>       0.00306122 </v>
   <v>       0.00306122 </v>
   <v>       0.00306122 </v>
   <v>       0.00306122 </v>
   <v>       0.00306122 </v>
   <v>       0.00306122 </v>
   <v>       0.00306122 </v>
   <v>       0.00306122 </v>
   <v>       0.00306122 </v>
   <v>       0.00306122 </v>
   <v>       0.00306122 </v>
   <v>       0.00306122 </v>
   <v>       0.00306122 </v>
   <v>       0.00306122 </v>
   <v>       0.00306122 </v>
   <v>       0.00306122 </v>
   <v>       0.00306122 </v>
   <v>       0.00306122 </v>
   <v>       0.00306122 </v>
   <v>       0.00306122 </v>
   <v>       0.00306122 </v>
   <v>       0.00306122 </v>
   <v>       0.00306122 </v>
   <v>       0.00306122 </v>
   <v>       0.00306122 </v>
   <v>       0.00306122 </v>
   <v>       0.00306122 </v>
   <v>       0.00306122 </v>
   <v>       0.00306122 </v>
   <v>       0.00306122 </v>
   <v>       0.00306122 </v>
   <v>       0.00306122 </v>
   <v>       0.00306122 </v>
   <v>       0.00306122 </v>
   <v>       0.00306122 </v>
   <v>       0.00306122 </v>
   <v>       0.00306122 </v>
   <v>       0.00306122 </v>
   <v>       0.00306122 </v>
   <v>       0.00306122 </v>
   <v>       0.00306122 </v>
   <v>       0.00306122 </v>
   <v>       0.00306122 </v>
   <v>       0.00306122 </v>
   <v>       0.00306122 </v>
   <v>       0.00306122 </v>
   <v>       0.00306122 </v>
   <v>       0.00306122 </v>
   <v>       0.00306122 </v>
   <v>       0.00306122 </v>
   <v>       0.00306122 </v>
   <v>       0.00306122 </v>
   <v>       0.00306122 </v>
   <v>       0.00306122 </v>
   <v>       0.00306122 </v>
   <v>       0.00306122 </v>
   <v>       0.00306122 </v>
   <v>       0.00306122 </v>
   <v>       0.00306122 </v>
   <v>       0.00306122 </v>
  </varray>
 </kpoints>
 <parameters>
  <separator name="general" >
   <i type="string" name="SYSTEM">unknown system</i>
   <i type="logical" name="LCOMPAT"> F  </i>
  </separator>
  <separator name="electronic" >
   <i type="string" name="PREC">accura</i>
   <i name="ENMAX">    500.00000000</i>
   <i name="ENAUG">    412.49600000</i>
   <i name="EDIFF">      0.00000100</i>
   <i type="int" name="IALGO">    68</i>
   <i type="int" name="IWAVPR">    11</i>
   <i type="int" name="NBANDS">    40</i>
   <i name="NELECT">     66.00000000</i>
   <i type="int" name="TURBO">     0</i>
   <i type="int" name="IRESTART">     0</i>
   <i type="int" name="NREBOOT">     0</i>
   <i type="int" name="NMIN">     0</i>
   <i name="EREF">      0.00000000</i>
   <separator name="electronic smearing" >
    <i type="int" name="ISMEAR">     1</i>
    <i name="SIGMA">      0.30000000</i>
    <i name="KSPACING">      0.50000000</i>
    <i type="logical" name="KGAMMA"> T  </i>
   </separator>
   <separator name="electronic projectors" >
    <i type="logical" name="LREAL"> F  </i>
    <v name="ROPT">      0.00000000      0.00000000</v>
    <i type="int" name="LMAXPAW">  -100</i>
    <i type="int" name="LMAXMIX">     2</i>
    <i type="logical" name="NLSPLINE"> F  </i>
   </separator>
   <separator name="electronic startup" >
    <i type="int" name="ISTART">     0</i>
    <i type="int" name="ICHARG">     2</i>
    <i type="int" name="INIWAV">     1</i>
   </separator>
   <separator name="electronic spin" >
    <i type="int" name="ISPIN">     1</i>
    <i type="logical" name="LNONCOLLINEAR"> F  </i>
    <v name="MAGMOM">      1.00000000      1.00000000      1.00000000      1.00000000      1.00000000      1.00000000</v>
    <i name="NUPDOWN">     -1.00000000</i>
    <i type="logical" name="LSORBIT"> F  </i>
    <v name="SAXIS">      0.00000000      0.00000000      1.00000000</v>
    <i type="logical" name="LSPIRAL"> F  </i>
    <v name="QSPIRAL">      0.00000000      0.00000000      0.00000000</v>
    <i type="logical" name="LZEROZ"> F  </i>
   </separator>
   <separator name="electronic exchange-correlation" >
    <i type="logical" name="LASPH"> F  </i>
    <i type="logical" name="LMETAGGA"> F  </i>
   </separator>
   <separator name="electronic convergence" >
    <i type="int" name="NELM">   100</i>
    <i type="int" name="NELMDL">     0</i>
    <i type="int" name="NELMIN">     4</i>
    <i name="ENINI">    500.00000000</i>
    <separator name="electronic convergence detail" >
     <i type="logical" name="LDIAG"> T  </i>
     <i type="logical" name="LSUBROT"> F  </i>
     <i name="WEIMIN">      0.00100000</i>
     <i name="EBREAK">      0.00000001</i>
     <i name="DEPER">      0.30000000</i>
     <i type="int" name="NRMM">     4</i>
     <i name="TIME">      0.40000000</i>
    </separator>
   </separator>
   <separator name="electronic mixer" >
    <i name="AMIX">      0.40000000</i>
    <i name="BMIX">      1.00000000</i>
    <i name="AMIN">      0.10000000</i>
    <i name="AMIX_MAG">      1.60000000</i>
    <i name="BMIX_MAG">      1.00000000</i>
    <separator name="electronic mixer details" >
     <i type="int" name="IMIX">     4</i>
     <i type="int" name="MAXMIX">   -45</i>
     <i name="WC">    100.00000000</i>
     <i type="int" name="INIMIX">     1</i>
     <i type="int" name="MIXPRE">     1</i>
     <i type="int" name="MREMOVE">     5</i>
    </separator>
   </separator>
   <separator name="electronic dipolcorrection" >
    <i type="logical" name="LDIPOL"> F  </i>
    <i type="logical" name="LMONO"> F  </i>
    <i type="int" name="IDIPOL">     0</i>
    <i name="EPSILON">      1.00000000</i>
    <v name="DIPOL">   -100.00000000   -100.00000000   -100.00000000</v>
    <i name="EFIELD">      0.00000000</i>
   </separator>
  </separator>
  <separator name="grids" >
   <i type="int" name="NGX">    24</i>
   <i type="int" name="NGY">    24</i>
   <i type="int" name="NGZ">   108</i>
   <i type="int" name="NGXF">    48</i>
   <i type="int" name="NGYF">    48</i>
   <i type="int" name="NGZF">   216</i>
   <i type="logical" name="ADDGRID"> T  </i>
  </separator>
  <separator name="ionic" >
   <i type="int" name="NSW">    30</i>
   <i type="int" name="IBRION">     2</i>
   <i type="int" name="ISIF">     3</i>
   <i name="PSTRESS">      0.00000000</i>
   <i name="EDIFFG">     -0.02000000</i>
   <i type="int" name="NFREE">     1</i>
   <i name="POTIM">      0.50000000</i>
   <i name="SMASS">     -3.00000000</i>
   <i name="SCALEE">      1.00000000</i>
  </separator>
  <separator name="ionic md" >
   <i name="TEBEG">      0.00010000</i>
   <i name="TEEND">      0.00010000</i>
   <i type="int" name="NBLOCK">     1</i>
   <i type="int" name="KBLOCK">    30</i>
   <i type="int" name="NPACO">   256</i>
   <i name="APACO">     16.00000000</i>
  </separator>
  <separator name="symmetry" >
   <i type="int" name="ISYM">     2</i>
   <i name="SYMPREC">      0.00001000</i>
  </separator>
  <separator name="dos" >
   <i type="logical" name="LORBIT"> F  </i>
   <v name="RWIGS">     -1.00000000     -1.00000000</v>
   <i type="int" name="NEDOS">   301</i>
   <i name="EMIN">     10.00000000</i>
   <i name="EMAX">    -10.00000000</i>
   <i name="EFERMI">      0.00000000</i>
  </separator>
  <separator name="writing" >
   <i type="int" name="NWRITE">     2</i>
   <i type="logical" name="LWAVE"> F  </i>
   <i type="logical" name="LCHARG"> F  </i>
   <i type="logical" name="LPARD"> F  </i>
   <i type="logical" name="LVTOT"> F  </i>
   <i type="logical" name="LVHAR"> F  </i>
   <i type="logical" name="LELF"> F  </i>
   <i type="logical" name="LOPTICS"> F  </i>
   <v name="STM">      0.00000000      0.00000000      0.00000000      0.00000000      0.00000000      0.00000000      0.00000000</v>
  </separator>
  <separator name="performance" >
   <i type="int" name="NPAR">     4</i>
   <i type="int" name="NSIM">     4</i>
   <i type="int" name="NBLK">    -1</i>
   <i type="logical" name="LPLANE"> T  </i>
   <i type="logical" name="LSCALAPACK"> T  </i>
   <i type="logical" name="LSCAAWARE"> F  </i>
   <i type="logical" name="LSCALU"> F  </i>
   <i type="logical" name="LASYNC"> F  </i>
   <i type="logical" name="LORBITALREAL"> F  </i>
  </separator>
  <separator name="miscellaneous" >
   <i type="int" name="IDIOT">     3</i>
   <i type="logical" name="LMUSIC"> F  </i>
   <v name="POMASS">    107.86800000    196.96600000</v>
   <v name="DARWINR">      0.00000000      0.00000000</v>
   <v name="DARWINV">      1.00000000      1.00000000</v>
   <i type="logical" name="LCORR"> T  </i>
  </separator>
  <i type="logical" name="GGA_COMPAT"> T  </i>
  <i type="logical" name="LBERRY"> F  </i>
  <i type="int" name="ICORELEVEL">     0</i>
  <i type="logical" name="LDAU"> F  </i>
  <i type="int" name="I_CONSTRAINED_M">     0</i>
  <separator name="electronic exchange-correlation" >
   <i type="string" name="GGA">--</i>
   <i type="int" name="VOSKOWN">     0</i>
   <i type="logical" name="LHFCALC"> F  </i>
   <i type="string" name="PRECFOCK"></i>
   <i type="logical" name="LSYMGRAD"> F  </i>
   <i type="logical" name="LHFONE"> F  </i>
   <i type="logical" name="LRHFCALC"> F  </i>
   <i type="logical" name="LTHOMAS"> F  </i>
   <i type="logical" name="LMODELHF"> F  </i>
   <i name="ENCUT4O">     -1.00000000</i>
   <i type="int" name="EXXOEP">     0</i>
   <i type="int" name="FOURORBIT">     0</i>
   <i name="AEXX">      0.00000000</i>
   <i name="HFALPHA">      0.00000000</i>
   <i name="MCALPHA">      0.00000000</i>
   <i name="ALDAX">      1.00000000</i>
   <i name="AGGAX">      1.00000000</i>
   <i name="ALDAC">      1.00000000</i>
   <i name="AGGAC">      1.00000000</i>
   <i type="int" name="NKREDX">     1</i>
   <i type="int" name="NKREDY">     1</i>
   <i type="int" name="NKREDZ">     1</i>
   <i type="logical" name="SHIFTRED"> F  </i>
   <i type="logical" name="ODDONLY"> F  </i>
   <i type="logical" name="EVENONLY"> F  </i>
   <i type="int" name="LMAXFOCK">     0</i>
   <i type="int" name="NMAXFOCKAE">     0</i>
   <i type="logical" name="LFOCKAEDFT"> F  </i>
   <i name="HFSCREEN">      0.00000000</i>
   <i name="HFSCREENC">      0.00000000</i>
   <i type="int" name="NBANDSGWLOW">     0</i>
  </separator>
  <separator name="vdW DFT" >
   <i type="logical" name="LUSE_VDW"> F  </i>
   <i name="Zab_VDW">     -0.84910000</i>
   <i name="PARAM1">      0.12340000</i>
   <i name="PARAM2">      1.00000000</i>
   <i name="PARAM3">      0.00000000</i>
  </separator>
  <separator name="model GW" >
   <i type="int" name="MODEL_GW">     0</i>
   <i name="MODEL_EPS0">     10.67750985</i>
   <i name="MODEL_ALPHA">      1.00000000</i>
  </separator>
  <separator name="linear response parameters" >
   <i type="logical" name="LEPSILON"> F  </i>
   <i type="logical" name="LRPA"> F  </i>
   <i type="logical" name="LNABLA"> F  </i>
   <i type="logical" name="LVEL"> F  </i>
   <i type="int" name="KINTER">     0</i>
   <i name="CSHIFT">      0.10000000</i>
   <i name="OMEGAMAX">     -1.00000000</i>
   <i name="DEG_THRESHOLD">      0.00200000</i>
  </separator>
  <separator name="orbital magnetization" >
   <i type="logical" name="NUCIND"> F  </i>
   <v name="MAGPOS">      0.00000000      0.00000000      0.00000000</v>
   <i type="logical" name="LNICSALL"> T  </i>
   <i type="logical" name="ORBITALMAG"> F  </i>
   <i type="logical" name="LMAGBLOCH"> F  </i>
   <i type="logical" name="LCHIMAG"> F  </i>
   <i type="logical" name="LGAUGE"> T  </i>
   <i type="int" name="MAGATOM">     0</i>
   <v name="MAGDIPOL">      0.00000000      0.00000000      0.00000000</v>
   <v name="AVECCONST">      0.00000000      0.00000000      0.00000000</v>
  </separator>
  <separator name="response functions" >
   <i type="logical" name="LADDER"> F  </i>
   <i type="logical" name="LFXC"> F  </i>
   <i type="logical" name="LHARTREE"> T  </i>
   <i type="int" name="IBSE">     0</i>
   <i type="logical" name="LTCTE"> F  </i>
   <i type="logical" name="LTETE"> F  </i>
   <i type="logical" name="LTRIPLET"> F  </i>
   <i type="logical" name="LFXCEPS"> F  </i>
   <i type="logical" name="LFXHEG"> F  </i>
   <i type="logical" name="L2ORDER"> F  </i>
   <i type="logical" name="LUSEW"> F  </i>
   <i name="ENCUTGW">     -2.00000000</i>
   <i name="ENCUTGWSOFT">     -2.00000000</i>
   <i name="ENCUTLF">     -1.00000000</i>
   <i type="int" name="LMAXMP2">    -1</i>
   <i name="SCISSOR">      0.00000000</i>
   <i type="int" name="NOMEGA">     0</i>
   <i type="int" name="NOMEGAR">     0</i>
   <i type="int" name="NBANDSGW">    -1</i>
   <i type="int" name="NBANDSO">    -1</i>
   <i type="int" name="NBANDSV">    -1</i>
   <i type="int" name="NELM">   100</i>
   <i type="int" name="DIM">     3</i>
   <i type="int" name="ANTIRES">     0</i>
   <i name="OMEGAMAX">    -30.00000000</i>
   <i name="OMEGAMIN">    -30.00000000</i>
   <i name="OMEGATL">   -200.00000000</i>
   <i type="int" name="OMEGAGRID">     0</i>
   <i name="CSHIFT">     -0.10000000</i>
   <i type="logical" name="SELFENERGY"> F  </i>
   <i type="logical" name="LSPECTRAL"> F  </i>
   <i type="logical" name="ODDONLYGW"> F  </i>
   <i type="logical" name="EVENONLYGW"> F  </i>
   <i type="int" name="NKREDLFX">     1</i>
   <i type="int" name="NKREDLFY">     1</i>
   <i type="int" name="NKREDLFZ">     1</i>
   <i type="int" name="MAXMEM">  1800</i>
   <i type="int" name="TELESCOPE">     0</i>
   <i type="int" name="TAUPAR">     1</i>
  </separator>
  <separator name="External order field" >
   <i name="OFIELD_KAPPA">      0.00000000</i>
   <v name="OFIELD_K">      0.00000000      0.00000000      0.00000000</v>
   <i name="OFIELD_Q6_NEAR">      0.00000000</i>
   <i name="OFIELD_Q6_FAR">      0.00000000</i>
   <i name="OFIELD_A">      0.00000000</i>
  </separator>
 </parameters>
 <atominfo>
  <atoms>       6 </atoms>
  <types>       2 </types>
  <array name="atoms" >
   <dimension dim="1">ion</dimension>
   <field type="string">element</field>
   <field type="int">atomtype</field>
   <set>
    <rc><c>Ag</c><c>   1</c></rc>
    <rc><c>Ag</c><c>   1</c></rc>
    <rc><c>Ag</c><c>   1</c></rc>
    <rc><c>Ag</c><c>   1</c></rc>
    <rc><c>Ag</c><c>   1</c></rc>
    <rc><c>Au</c><c>   2</c></rc>
   </set>
  </array>
  <array name="atomtypes" >
   <dimension dim="1">type</dimension>
   <field type="int">atomspertype</field>
   <field type="string">element</field>
   <field>mass</field>
   <field>valence</field>
   <field type="string">pseudopotential</field>
   <set>
    <rc><c>   5</c><c>Ag</c><c>    107.86800000</c><c>     11.00000000</c><c>  PAW_PBE Ag 02Apr2005                  </c></rc>
    <rc><c>   1</c><c>Au</c><c>    196.96600000</c><c>     11.00000000</c><c>  PAW_PBE Au 04Oct2007                  </c></rc>
   </set>
  </array>
 </atominfo>
 <structure name="initialpos" >
  <crystal>
   <varray name="basis" >
    <v>       2.07062650       0.00000000       2.07062650 </v>
    <v>       0.00000000      -2.07062650      -2.07062650 </v>
    <v>       8.30128244       8.30128244      -8.30128244 </v>
   </varray>
   <i name="volume">    106.77509851 </i>
   <varray name="rec_basis" >
    <v>       0.32196375      -0.16098187       0.16098187 </v>
    <v>       0.16098187      -0.32196375      -0.16098187 </v>
    <v>       0.04015444       0.04015444      -0.04015444 </v>
   </varray>
  </crystal>
  <varray name="positions" >
   <v>       0.33333333       0.66666667       0.16726806 </v>
   <v>       0.66666667       0.33333333       0.33317919 </v>
   <v>       0.00000000       0.00000000       0.50000000 </v>
   <v>       0.33333333       0.66666667       0.66682081 </v>
   <v>       0.66666667       0.33333333       0.83273194 </v>
   <v>       0.00000000       0.00000000       0.00000000 </v>
  </varray>
 </structure>
 <calculation>
  <scstep>
   <time name="dav">    4.67    4.67</time>
   <time name="total">    4.72    4.74</time>
   <energy>
    <i name="alphaZ">    304.43538637 </i>
    <i name="ewald">  -5782.58679055 </i>
    <i name="hartreedc">  -1175.26393477 </i>
    <i name="XCdc">    -37.12492649 </i>
    <i name="pawpsdc">   5891.40824999 </i>
    <i name="pawaedc">  -5637.75650598 </i>
    <i name="eentropy">     -0.00182852 </i>
    <i name="bandstr">    774.41255517 </i>
    <i name="atom">   6112.39400946 </i>
    <i name="e_fr_energy">    449.91621468 </i>
    <i name="e_wo_entrp">    449.91804320 </i>
    <i name="e_0_energy">    449.91682418 </i>
   </energy>
  </scstep>
  <scstep>
   <time name="dav">    4.75    4.75</time>
   <time name="total">    4.77    4.78</time>
   <energy>
    <i name="e_fr_energy">     -7.06581031 </i>
    <i name="e_wo_entrp">     -7.06633433 </i>
    <i name="e_0_energy">     -7.06598498 </i>
   </energy>
  </scstep>
  <scstep>
   <time name="dav">    5.22    5.23</time>
   <time name="total">    5.24    5.26</time>
   <energy>
    <i name="e_fr_energy">    -18.33470863 </i>
    <i name="e_wo_entrp">    -18.33527082 </i>
    <i name="e_0_energy">    -18.33489603 </i>
   </energy>
  </scstep>
  <scstep>
   <time name="dav">    4.94    4.94</time>
   <time name="total">    4.96    4.97</time>
   <energy>
    <i name="e_fr_energy">    -18.41383759 </i>
    <i name="e_wo_entrp">    -18.41435323 </i>
    <i name="e_0_energy">    -18.41400947 </i>
   </energy>
  </scstep>
  <scstep>
   <time name="dav">    5.28    5.28</time>
   <time name="total">    5.65    5.66</time>
   <energy>
    <i name="e_fr_energy">    -18.41447697 </i>
    <i name="e_wo_entrp">    -18.41499261 </i>
    <i name="e_0_energy">    -18.41464885 </i>
   </energy>
  </scstep>
  <scstep>
   <time name="diag">    1.28    1.28</time>
   <time name="diis">    2.23    2.23</time>
   <time name="orth">    0.20    0.20</time>
   <time name="total">    4.10    4.11</time>
   <energy>
    <i name="e_fr_energy">    -16.98694764 </i>
    <i name="e_wo_entrp">    -16.98726572 </i>
    <i name="e_0_energy">    -16.98705367 </i>
   </energy>
  </scstep>
  <scstep>
   <time name="diag">    1.27    1.27</time>
   <time name="diis">    2.27    2.27</time>
   <time name="orth">    0.19    0.19</time>
   <time name="total">    4.14    4.15</time>
   <energy>
    <i name="e_fr_energy">    -16.94061471 </i>
    <i name="e_wo_entrp">    -16.93985919 </i>
    <i name="e_0_energy">    -16.94036287 </i>
   </energy>
  </scstep>
  <scstep>
   <time name="diag">    1.27    1.27</time>
   <time name="diis">    2.23    2.23</time>
   <time name="orth">    0.19    0.19</time>
   <time name="total">    4.10    4.11</time>
   <energy>
    <i name="e_fr_energy">    -16.94808244 </i>
    <i name="e_wo_entrp">    -16.94645252 </i>
    <i name="e_0_energy">    -16.94753913 </i>
   </energy>
  </scstep>
  <scstep>
   <time name="diag">    1.27    1.27</time>
   <time name="diis">    2.22    2.22</time>
   <time name="orth">    0.19    0.19</time>
   <time name="total">    4.09    4.10</time>
   <energy>
    <i name="e_fr_energy">    -16.90408140 </i>
    <i name="e_wo_entrp">    -16.90700582 </i>
    <i name="e_0_energy">    -16.90505621 </i>
   </energy>
  </scstep>
  <scstep>
   <time name="diag">    1.33    1.33</time>
   <time name="diis">    2.22    2.22</time>
   <time name="orth">    0.19    0.19</time>
   <time name="total">    4.15    4.16</time>
   <energy>
    <i name="e_fr_energy">    -16.90399282 </i>
    <i name="e_wo_entrp">    -16.90689010 </i>
    <i name="e_0_energy">    -16.90495858 </i>
   </energy>
  </scstep>
  <scstep>
   <time name="diag">    1.28    1.28</time>
   <time name="diis">    2.22    2.23</time>
   <time name="orth">    0.19    0.19</time>
   <time name="total">    4.10    4.11</time>
   <energy>
    <i name="e_fr_energy">    -16.90400630 </i>
    <i name="e_wo_entrp">    -16.90688970 </i>
    <i name="e_0_energy">    -16.90496743 </i>
   </energy>
  </scstep>
  <scstep>
   <time name="diag">    1.27    1.27</time>
   <time name="diis">    2.16    2.16</time>
   <time name="orth">    0.19    0.19</time>
   <time name="total">    4.03    4.04</time>
   <energy>
    <i name="e_fr_energy">    -16.90401720 </i>
    <i name="e_wo_entrp">    -16.90690518 </i>
    <i name="e_0_energy">    -16.90497986 </i>
   </energy>
  </scstep>
  <scstep>
   <time name="diag">    1.28    1.28</time>
   <time name="diis">    1.43    1.43</time>
   <time name="orth">    0.19    0.19</time>
   <time name="total">    3.30    3.31</time>
   <energy>
    <i name="e_fr_energy">    -16.90401597 </i>
    <i name="e_wo_entrp">    -16.90690213 </i>
    <i name="e_0_energy">    -16.90497802 </i>
   </energy>
  </scstep>
  <scstep>
   <time name="diag">    1.27    1.27</time>
   <time name="diis">    1.27    1.27</time>
   <time name="orth">    0.19    0.19</time>
   <time name="total">    2.80    2.81</time>
   <energy>
    <i name="alphaZ">    304.43538637 </i>
    <i name="ewald">  -5782.58679055 </i>
    <i name="hartreedc">  -1102.48321077 </i>
    <i name="XCdc">    -39.89018826 </i>
    <i name="pawpsdc">   6541.52489404 </i>
    <i name="pawaedc">  -6302.51812705 </i>
    <i name="eentropy">      0.00288602 </i>
    <i name="bandstr">    252.21712473 </i>
    <i name="atom">   6112.39400946 </i>
    <i name="e_fr_energy">    -16.90401600 </i>
    <i name="e_wo_entrp">    -16.90690202 </i>
    <i name="e_0_energy">    -16.90497801 </i>
   </energy>
  </scstep>
  <structure>
   <crystal>
    <varray name="basis" >
     <v>       2.07062650       0.00000000       2.07062650 </v>
     <v>       0.00000000      -2.07062650      -2.07062650 </v>
     <v>       8.30128244       8.30128244      -8.30128244 </v>
    </varray>
    <i name="volume">    106.77509851 </i>
    <varray name="rec_basis" >
     <v>       0.32196375      -0.16098187       0.16098187 </v>
     <v>       0.16098187      -0.32196375      -0.16098187 </v>
     <v>       0.04015444       0.04015444      -0.04015444 </v>
    </varray>
   </crystal>
   <varray name="positions" >
    <v>       0.33333333       0.66666667       0.16726806 </v>
    <v>       0.66666667       0.33333333       0.33317919 </v>
    <v>       0.00000000       0.00000000       0.50000000 </v>
    <v>       0.33333333       0.66666667       0.66682081 </v>
    <v>       0.66666667       0.33333333       0.83273194 </v>
    <v>       0.00000000       0.00000000       0.00000000 </v>
   </varray>
  </structure>
  <varray name="forces" >
   <v>       0.01027464       0.01027464      -0.01027464 </v>
   <v>      -0.00204184      -0.00204184       0.00204184 </v>
   <v>       0.00000000       0.00000000       0.00000000 </v>
   <v>       0.00204184       0.00204184      -0.00204184 </v>
   <v>      -0.01027464      -0.01027464       0.01027464 </v>
   <v>       0.00000000       0.00000000       0.00000000 </v>
  </varray>
  <varray name="stress" >
   <v>       1.20382560       0.23712539      -0.23712539 </v>
   <v>       0.23712539       1.20382560      -0.23712539 </v>
   <v>      -0.23712539      -0.23712539       1.20382560 </v>
  </varray>
  <energy>
   <i name="e_fr_energy">    -16.90401600 </i>
   <i name="e_wo_entrp">    -16.90497801 </i>
   <i name="e_0_energy">      0.00288602 </i>
  </energy>
  <time name="totalsc">   63.58   63.80</time>
  <eigenvalues>
   <array>
    <dimension dim="1">band</dimension>
    <dimension dim="2">kpoint</dimension>
    <dimension dim="3">spin</dimension>
    <field>eigene</field>
    <field>occ</field>
    <set>
     <set comment="spin 1">
      <set comment="kpoint 1">
       <r>   -0.2254    1.0000 </r>
       <r>    0.8970    1.0000 </r>
       <r>    1.2771    1.0000 </r>
       <r>    1.7297    1.0000 </r>
       <r>    1.9034    1.0000 </r>
       <r>    1.9611    1.0000 </r>
       <r>    3.2531    1.0000 </r>
       <r>    3.2619    1.0000 </r>
       <r>    3.3328    1.0000 </r>
       <r>    3.3328    1.0000 </r>
       <r>    3.3617    1.0000 </r>
       <r>    3.3617    1.0000 </r>
       <r>    3.3817    1.0000 </r>
       <r>    3.4404    1.0000 </r>
       <r>    3.4404    1.0000 </r>
       <r>    3.4761    1.0000 </r>
       <r>    3.4761    1.0000 </r>
       <r>    3.4995    1.0000 </r>
       <r>    3.4995    1.0000 </r>
       <r>    3.6836    1.0000 </r>
       <r>    3.6836    1.0000 </r>
       <r>    4.2813    1.0000 </r>
       <r>    4.2813    1.0000 </r>
       <r>    4.2944    1.0000 </r>
       <r>    4.2944    1.0000 </r>
       <r>    4.4943    1.0000 </r>
       <r>    4.4943    1.0000 </r>
       <r>    4.7017    1.0000 </r>
       <r>    4.7023    1.0000 </r>
       <r>    4.7023    1.0000 </r>
       <r>    4.7419    1.0000 </r>
       <r>    4.8770    1.0000 </r>
       <r>    4.8770    1.0000 </r>
       <r>    5.4449    1.0000 </r>
       <r>    5.4449    1.0000 </r>
       <r>    7.6275    1.0331 </r>
       <r>   11.2772    0.0000 </r>
       <r>   15.6242    0.0000 </r>
       <r>   15.6752    0.0000 </r>
       <r>   21.7168    0.0000 </r>
      </set>
      <set comment="kpoint 2">
       <r>   -0.1883    1.0000 </r>
       <r>    0.9309    1.0000 </r>
       <r>    1.3090    1.0000 </r>
       <r>    1.7556    1.0000 </r>
       <r>    1.9270    1.0000 </r>
       <r>    1.9855    1.0000 </r>
       <r>    3.2263    1.0000 </r>
       <r>    3.2340    1.0000 </r>
       <r>    3.3200    1.0000 </r>
       <r>    3.3494    1.0000 </r>
       <r>    3.3540    1.0000 </r>
       <r>    3.3736    1.0000 </r>
       <r>    3.3833    1.0000 </r>
       <r>    3.4299    1.0000 </r>
       <r>    3.4566    1.0000 </r>
       <r>    3.4759    1.0000 </r>
       <r>    3.4930    1.0000 </r>
       <r>    3.5141    1.0000 </r>
       <r>    3.5283    1.0000 </r>
       <r>    3.6851    1.0000 </r>
       <r>    3.7018    1.0000 </r>
       <r>    4.2368    1.0000 </r>
       <r>    4.2376    1.0000 </r>
       <r>    4.3249    1.0000 </r>
       <r>    4.3271    1.0000 </r>
       <r>    4.3803    1.0000 </r>
       <r>    4.4354    1.0000 </r>
       <r>    4.5020    1.0000 </r>
       <r>    4.6245    1.0000 </r>
       <r>    4.6854    1.0000 </r>
       <r>    4.8901    1.0000 </r>
       <r>    4.9761    1.0000 </r>
       <r>    5.0244    1.0000 </r>
       <r>    5.4441    1.0000 </r>
       <r>    5.4656    1.0000 </r>
       <r>    7.7489    1.0198 </r>
       <r>   11.2827    0.0000 </r>
       <r>   15.6497    0.0000 </r>
       <r>   15.6973    0.0000 </r>
       <r>   21.7424    0.0000 </r>
      </set>
      <set comment="kpoint 3">
       <r>   -0.0781    1.0000 </r>
       <r>    1.0307    1.0000 </r>
       <r>    1.4022    1.0000 </r>
       <r>    1.8305    1.0000 </r>
       <r>    1.9956    1.0000 </r>
       <r>    2.0562    1.0000 </r>
       <r>    3.1517    1.0000 </r>
       <r>    3.1774    1.0000 </r>
       <r>    3.2829    1.0000 </r>
       <r>    3.3280    1.0000 </r>
       <r>    3.3955    1.0000 </r>
       <r>    3.4010    1.0000 </r>
       <r>    3.4054    1.0000 </r>
       <r>    3.4112    1.0000 </r>
       <r>    3.4628    1.0000 </r>
       <r>    3.5048    1.0000 </r>
       <r>    3.5417    1.0000 </r>
       <r>    3.5580    1.0000 </r>
       <r>    3.5816    1.0000 </r>
       <r>    3.6921    1.0000 </r>
       <r>    3.7542    1.0000 </r>
       <r>    4.0653    1.0000 </r>
       <r>    4.1813    1.0000 </r>
       <r>    4.1862    1.0000 </r>
       <r>    4.2324    1.0000 </r>
       <r>    4.3402    1.0000 </r>
       <r>    4.3550    1.0000 </r>
       <r>    4.5153    1.0000 </r>
       <r>    4.5938    1.0000 </r>
       <r>    4.6535    1.0000 </r>
       <r>    4.9142    1.0000 </r>
       <r>    4.9170    1.0000 </r>
       <r>    5.3190    1.0000 </r>
       <r>    5.4420    1.0000 </r>
       <r>    5.6622    1.0000 </r>
       <r>    8.0705    0.4018 </r>
       <r>   11.3003    0.0000 </r>
       <r>   15.7259    0.0000 </r>
       <r>   15.7641    0.0000 </r>
       <r>   21.8420    0.0000 </r>
      </set>
      <set comment="kpoint 4">
       <r>    0.1011    1.0000 </r>
       <r>    1.1910    1.0000 </r>
       <r>    1.5493    1.0000 </r>
       <r>    1.9462    1.0000 </r>
       <r>    2.1001    1.0000 </r>
       <r>    2.1680    1.0000 </r>
       <r>    3.0514    1.0000 </r>
       <r>    3.1210    1.0000 </r>
       <r>    3.2253    1.0000 </r>
       <r>    3.2858    1.0000 </r>
       <r>    3.3572    1.0000 </r>
       <r>    3.4213    1.0000 </r>
       <r>    3.4513    1.0000 </r>
       <r>    3.4514    1.0000 </r>
       <r>    3.4880    1.0000 </r>
       <r>    3.5826    1.0000 </r>
       <r>    3.6106    1.0000 </r>
       <r>    3.6254    1.0000 </r>
       <r>    3.6350    1.0000 </r>
       <r>    3.7037    1.0000 </r>
       <r>    3.7826    1.0000 </r>
       <r>    3.8322    1.0000 </r>
       <r>    3.9907    1.0000 </r>
       <r>    4.1336    1.0000 </r>
       <r>    4.1644    1.0000 </r>
       <r>    4.3230    1.0000 </r>
       <r>    4.3813    1.0000 </r>
       <r>    4.5037    1.0000 </r>
       <r>    4.5465    1.0000 </r>
       <r>    4.6467    1.0000 </r>
       <r>    4.7672    1.0000 </r>
       <r>    4.9437    1.0000 </r>
       <r>    5.4389    1.0000 </r>
       <r>    5.6255    1.0000 </r>
       <r>    5.9790    1.0000 </r>
       <r>    8.5198   -0.0224 </r>
       <r>   11.3332    0.0000 </r>
       <r>   15.8473    0.0000 </r>
       <r>   15.8810    0.0000 </r>
       <r>   22.0049    0.0000 </r>
      </set>
      <set comment="kpoint 5">
       <r>    0.3417    1.0000 </r>
       <r>    1.3997    1.0000 </r>
       <r>    1.7335    1.0000 </r>
       <r>    2.0863    1.0000 </r>
       <r>    2.2146    1.0000 </r>
       <r>    2.3188    1.0000 </r>
       <r>    2.9402    1.0000 </r>
       <r>    3.0871    1.0000 </r>
       <r>    3.1547    1.0000 </r>
       <r>    3.2331    1.0000 </r>
       <r>    3.2904    1.0000 </r>
       <r>    3.3326    1.0000 </r>
       <r>    3.5075    1.0000 </r>
       <r>    3.5122    1.0000 </r>
       <r>    3.5541    1.0000 </r>
       <r>    3.5983    1.0000 </r>
       <r>    3.6518    1.0000 </r>
       <r>    3.6758    1.0000 </r>
       <r>    3.6894    1.0000 </r>
       <r>    3.7460    1.0000 </r>
       <r>    3.7512    1.0000 </r>
       <r>    3.7963    1.0000 </r>
       <r>    3.9164    1.0000 </r>
       <r>    4.1217    1.0000 </r>
       <r>    4.1442    1.0000 </r>
       <r>    4.2722    1.0000 </r>
       <r>    4.3562    1.0000 </r>
       <r>    4.4164    1.0000 </r>
       <r>    4.4605    1.0000 </r>
       <r>    4.6802    1.0000 </r>
       <r>    4.7846    1.0000 </r>
       <r>    4.9646    1.0000 </r>
       <r>    5.4354    1.0000 </r>
       <r>    5.9370    1.0000 </r>
       <r>    6.3303    1.0000 </r>
       <r>    9.0481    0.0000 </r>
       <r>   11.3866    0.0000 </r>
       <r>   15.9992    0.0000 </r>
       <r>   16.0622    0.0000 </r>
       <r>   20.9636    0.0000 </r>
      </set>
      <set comment="kpoint 6">
       <r>    0.6300    1.0000 </r>
       <r>    1.6342    1.0000 </r>
       <r>    1.9234    1.0000 </r>
       <r>    2.2208    1.0000 </r>
       <r>    2.3027    1.0000 </r>
       <r>    2.5042    1.0000 </r>
       <r>    2.8244    1.0000 </r>
       <r>    3.0798    1.0000 </r>
       <r>    3.0974    1.0000 </r>
       <r>    3.1174    1.0000 </r>
       <r>    3.1774    1.0000 </r>
       <r>    3.2184    1.0000 </r>
       <r>    3.5503    1.0000 </r>
       <r>    3.5579    1.0000 </r>
       <r>    3.5713    1.0000 </r>
       <r>    3.6258    1.0000 </r>
       <r>    3.6561    1.0000 </r>
       <r>    3.7126    1.0000 </r>
       <r>    3.7340    1.0000 </r>
       <r>    3.8106    1.0000 </r>
       <r>    3.8352    1.0000 </r>
       <r>    3.8827    1.0000 </r>
       <r>    3.9958    1.0000 </r>
       <r>    4.0479    1.0000 </r>
       <r>    4.1756    1.0000 </r>
       <r>    4.1953    1.0000 </r>
       <r>    4.2734    1.0000 </r>
       <r>    4.4082    1.0000 </r>
       <r>    4.4768    1.0000 </r>
       <r>    4.7422    1.0000 </r>
       <r>    4.8726    1.0000 </r>
       <r>    4.9788    1.0000 </r>
       <r>    5.4322    1.0000 </r>
       <r>    6.2552    1.0000 </r>
       <r>    6.6983    1.0000 </r>
       <r>    9.6283    0.0000 </r>
       <r>   11.4677    0.0000 </r>
       <r>   16.1796    0.0000 </r>
       <r>   16.3068    0.0000 </r>
       <r>   19.6810    0.0000 </r>
      </set>
      <set comment="kpoint 7">
       <r>    0.9428    1.0000 </r>
       <r>    1.8543    1.0000 </r>
       <r>    2.0751    1.0000 </r>
       <r>    2.2873    1.0000 </r>
       <r>    2.3652    1.0000 </r>
       <r>    2.6939    1.0000 </r>
       <r>    2.7091    1.0000 </r>
       <r>    2.8606    1.0000 </r>
       <r>    3.0285    1.0000 </r>
       <r>    3.0830    1.0000 </r>
       <r>    3.1642    1.0000 </r>
       <r>    3.2331    1.0000 </r>
       <r>    3.4856    1.0000 </r>
       <r>    3.5957    1.0000 </r>
       <r>    3.6136    1.0000 </r>
       <r>    3.6578    1.0000 </r>
       <r>    3.7021    1.0000 </r>
       <r>    3.7029    1.0000 </r>
       <r>    3.8514    1.0000 </r>
       <r>    3.8796    1.0000 </r>
       <r>    3.9407    1.0000 </r>
       <r>    3.9833    1.0000 </r>
       <r>    4.0356    1.0000 </r>
       <r>    4.1036    1.0000 </r>
       <r>    4.2409    1.0000 </r>
       <r>    4.2583    1.0000 </r>
       <r>    4.2761    1.0000 </r>
       <r>    4.3940    1.0000 </r>
       <r>    4.5476    1.0000 </r>
       <r>    4.8387    1.0000 </r>
       <r>    4.9875    1.0000 </r>
       <r>    4.9906    1.0000 </r>
       <r>    5.4297    1.0000 </r>
       <r>    6.5834    1.0000 </r>
       <r>    7.0825    1.0000 </r>
       <r>   10.2430    0.0000 </r>
       <r>   11.5855    0.0000 </r>
       <r>   16.3839    0.0000 </r>
       <r>   16.6099    0.0000 </r>
       <r>   18.3855    0.0000 </r>
      </set>
      <set comment="kpoint 8">
       <r>    1.2424    1.0000 </r>
       <r>    2.0070    1.0000 </r>
       <r>    2.1650    1.0000 </r>
       <r>    2.2693    1.0000 </r>
       <r>    2.3938    1.0000 </r>
       <r>    2.5959    1.0000 </r>
       <r>    2.6315    1.0000 </r>
       <r>    2.7902    1.0000 </r>
       <r>    2.9873    1.0000 </r>
       <r>    3.0495    1.0000 </r>
       <r>    3.1683    1.0000 </r>
       <r>    3.3909    1.0000 </r>
       <r>    3.4401    1.0000 </r>
       <r>    3.6080    1.0000 </r>
       <r>    3.6098    1.0000 </r>
       <r>    3.6941    1.0000 </r>
       <r>    3.7000    1.0000 </r>
       <r>    3.7292    1.0000 </r>
       <r>    3.9311    1.0000 </r>
       <r>    3.9869    1.0000 </r>
       <r>    4.0796    1.0000 </r>
       <r>    4.1885    1.0000 </r>
       <r>    4.2323    1.0000 </r>
       <r>    4.2481    1.0000 </r>
       <r>    4.2963    1.0000 </r>
       <r>    4.3345    1.0000 </r>
       <r>    4.3982    1.0000 </r>
       <r>    4.4562    1.0000 </r>
       <r>    4.6184    1.0000 </r>
       <r>    4.9436    1.0000 </r>
       <r>    5.0428    1.0000 </r>
       <r>    5.1255    1.0000 </r>
       <r>    5.4285    1.0000 </r>
       <r>    6.9275    1.0000 </r>
       <r>    7.4891    1.0136 </r>
       <r>   10.8771    0.0000 </r>
       <r>   11.7497    0.0000 </r>
       <r>   16.5663    0.0000 </r>
       <r>   16.9380    0.0000 </r>
       <r>   17.1502    0.0000 </r>
      </set>
      <set comment="kpoint 9">
       <r>    1.4775    1.0000 </r>
       <r>    2.0697    1.0000 </r>
       <r>    2.1719    1.0000 </r>
       <r>    2.2517    1.0000 </r>
       <r>    2.3644    1.0000 </r>
       <r>    2.4297    1.0000 </r>
       <r>    2.4942    1.0000 </r>
       <r>    2.7077    1.0000 </r>
       <r>    2.9146    1.0000 </r>
       <r>    3.1015    1.0000 </r>
       <r>    3.2350    1.0000 </r>
       <r>    3.4561    1.0000 </r>
       <r>    3.4707    1.0000 </r>
       <r>    3.5596    1.0000 </r>
       <r>    3.5787    1.0000 </r>
       <r>    3.7030    1.0000 </r>
       <r>    3.7334    1.0000 </r>
       <r>    3.9782    1.0000 </r>
       <r>    3.9991    1.0000 </r>
       <r>    4.1765    1.0000 </r>
       <r>    4.2393    1.0000 </r>
       <r>    4.3317    1.0000 </r>
       <r>    4.3769    1.0000 </r>
       <r>    4.4177    1.0000 </r>
       <r>    4.4473    1.0000 </r>
       <r>    4.5646    1.0000 </r>
       <r>    4.6257    1.0000 </r>
       <r>    4.6446    1.0000 </r>
       <r>    4.6872    1.0000 </r>
       <r>    4.9659    1.0000 </r>
       <r>    5.2175    1.0000 </r>
       <r>    5.2986    1.0000 </r>
       <r>    5.4318    1.0000 </r>
       <r>    7.2958    1.0013 </r>
       <r>    7.9277    0.7832 </r>
       <r>   11.5098    0.0000 </r>
       <r>   11.9663    0.0000 </r>
       <r>   15.7789    0.0000 </r>
       <r>   16.5232    0.0000 </r>
       <r>   16.7422    0.0000 </r>
      </set>
      <set comment="kpoint 10">
       <r>    1.6104    1.0000 </r>
       <r>    2.0608    1.0000 </r>
       <r>    2.1255    1.0000 </r>
       <r>    2.2385    1.0000 </r>
       <r>    2.2717    1.0000 </r>
       <r>    2.3075    1.0000 </r>
       <r>    2.4060    1.0000 </r>
       <r>    2.5877    1.0000 </r>
       <r>    2.8005    1.0000 </r>
       <r>    3.0972    1.0000 </r>
       <r>    3.3650    1.0000 </r>
       <r>    3.4331    1.0000 </r>
       <r>    3.5042    1.0000 </r>
       <r>    3.5095    1.0000 </r>
       <r>    3.6285    1.0000 </r>
       <r>    3.7078    1.0000 </r>
       <r>    3.8421    1.0000 </r>
       <r>    3.9654    1.0000 </r>
       <r>    4.2867    1.0000 </r>
       <r>    4.3873    1.0000 </r>
       <r>    4.4028    1.0000 </r>
       <r>    4.4608    1.0000 </r>
       <r>    4.5836    1.0000 </r>
       <r>    4.5928    1.0000 </r>
       <r>    4.6083    1.0000 </r>
       <r>    4.6840    1.0000 </r>
       <r>    4.7686    1.0000 </r>
       <r>    4.9731    1.0000 </r>
       <r>    4.9731    1.0000 </r>
       <r>    5.1547    1.0000 </r>
       <r>    5.3808    1.0000 </r>
       <r>    5.4868    1.0000 </r>
       <r>    5.5494    1.0000 </r>
       <r>    7.6975    1.0338 </r>
       <r>    8.4076   -0.0354 </r>
       <r>   12.1043    0.0000 </r>
       <r>   12.2166    0.0000 </r>
       <r>   14.5648    0.0000 </r>
       <r>   15.4294    0.0000 </r>
       <r>   15.6939    0.0000 </r>
      </set>
      <set comment="kpoint 11">
       <r>    1.6527    1.0000 </r>
       <r>    1.9879    1.0000 </r>
       <r>    2.1089    1.0000 </r>
       <r>    2.1196    1.0000 </r>
       <r>    2.2243    1.0000 </r>
       <r>    2.2509    1.0000 </r>
       <r>    2.3427    1.0000 </r>
       <r>    2.4738    1.0000 </r>
       <r>    2.6747    1.0000 </r>
       <r>    3.0746    1.0000 </r>
       <r>    3.3793    1.0000 </r>
       <r>    3.4404    1.0000 </r>
       <r>    3.4531    1.0000 </r>
       <r>    3.5427    1.0000 </r>
       <r>    3.7076    1.0000 </r>
       <r>    3.7907    1.0000 </r>
       <r>    3.9212    1.0000 </r>
       <r>    3.9914    1.0000 </r>
       <r>    4.3720    1.0000 </r>
       <r>    4.4883    1.0000 </r>
       <r>    4.5745    1.0000 </r>
       <r>    4.7250    1.0000 </r>
       <r>    4.7279    1.0000 </r>
       <r>    4.7512    1.0000 </r>
       <r>    4.8053    1.0000 </r>
       <r>    4.8664    1.0000 </r>
       <r>    4.8976    1.0000 </r>
       <r>    4.9900    1.0000 </r>
       <r>    5.4043    1.0000 </r>
       <r>    5.4534    1.0000 </r>
       <r>    5.6821    1.0000 </r>
       <r>    5.7349    1.0000 </r>
       <r>    5.9743    1.0000 </r>
       <r>    8.1373    0.2302 </r>
       <r>    8.9300   -0.0001 </r>
       <r>   12.3307    0.0000 </r>
       <r>   12.6235    0.0000 </r>
       <r>   13.4147    0.0000 </r>
       <r>   14.3021    0.0000 </r>
       <r>   14.9750    0.0000 </r>
      </set>
      <set comment="kpoint 12">
       <r>    1.6465    1.0000 </r>
       <r>    1.9075    1.0000 </r>
       <r>    2.0201    1.0000 </r>
       <r>    2.0885    1.0000 </r>
       <r>    2.1811    1.0000 </r>
       <r>    2.2024    1.0000 </r>
       <r>    2.3081    1.0000 </r>
       <r>    2.3760    1.0000 </r>
       <r>    2.5585    1.0000 </r>
       <r>    3.0605    1.0000 </r>
       <r>    3.3123    1.0000 </r>
       <r>    3.3958    1.0000 </r>
       <r>    3.4104    1.0000 </r>
       <r>    3.7044    1.0000 </r>
       <r>    3.7053    1.0000 </r>
       <r>    3.8791    1.0000 </r>
       <r>    3.9204    1.0000 </r>
       <r>    4.1360    1.0000 </r>
       <r>    4.4239    1.0000 </r>
       <r>    4.5392    1.0000 </r>
       <r>    4.6648    1.0000 </r>
       <r>    4.8526    1.0000 </r>
       <r>    4.8832    1.0000 </r>
       <r>    4.9209    1.0000 </r>
       <r>    4.9515    1.0000 </r>
       <r>    4.9636    1.0000 </r>
       <r>    5.0268    1.0000 </r>
       <r>    5.1410    1.0000 </r>
       <r>    5.4055    1.0000 </r>
       <r>    5.8777    1.0000 </r>
       <r>    6.0707    1.0000 </r>
       <r>    6.3402    1.0000 </r>
       <r>    6.6268    1.0000 </r>
       <r>    8.6053   -0.0109 </r>
       <r>    9.4634    0.0000 </r>
       <r>   11.9580    0.0000 </r>
       <r>   12.2710    0.0000 </r>
       <r>   13.0975    0.0000 </r>
       <r>   13.3670    0.0000 </r>
       <r>   14.8688    0.0000 </r>
      </set>
      <set comment="kpoint 13">
       <r>    1.6249    1.0000 </r>
       <r>    1.8417    1.0000 </r>
       <r>    1.9535    1.0000 </r>
       <r>    2.0587    1.0000 </r>
       <r>    2.1451    1.0000 </r>
       <r>    2.1722    1.0000 </r>
       <r>    2.2946    1.0000 </r>
       <r>    2.2991    1.0000 </r>
       <r>    2.4614    1.0000 </r>
       <r>    3.0623    1.0000 </r>
       <r>    3.2390    1.0000 </r>
       <r>    3.3684    1.0000 </r>
       <r>    3.3786    1.0000 </r>
       <r>    3.7035    1.0000 </r>
       <r>    3.8384    1.0000 </r>
       <r>    3.8448    1.0000 </r>
       <r>    4.0052    1.0000 </r>
       <r>    4.2527    1.0000 </r>
       <r>    4.4584    1.0000 </r>
       <r>    4.5645    1.0000 </r>
       <r>    4.7166    1.0000 </r>
       <r>    4.9551    1.0000 </r>
       <r>    4.9810    1.0000 </r>
       <r>    5.0132    1.0000 </r>
       <r>    5.0450    1.0000 </r>
       <r>    5.0791    1.0000 </r>
       <r>    5.0853    1.0000 </r>
       <r>    5.3155    1.0000 </r>
       <r>    5.4046    1.0000 </r>
       <r>    6.0352    1.0000 </r>
       <r>    6.7780    1.0000 </r>
       <r>    6.9901    1.0000 </r>
       <r>    7.4145    1.0063 </r>
       <r>    9.0631    0.0000 </r>
       <r>    9.8076    0.0000 </r>
       <r>   11.1510    0.0000 </r>
       <r>   11.5211    0.0000 </r>
       <r>   12.2751    0.0000 </r>
       <r>   13.8171    0.0000 </r>
       <r>   14.2818    0.0000 </r>
      </set>
      <set comment="kpoint 14">
       <r>    1.6061    1.0000 </r>
       <r>    1.7997    1.0000 </r>
       <r>    1.9148    1.0000 </r>
       <r>    2.0350    1.0000 </r>
       <r>    2.1182    1.0000 </r>
       <r>    2.1646    1.0000 </r>
       <r>    2.2440    1.0000 </r>
       <r>    2.3022    1.0000 </r>
       <r>    2.3875    1.0000 </r>
       <r>    3.0814    1.0000 </r>
       <r>    3.1736    1.0000 </r>
       <r>    3.3526    1.0000 </r>
       <r>    3.3590    1.0000 </r>
       <r>    3.7030    1.0000 </r>
       <r>    3.8221    1.0000 </r>
       <r>    3.9320    1.0000 </r>
       <r>    4.0448    1.0000 </r>
       <r>    4.3295    1.0000 </r>
       <r>    4.4762    1.0000 </r>
       <r>    4.5767    1.0000 </r>
       <r>    4.7390    1.0000 </r>
       <r>    5.0219    1.0000 </r>
       <r>    5.0434    1.0000 </r>
       <r>    5.0674    1.0000 </r>
       <r>    5.1035    1.0000 </r>
       <r>    5.1211    1.0000 </r>
       <r>    5.1557    1.0000 </r>
       <r>    5.4038    1.0000 </r>
       <r>    5.4218    1.0000 </r>
       <r>    6.1370    1.0000 </r>
       <r>    7.3924    1.0049 </r>
       <r>    7.7308    1.0267 </r>
       <r>    8.2821    0.0045 </r>
       <r>    9.4174    0.0000 </r>
       <r>    9.4386    0.0000 </r>
       <r>   10.1928    0.0000 </r>
       <r>   11.4555    0.0000 </r>
       <r>   11.7415    0.0000 </r>
       <r>   13.2673    0.0000 </r>
       <r>   14.4176    0.0000 </r>
      </set>
      <set comment="kpoint 15">
       <r>    1.5989    1.0000 </r>
       <r>    1.7854    1.0000 </r>
       <r>    1.9021    1.0000 </r>
       <r>    2.0264    1.0000 </r>
       <r>    2.1085    1.0000 </r>
       <r>    2.1660    1.0000 </r>
       <r>    2.2223    1.0000 </r>
       <r>    2.3195    1.0000 </r>
       <r>    2.3475    1.0000 </r>
       <r>    3.1098    1.0000 </r>
       <r>    3.1292    1.0000 </r>
       <r>    3.3474    1.0000 </r>
       <r>    3.3524    1.0000 </r>
       <r>    3.7030    1.0000 </r>
       <r>    3.8141    1.0000 </r>
       <r>    3.9690    1.0000 </r>
       <r>    4.0523    1.0000 </r>
       <r>    4.3570    1.0000 </r>
       <r>    4.4809    1.0000 </r>
       <r>    4.5804    1.0000 </r>
       <r>    4.7450    1.0000 </r>
       <r>    5.0451    1.0000 </r>
       <r>    5.0659    1.0000 </r>
       <r>    5.0841    1.0000 </r>
       <r>    5.1294    1.0000 </r>
       <r>    5.1321    1.0000 </r>
       <r>    5.1777    1.0000 </r>
       <r>    5.4036    1.0000 </r>
       <r>    5.4575    1.0000 </r>
       <r>    6.1722    1.0000 </r>
       <r>    7.6369    1.0340 </r>
       <r>    8.5016   -0.0252 </r>
       <r>    8.6727   -0.0052 </r>
       <r>    9.1619    0.0000 </r>
       <r>    9.2842    0.0000 </r>
       <r>    9.5814    0.0000 </r>
       <r>   11.2244    0.0000 </r>
       <r>   12.2928    0.0000 </r>
       <r>   12.4713    0.0000 </r>
       <r>   14.3354    0.0000 </r>
      </set>
      <set comment="kpoint 16">
       <r>   -0.1146    1.0000 </r>
       <r>    0.9977    1.0000 </r>
       <r>    1.3716    1.0000 </r>
       <r>    1.8060    1.0000 </r>
       <r>    1.9732    1.0000 </r>
       <r>    2.0329    1.0000 </r>
       <r>    3.1832    1.0000 </r>
       <r>    3.1848    1.0000 </r>
       <r>    3.2947    1.0000 </r>
       <r>    3.3369    1.0000 </r>
       <r>    3.3809    1.0000 </r>
       <r>    3.3943    1.0000 </r>
       <r>    3.4011    1.0000 </r>
       <r>    3.4104    1.0000 </r>
       <r>    3.4658    1.0000 </r>
[...]
       <r>    4.3134    1.0000 </r>
       <r>    4.3764    1.0000 </r>
       <r>    4.5989    1.0000 </r>
       <r>    4.8721    1.0000 </r>
       <r>    4.8983    1.0000 </r>
       <r>    4.9661    1.0000 </r>
       <r>    5.0820    1.0000 </r>
       <r>    5.1298    1.0000 </r>
       <r>    5.4786    1.0000 </r>
       <r>   10.1343    0.0000 </r>
       <r>   10.6400    0.0000 </r>
       <r>   10.6642    0.0000 </r>
       <r>   10.8781    0.0000 </r>
       <r>   11.7694    0.0000 </r>
       <r>   12.0983    0.0000 </r>
       <r>   12.2933    0.0000 </r>
       <r>   12.4662    0.0000 </r>
       <r>   12.6300    0.0000 </r>
       <r>   12.8308    0.0000 </r>
      </set>
      <set comment="kpoint 369">
       <r>    2.3146    1.0000 </r>
       <r>    2.4124    1.0000 </r>
       <r>    2.4739    1.0000 </r>
       <r>    2.5237    1.0000 </r>
       <r>    2.5946    1.0000 </r>
       <r>    2.7415    1.0000 </r>
       <r>    2.8150    1.0000 </r>
       <r>    2.8259    1.0000 </r>
       <r>    2.9020    1.0000 </r>
       <r>    2.9303    1.0000 </r>
       <r>    2.9394    1.0000 </r>
       <r>    3.0351    1.0000 </r>
       <r>    3.3170    1.0000 </r>
       <r>    3.4355    1.0000 </r>
       <r>    3.4841    1.0000 </r>
       <r>    3.5317    1.0000 </r>
       <r>    3.6520    1.0000 </r>
       <r>    3.7924    1.0000 </r>
       <r>    4.0844    1.0000 </r>
       <r>    4.1734    1.0000 </r>
       <r>    4.2401    1.0000 </r>
       <r>    4.3178    1.0000 </r>
       <r>    4.3654    1.0000 </r>
       <r>    4.5859    1.0000 </r>
       <r>    4.8082    1.0000 </r>
       <r>    4.9208    1.0000 </r>
       <r>    4.9845    1.0000 </r>
       <r>    5.1084    1.0000 </r>
       <r>    5.1368    1.0000 </r>
       <r>    5.5051    1.0000 </r>
       <r>    9.6375    0.0000 </r>
       <r>    9.8659    0.0000 </r>
       <r>   10.9635    0.0000 </r>
       <r>   11.2362    0.0000 </r>
       <r>   11.6258    0.0000 </r>
       <r>   11.8207    0.0000 </r>
       <r>   12.4285    0.0000 </r>
       <r>   12.5751    0.0000 </r>
       <r>   12.8380    0.0000 </r>
       <r>   13.6023    0.0000 </r>
      </set>
      <set comment="kpoint 370">
       <r>    2.4101    1.0000 </r>
       <r>    2.4628    1.0000 </r>
       <r>    2.5062    1.0000 </r>
       <r>    2.5456    1.0000 </r>
       <r>    2.5588    1.0000 </r>
       <r>    2.6195    1.0000 </r>
       <r>    2.9003    1.0000 </r>
       <r>    2.9125    1.0000 </r>
       <r>    2.9269    1.0000 </r>
       <r>    2.9356    1.0000 </r>
       <r>    2.9401    1.0000 </r>
       <r>    3.0226    1.0000 </r>
       <r>    3.4111    1.0000 </r>
       <r>    3.4307    1.0000 </r>
       <r>    3.4647    1.0000 </r>
       <r>    3.5346    1.0000 </r>
       <r>    3.5432    1.0000 </r>
       <r>    3.6406    1.0000 </r>
       <r>    4.1759    1.0000 </r>
       <r>    4.1968    1.0000 </r>
       <r>    4.2372    1.0000 </r>
       <r>    4.2644    1.0000 </r>
       <r>    4.4160    1.0000 </r>
       <r>    4.5191    1.0000 </r>
       <r>    4.8651    1.0000 </r>
       <r>    4.9213    1.0000 </r>
       <r>    4.9350    1.0000 </r>
       <r>    5.0825    1.0000 </r>
       <r>    5.1014    1.0000 </r>
       <r>    5.4679    1.0000 </r>
       <r>   10.2208    0.0000 </r>
       <r>   10.6722    0.0000 </r>
       <r>   11.2343    0.0000 </r>
       <r>   11.4895    0.0000 </r>
       <r>   11.5096    0.0000 </r>
       <r>   11.7072    0.0000 </r>
       <r>   12.1217    0.0000 </r>
       <r>   12.5463    0.0000 </r>
       <r>   12.9120    0.0000 </r>
       <r>   13.1325    0.0000 </r>
      </set>
     </set>
    </set>
   </array>
  </eigenvalues>
  <separator name="orbital magnetization" >
   <v name="MAGDIPOLOUT">      0.00000000      0.00000000      0.00000000</v>
  </separator>
  <dos>
   <i name="efermi">      8.03540418 </i>
   <total>
    <array>
     <dimension dim="1">gridpoints</dimension>
     <dimension dim="2">spin</dimension>
     <field>energy</field>
     <field>total</field>
     <field>integrated</field>
     <set>
      <set comment="spin 1">
       <r>    -3.2254     0.0000     0.0000 </r>
       <r>    -3.1310     0.0000     0.0000 </r>
       <r>    -3.0366     0.0000     0.0000 </r>
       <r>    -2.9422     0.0000     0.0000 </r>
       <r>    -2.8478     0.0000     0.0000 </r>
       <r>    -2.7534     0.0000     0.0000 </r>
       <r>    -2.6591     0.0000     0.0000 </r>
       <r>    -2.5647     0.0000     0.0000 </r>
       <r>    -2.4703     0.0000     0.0000 </r>
       <r>    -2.3759     0.0000     0.0000 </r>
       <r>    -2.2815     0.0000     0.0000 </r>
       <r>    -2.1871     0.0000     0.0000 </r>
       <r>    -2.0927     0.0000     0.0000 </r>
       <r>    -1.9983     0.0000     0.0000 </r>
       <r>    -1.9040     0.0000     0.0000 </r>
       <r>    -1.8096     0.0000     0.0000 </r>
       <r>    -1.7152     0.0000     0.0000 </r>
       <r>    -1.6208     0.0000     0.0000 </r>
       <r>    -1.5264     0.0000     0.0000 </r>
       <r>    -1.4320     0.0000     0.0000 </r>
       <r>    -1.3376     0.0000     0.0000 </r>
       <r>    -1.2432     0.0000     0.0000 </r>
       <r>    -1.1488     0.0000     0.0000 </r>
       <r>    -1.0545     0.0000     0.0000 </r>
       <r>    -0.9601    -0.0002     0.0000 </r>
       <r>    -0.8657    -0.0007    -0.0001 </r>
       <r>    -0.7713    -0.0020    -0.0003 </r>
       <r>    -0.6769    -0.0048    -0.0007 </r>
       <r>    -0.5825    -0.0081    -0.0015 </r>
       <r>    -0.4881    -0.0073    -0.0022 </r>
       <r>    -0.3937     0.0068    -0.0015 </r>
       <r>    -0.2993     0.0430     0.0025 </r>
       <r>    -0.2050     0.1009     0.0120 </r>
       <r>    -0.1106     0.1671     0.0278 </r>
       <r>    -0.0162     0.2226     0.0488 </r>
       <r>     0.0782     0.2563     0.0730 </r>
       <r>     0.1726     0.2699     0.0985 </r>
       <r>     0.2670     0.2724     0.1242 </r>
       <r>     0.3614     0.2716     0.1498 </r>
       <r>     0.4558     0.2728     0.1756 </r>
       <r>     0.5502     0.2825     0.2023 </r>
       <r>     0.6445     0.3096     0.2315 </r>
       <r>     0.7389     0.3605     0.2655 </r>
       <r>     0.8333     0.4314     0.3062 </r>
       <r>     0.9277     0.5067     0.3541 </r>
       <r>     1.0221     0.5676     0.4076 </r>
       <r>     1.1165     0.6065     0.4649 </r>
       <r>     1.2109     0.6406     0.5254 </r>
       <r>     1.3053     0.7151     0.5928 </r>
       <r>     1.3997     0.8906     0.6769 </r>
       <r>     1.4940     1.2136     0.7915 </r>
       <r>     1.5884     1.6971     0.9517 </r>
       <r>     1.6828     2.3683     1.1752 </r>
       <r>     1.7772     3.3717     1.4934 </r>
       <r>     1.8716     4.9816     1.9637 </r>
       <r>     1.9660     7.4200     2.6640 </r>
       <r>     2.0604    10.6058     3.6651 </r>
       <r>     2.1548    14.0529     4.9915 </r>
       <r>     2.2491    17.0033     6.5964 </r>
       <r>     2.3435    18.7337     8.3647 </r>
       <r>     2.4379    18.9039    10.1490 </r>
       <r>     2.5323    17.7547    11.8248 </r>
       <r>     2.6267    16.0091    13.3359 </r>
       <r>     2.7211    14.5233    14.7068 </r>
       <r>     2.8155    13.8775    16.0166 </r>
       <r>     2.9099    14.1183    17.3492 </r>
       <r>     3.0043    14.8282    18.7489 </r>
       <r>     3.0986    15.5294    20.2147 </r>
       <r>     3.1930    16.1336    21.7375 </r>
       <r>     3.2874    17.0233    23.3443 </r>
       <r>     3.3818    18.6173    25.1015 </r>
       <r>     3.4762    20.7567    27.0607 </r>
       <r>     3.5706    22.5289    29.1872 </r>
       <r>     3.6650    22.8675    31.3456 </r>
       <r>     3.7594    21.4870    33.3738 </r>
       <r>     3.8538    19.2216    35.1881 </r>
       <r>     3.9481    17.3765    36.8282 </r>
       <r>     4.0425    16.7436    38.4086 </r>
       <r>     4.1369    17.1854    40.0307 </r>
       <r>     4.2313    17.9645    41.7264 </r>
       <r>     4.3257    18.3521    43.4586 </r>
       <r>     4.4201    18.0643    45.1637 </r>
       <r>     4.5145    17.3488    46.8012 </r>
       <r>     4.6089    16.7420    48.3815 </r>
       <r>     4.7033    16.6711    49.9550 </r>
       <r>     4.7976    17.1453    51.5733 </r>
       <r>     4.8920    17.7076    53.2447 </r>
       <r>     4.9864    17.7014    54.9155 </r>
       <r>     5.0808    16.7257    56.4943 </r>
       <r>     5.1752    14.9188    57.9024 </r>
       <r>     5.2696    12.7716    59.1079 </r>
       <r>     5.3640    10.6662    60.1147 </r>
       <r>     5.4584     8.6577    60.9319 </r>
       <r>     5.5528     6.6840    61.5628 </r>
       <r>     5.6471     4.8426    62.0198 </r>
       <r>     5.7415     3.3678    62.3377 </r>
       <r>     5.8359     2.4054    62.5648 </r>
       <r>     5.9303     1.9063    62.7447 </r>
       <r>     6.0247     1.7107    62.9062 </r>
       <r>     6.1191     1.6596    63.0628 </r>
       <r>     6.2135     1.6412    63.2177 </r>
       <r>     6.3079     1.5999    63.3687 </r>
       <r>     6.4022     1.5304    63.5132 </r>
       <r>     6.4966     1.4532    63.6504 </r>
       <r>     6.5910     1.3937    63.7819 </r>
       <r>     6.6854     1.3751    63.9117 </r>
       <r>     6.7798     1.4084    64.0446 </r>
       <r>     6.8742     1.4767    64.1840 </r>
       <r>     6.9686     1.5372    64.3291 </r>
       <r>     7.0630     1.5500    64.4754 </r>
       <r>     7.1574     1.5093    64.6179 </r>
       <r>     7.2517     1.4503    64.7548 </r>
       <r>     7.3461     1.4307    64.8898 </r>
       <r>     7.4405     1.4884    65.0303 </r>
       <r>     7.5349     1.6031    65.1816 </r>
       <r>     7.6293     1.7028    65.3423 </r>
       <r>     7.7237     1.7248    65.5051 </r>
       <r>     7.8181     1.6661    65.6624 </r>
       <r>     7.9125     1.5789    65.8114 </r>
       <r>     8.0069     1.5315    65.9560 </r>
       <r>     8.1012     1.5686    66.1040 </r>
       <r>     8.1956     1.6748    66.2621 </r>
       <r>     8.2900     1.7701    66.4292 </r>
       <r>     8.3844     1.7708    66.5963 </r>
       <r>     8.4788     1.6738    66.7543 </r>
       <r>     8.5732     1.5614    66.9017 </r>
       <r>     8.6676     1.5172    67.0449 </r>
       <r>     8.7620     1.5546    67.1917 </r>
       <r>     8.8564     1.6291    67.3454 </r>
       <r>     8.9507     1.6895    67.5049 </r>
       <r>     9.0451     1.7050    67.6658 </r>
       <r>     9.1395     1.6707    67.8235 </r>
       <r>     9.2339     1.6098    67.9755 </r>
       <r>     9.3283     1.5625    68.1230 </r>
       <r>     9.4227     1.5544    68.2697 </r>
       <r>     9.5171     1.5790    68.4187 </r>
       <r>     9.6115     1.6146    68.5711 </r>
       <r>     9.7059     1.6478    68.7266 </r>
       <r>     9.8002     1.6686    68.8841 </r>
       <r>     9.8946     1.6573    69.0406 </r>
       <r>     9.9890     1.6000    69.1916 </r>
       <r>    10.0834     1.5158    69.3347 </r>
       <r>    10.1778     1.4450    69.4710 </r>
       <r>    10.2722     1.4081    69.6040 </r>
       <r>    10.3666     1.3930    69.7354 </r>
       <r>    10.4610     1.3807    69.8658 </r>
       <r>    10.5554     1.3642    69.9945 </r>
       <r>    10.6497     1.3390    70.1209 </r>
       <r>    10.7441     1.2958    70.2432 </r>
       <r>    10.8385     1.2324    70.3596 </r>
       <r>    10.9329     1.1699    70.4700 </r>
       <r>    11.0273     1.1538    70.5789 </r>
       <r>    11.1217     1.2318    70.6952 </r>
       <r>    11.2161     1.4167    70.8289 </r>
       <r>    11.3105     1.6661    70.9861 </r>
       <r>    11.4048     1.9063    71.1661 </r>
       <r>    11.4992     2.0829    71.3627 </r>
       <r>    11.5936     2.1819    71.5686 </r>
       <r>    11.6880     2.2104    71.7773 </r>
       <r>    11.7824     2.1746    71.9825 </r>
       <r>    11.8768     2.0846    72.1793 </r>
       <r>    11.9712     1.9694    72.3652 </r>
       <r>    12.0656     1.8754    72.5422 </r>
       <r>    12.1600     1.8412    72.7160 </r>
       <r>    12.2543     1.8703    72.8925 </r>
       <r>    12.3487     1.9276    73.0745 </r>
       <r>    12.4431     1.9659    73.2600 </r>
       <r>    12.5375     1.9588    73.4449 </r>
       <r>    12.6319     1.9129    73.6255 </r>
       <r>    12.7263     1.8515    73.8002 </r>
       <r>    12.8207     1.7933    73.9695 </r>
       <r>    12.9151     1.7473    74.1344 </r>
       <r>    13.0095     1.7193    74.2967 </r>
       <r>    13.1038     1.7096    74.4581 </r>
       <r>    13.1982     1.7091    74.6194 </r>
       <r>    13.2926     1.7064    74.7804 </r>
       <r>    13.3870     1.6973    74.9407 </r>
       <r>    13.4814     1.6825    75.0995 </r>
       <r>    13.5758     1.6635    75.2565 </r>
       <r>    13.6702     1.6425    75.4115 </r>
       <r>    13.7646     1.6199    75.5644 </r>
       <r>    13.8590     1.5915    75.7146 </r>
       <r>    13.9533     1.5585    75.8617 </r>
       <r>    14.0477     1.5373    76.0068 </r>
       <r>    14.1421     1.5523    76.1534 </r>
       <r>    14.2365     1.6145    76.3058 </r>
       <r>    14.3309     1.7057    76.4668 </r>
       <r>    14.4253     1.7811    76.6349 </r>
       <r>    14.5197     1.7938    76.8042 </r>
       <r>    14.6141     1.7263    76.9671 </r>
       <r>    14.7085     1.6031    77.1185 </r>
       <r>    14.8028     1.4703    77.2572 </r>
       <r>    14.8972     1.3600    77.3856 </r>
       <r>    14.9916     1.2749    77.5059 </r>
       <r>    15.0860     1.2018    77.6194 </r>
       <r>    15.1804     1.1315    77.7262 </r>
       <r>    15.2748     1.0599    77.8262 </r>
       <r>    15.3692     0.9831    77.9190 </r>
       <r>    15.4636     0.9029    78.0042 </r>
       <r>    15.5579     0.8352    78.0831 </r>
       <r>    15.6523     0.8014    78.1587 </r>
       <r>    15.7467     0.8078    78.2349 </r>
       <r>    15.8411     0.8327    78.3135 </r>
       <r>    15.9355     0.8389    78.3927 </r>
       <r>    16.0299     0.8013    78.4684 </r>
       <r>    16.1243     0.7249    78.5368 </r>
       <r>    16.2187     0.6404    78.5972 </r>
       <r>    16.3131     0.5811    78.6521 </r>
       <r>    16.4074     0.5598    78.7049 </r>
       <r>    16.5018     0.5612    78.7579 </r>
       <r>    16.5962     0.5559    78.8104 </r>
       <r>    16.6906     0.5273    78.8601 </r>
       <r>    16.7850     0.4860    78.9060 </r>
       <r>    16.8794     0.4580    78.9492 </r>
       <r>    16.9738     0.4582    78.9925 </r>
       <r>    17.0682     0.4773    79.0375 </r>
       <r>    17.1626     0.4907    79.0839 </r>
       <r>    17.2569     0.4792    79.1291 </r>
       <r>    17.3513     0.4447    79.1711 </r>
       <r>    17.4457     0.4087    79.2096 </r>
       <r>    17.5401     0.3919    79.2466 </r>
       <r>    17.6345     0.3934    79.2838 </r>
       <r>    17.7289     0.3905    79.3206 </r>
       <r>    17.8233     0.3619    79.3548 </r>
       <r>    17.9177     0.3074    79.3838 </r>
       <r>    18.0121     0.2476    79.4072 </r>
       <r>    18.1064     0.2074    79.4268 </r>
       <r>    18.2008     0.2031    79.4459 </r>
       <r>    18.2952     0.2365    79.4682 </r>
       <r>    18.3896     0.2940    79.4960 </r>
       <r>    18.4840     0.3491    79.5290 </r>
       <r>    18.5784     0.3749    79.5643 </r>
       <r>    18.6728     0.3569    79.5980 </r>
       <r>    18.7672     0.3000    79.6263 </r>
       <r>    18.8616     0.2270    79.6478 </r>
       <r>    18.9559     0.1680    79.6636 </r>
       <r>    19.0503     0.1409    79.6769 </r>
       <r>    19.1447     0.1373    79.6899 </r>
       <r>    19.2391     0.1353    79.7027 </r>
       <r>    19.3335     0.1256    79.7145 </r>
       <r>    19.4279     0.1237    79.7262 </r>
       <r>    19.5223     0.1508    79.7404 </r>
       <r>    19.6167     0.2075    79.7600 </r>
       <r>    19.7110     0.2655    79.7851 </r>
       <r>    19.8054     0.2858    79.8121 </r>
       <r>    19.8998     0.2489    79.8355 </r>
       <r>    19.9942     0.1710    79.8517 </r>
       <r>    20.0886     0.0922    79.8604 </r>
       <r>    20.1830     0.0465    79.8648 </r>
       <r>    20.2774     0.0394    79.8685 </r>
       <r>    20.3718     0.0513    79.8733 </r>
       <r>    20.4662     0.0608    79.8791 </r>
       <r>    20.5605     0.0649    79.8852 </r>
       <r>    20.6549     0.0779    79.8926 </r>
       <r>    20.7493     0.1122    79.9031 </r>
       <r>    20.8437     0.1590    79.9182 </r>
       <r>    20.9381     0.1904    79.9361 </r>
       <r>    21.0325     0.1812    79.9532 </r>
       <r>    21.1269     0.1314    79.9656 </r>
       <r>    21.2213     0.0673    79.9720 </r>
       <r>    21.3157     0.0190    79.9738 </r>
       <r>    21.4100    -0.0002    79.9738 </r>
       <r>    21.5044     0.0037    79.9741 </r>
       <r>    21.5988     0.0180    79.9758 </r>
       <r>    21.6932     0.0331    79.9789 </r>
       <r>    21.7876     0.0448    79.9832 </r>
       <r>    21.8820     0.0508    79.9880 </r>
       <r>    21.9764     0.0495    79.9926 </r>
       <r>    22.0708     0.0404    79.9964 </r>
       <r>    22.1652     0.0265    79.9989 </r>
       <r>    22.2595     0.0128    80.0001 </r>
       <r>    22.3539     0.0033    80.0005 </r>
       <r>    22.4483    -0.0010    80.0004 </r>
       <r>    22.5427    -0.0018    80.0002 </r>
       <r>    22.6371    -0.0012    80.0001 </r>
       <r>    22.7315    -0.0006    80.0000 </r>
       <r>    22.8259    -0.0002    80.0000 </r>
       <r>    22.9203    -0.0001    80.0000 </r>
       <r>    23.0147     0.0000    80.0000 </r>
       <r>    23.1090     0.0000    80.0000 </r>
       <r>    23.2034     0.0000    80.0000 </r>
       <r>    23.2978     0.0000    80.0000 </r>
       <r>    23.3922     0.0000    80.0000 </r>
       <r>    23.4866     0.0000    80.0000 </r>
       <r>    23.5810     0.0000    80.0000 </r>
       <r>    23.6754     0.0000    80.0000 </r>
       <r>    23.7698     0.0000    80.0000 </r>
       <r>    23.8641     0.0000    80.0000 </r>
       <r>    23.9585     0.0000    80.0000 </r>
       <r>    24.0529     0.0000    80.0000 </r>
       <r>    24.1473     0.0000    80.0000 </r>
       <r>    24.2417     0.0000    80.0000 </r>
       <r>    24.3361     0.0000    80.0000 </r>
       <r>    24.4305     0.0000    80.0000 </r>
       <r>    24.5249     0.0000    80.0000 </r>
       <r>    24.6193     0.0000    80.0000 </r>
       <r>    24.7136     0.0000    80.0000 </r>
       <r>    24.8080     0.0000    80.0000 </r>
       <r>    24.9024     0.0000    80.0000 </r>
       <r>    24.9968     0.0000    80.0000 </r>
       <r>    25.0912     0.0000    80.0000 </r>
      </set>
     </set>
    </array>
   </total>
  </dos>
 </calculation>
 <structure name="finalpos" >
  <crystal>
   <varray name="basis" >
    <v>       2.07062650       0.00000000       2.07062650 </v>
    <v>       0.00000000      -2.07062650      -2.07062650 </v>
    <v>       8.30128244       8.30128244      -8.30128244 </v>
   </varray>
   <i name="volume">    106.77509851 </i>
   <varray name="rec_basis" >
    <v>       0.32196375      -0.16098187       0.16098187 </v>
    <v>       0.16098187      -0.32196375      -0.16098187 </v>
    <v>       0.04015444       0.04015444      -0.04015444 </v>
   </varray>
  </crystal>
  <varray name="positions" >
   <v>       0.33333333       0.66666667       0.16726806 </v>
   <v>       0.66666667       0.33333333       0.33317919 </v>
   <v>       0.00000000       0.00000000       0.50000000 </v>
   <v>       0.33333333       0.66666667       0.66682081 </v>
   <v>       0.66666667       0.33333333       0.83273194 </v>
   <v>       0.00000000       0.00000000       0.00000000 </v>
  </varray>
 </structure>
</modeling>
