<?xml version="1.0" encoding="ISO-8859-1"?>
<modeling>
 <generator>
  <i name="program" type="string">vasp </i>
  <i name="version" type="string">5.3.5  </i>
  <i name="subversion" type="string">31Mar14 (build Jun 20 2014 13:15:13) complex                          parallel </i>
  <i name="platform" type="string">LinuxIFC </i>
  <i name="date" type="string">2025 12 12 </i>
  <i name="time" type="string">13:25:34 </i>
 </generator>
 <incar>
  <i type="string" name="PREC">accurate</i>
  <i type="int" name="IALGO">    38</i>
  <i type="logical" name="ADDGRID"> T  </i>
  <i type="int" name="ISPIN">     2</i>
  <i type="int" name="NELM">   100</i>
  <i type="int" name="NELMIN">     4</i>
  <i name="EDIFF">      0.00000100</i>
  <i name="ENCUT">    500.00000000</i>
  <i type="logical" name="LREAL"> F  </i>
  <i type="int" name="ISMEAR">     0</i>
  <i name="SIGMA">      0.05000000</i>
  <i type="logical" name="LWAVE"> F  </i>
  <i type="logical" name="LCHARG"> F  </i>
  <i type="int" name="NELM">   100</i>
  <i type="logical" name="LDAU"> T  </i>
  <v name="LDAUU">      0.00000000      4.00000000      0.00000000</v>
  <v name="LDAUJ">      0.00000000      0.00000000      0.00000000</v>
 </incar>
 <kpoints>
  <generation param="Auto">
   <i name="subdivisionlength">     20.00000000 </i>
   <v type="int" name="divisions">       5        2        2 </v>
   <v name="usershift">      0.00000000       0.00000000       0.00000000 </v>
   <v name="genvec1">      0.20000000       0.00000000       0.00000000 </v>
   <v name="genvec2">      0.00000000       0.50000000       0.00000000 </v>
   <v name="genvec3">      0.00000000       0.00000000       0.50000000 </v>
   <v name="shift">      0.00000000       0.00000000       0.00000000 </v>
  </generation>
  <varray name="kpointlist" >
   <v>       0.00000000       0.00000000       0.00000000 </v>
   <v>       0.20000000       0.00000000       0.00000000 </v>
   <v>       0.40000000       0.00000000       0.00000000 </v>
   <v>       0.00000000       0.50000000       0.00000000 </v>
   <v>       0.20000000       0.50000000       0.00000000 </v>
   <v>       0.40000000       0.50000000       0.00000000 </v>
   <v>       0.00000000       0.00000000       0.50000000 </v>
   <v>       0.20000000       0.00000000       0.50000000 </v>
   <v>       0.40000000       0.00000000       0.50000000 </v>
   <v>       0.00000000       0.50000000       0.50000000 </v>
   <v>       0.20000000       0.50000000       0.50000000 </v>
   <v>       0.40000000       0.50000000       0.50000000 </v>
  </varray>
  <varray name="weights" >
   <v>       0.05000000 </v>
   <v>       0.10000000 </v>
   <v>       0.10000000 </v>
   <v>       0.05000000 </v>
   <v>       0.10000000 </v>
   <v>       0.10000000 </v>
   <v>       0.05000000 </v>
   <v>       0.10000000 </v>
   <v>       0.10000000 </v>
   <v>       0.05000000 </v>
   <v>       0.10000000 </v>
   <v>       0.10000000 </v>
  </varray>
 </kpoints>
 <parameters>
  <separator name="general" >
   <i type="string" name="SYSTEM">unknown system</i>
   <i type="logical" name="LCOMPAT"> F  </i>
  </separator>
  <separator name="electronic" >
   <i type="string" name="PREC">accura</i>
   <i name="ENMAX">    500.00000000</i>
   <i name="ENAUG">    586.98000000</i>
   <i name="EDIFF">      0.00000100</i>
   <i type="int" name="IALGO">    38</i>
   <i type="int" name="IWAVPR">    10</i>
   <i type="int" name="NBANDS">   176</i>
   <i name="NELECT">    264.00000000</i>
   <i type="int" name="TURBO">     0</i>
   <i type="int" name="IRESTART">     0</i>
   <i type="int" name="NREBOOT">     0</i>
   <i type="int" name="NMIN">     0</i>
   <i name="EREF">      0.00000000</i>
   <separator name="electronic smearing" >
    <i type="int" name="ISMEAR">     0</i>
    <i name="SIGMA">      0.05000000</i>
    <i name="KSPACING">      0.50000000</i>
    <i type="logical" name="KGAMMA"> T  </i>
   </separator>
   <separator name="electronic projectors" >
    <i type="logical" name="LREAL"> F  </i>
    <v name="ROPT">      0.00000000      0.00000000      0.00000000</v>
    <i type="int" name="LMAXPAW">  -100</i>
    <i type="int" name="LMAXMIX">     2</i>
    <i type="logical" name="NLSPLINE"> F  </i>
   </separator>
   <separator name="electronic startup" >
    <i type="int" name="ISTART">     0</i>
    <i type="int" name="ICHARG">     2</i>
    <i type="int" name="INIWAV">     1</i>
   </separator>
   <separator name="electronic spin" >
    <i type="int" name="ISPIN">     2</i>
    <i type="logical" name="LNONCOLLINEAR"> F  </i>
    <v name="MAGMOM">      1.00000000      1.00000000      1.00000000      1.00000000      1.00000000      1.00000000      1.00000000      1.00000000      1.00000000      1.00000000      1.00000000      1.00000000      1.00000000      1.00000000      1.00000000      1.00000000      1.00000000      1.00000000      1.00000000      1.00000000
      1.00000000      1.00000000      1.00000000      1.00000000      1.00000000      1.00000000      1.00000000      1.00000000      1.00000000      1.00000000      1.00000000      1.00000000</v>
    <i name="NUPDOWN">     -1.00000000</i>
    <i type="logical" name="LSORBIT"> F  </i>
    <v name="SAXIS">      0.00000000      0.00000000      1.00000000</v>
    <i type="logical" name="LSPIRAL"> F  </i>
    <v name="QSPIRAL">      0.00000000      0.00000000      0.00000000</v>
    <i type="logical" name="LZEROZ"> F  </i>
   </separator>
   <separator name="electronic exchange-correlation" >
    <i type="logical" name="LASPH"> F  </i>
    <i type="logical" name="LMETAGGA"> F  </i>
   </separator>
   <separator name="electronic convergence" >
    <i type="int" name="NELM">   100</i>
    <i type="int" name="NELMDL">    -5</i>
    <i type="int" name="NELMIN">     4</i>
    <i name="ENINI">    500.00000000</i>
    <separator name="electronic convergence detail" >
     <i type="logical" name="LDIAG"> T  </i>
     <i type="logical" name="LSUBROT"> F  </i>
     <i name="WEIMIN">      0.00000000</i>
     <i name="EBREAK">      0.00000000</i>
     <i name="DEPER">      0.30000000</i>
     <i type="int" name="NRMM">     4</i>
     <i name="TIME">      0.40000000</i>
    </separator>
   </separator>
   <separator name="electronic mixer" >
    <i name="AMIX">      0.40000000</i>
    <i name="BMIX">      1.00000000</i>
    <i name="AMIN">      0.10000000</i>
    <i name="AMIX_MAG">      1.60000000</i>
    <i name="BMIX_MAG">      1.00000000</i>
    <separator name="electronic mixer details" >
     <i type="int" name="IMIX">     4</i>
     <i type="int" name="MAXMIX">   -45</i>
     <i name="WC">    100.00000000</i>
     <i type="int" name="INIMIX">     1</i>
     <i type="int" name="MIXPRE">     1</i>
     <i type="int" name="MREMOVE">     5</i>
    </separator>
   </separator>
   <separator name="electronic dipolcorrection" >
    <i type="logical" name="LDIPOL"> F  </i>
    <i type="logical" name="LMONO"> F  </i>
    <i type="int" name="IDIPOL">     0</i>
    <i name="EPSILON">      1.00000000</i>
    <v name="DIPOL">   -100.00000000   -100.00000000   -100.00000000</v>
    <i name="EFIELD">      0.00000000</i>
   </separator>
  </separator>
  <separator name="grids" >
   <i type="int" name="NGX">    30</i>
   <i type="int" name="NGY">    84</i>
   <i type="int" name="NGZ">    84</i>
   <i type="int" name="NGXF">    60</i>
   <i type="int" name="NGYF">   168</i>
   <i type="int" name="NGZF">   168</i>
   <i type="logical" name="ADDGRID"> T  </i>
  </separator>
  <separator name="ionic" >
   <i type="int" name="NSW">     0</i>
   <i type="int" name="IBRION">    -1</i>
   <i type="int" name="ISIF">     2</i>
   <i name="PSTRESS">      0.00000000</i>
   <i name="EDIFFG">      0.00001000</i>
   <i type="int" name="NFREE">     0</i>
   <i name="POTIM">      0.50000000</i>
   <i name="SMASS">     -3.00000000</i>
   <i name="SCALEE">      1.00000000</i>
  </separator>
  <separator name="ionic md" >
   <i name="TEBEG">      0.00010000</i>
   <i name="TEEND">      0.00010000</i>
   <i type="int" name="NBLOCK">     1</i>
   <i type="int" name="KBLOCK">     1</i>
   <i type="int" name="NPACO">   256</i>
   <i name="APACO">     16.00000000</i>
  </separator>
  <separator name="symmetry" >
   <i type="int" name="ISYM">     2</i>
   <i name="SYMPREC">      0.00001000</i>
  </separator>
  <separator name="dos" >
   <i type="logical" name="LORBIT"> F  </i>
   <v name="RWIGS">     -1.00000000     -1.00000000     -1.00000000</v>
   <i type="int" name="NEDOS">   301</i>
   <i name="EMIN">     10.00000000</i>
   <i name="EMAX">    -10.00000000</i>
   <i name="EFERMI">      0.00000000</i>
  </separator>
  <separator name="writing" >
   <i type="int" name="NWRITE">     2</i>
   <i type="logical" name="LWAVE"> F  </i>
   <i type="logical" name="LCHARG"> F  </i>
   <i type="logical" name="LPARD"> F  </i>
   <i type="logical" name="LVTOT"> F  </i>
   <i type="logical" name="LVHAR"> F  </i>
   <i type="logical" name="LELF"> F  </i>
   <i type="logical" name="LOPTICS"> F  </i>
   <v name="STM">      0.00000000      0.00000000      0.00000000      0.00000000      0.00000000      0.00000000      0.00000000</v>
  </separator>
  <separator name="performance" >
   <i type="int" name="NPAR">     4</i>
   <i type="int" name="NSIM">     4</i>
   <i type="int" name="NBLK">    -1</i>
   <i type="logical" name="LPLANE"> T  </i>
   <i type="logical" name="LSCALAPACK"> T  </i>
   <i type="logical" name="LSCAAWARE"> F  </i>
   <i type="logical" name="LSCALU"> F  </i>
   <i type="logical" name="LASYNC"> F  </i>
   <i type="logical" name="LORBITALREAL"> F  </i>
  </separator>
  <separator name="miscellaneous" >
   <i type="int" name="IDIOT">     3</i>
   <i type="logical" name="LMUSIC"> F  </i>
   <v name="POMASS">     87.62000000     63.54600000     16.00000000</v>
   <v name="DARWINR">      0.00000000      0.00000000      0.00000000</v>
   <v name="DARWINV">      1.00000000      1.00000000      1.00000000</v>
   <i type="logical" name="LCORR"> T  </i>
  </separator>
  <i type="logical" name="GGA_COMPAT"> T  </i>
  <i type="logical" name="LBERRY"> F  </i>
  <i type="int" name="ICORELEVEL">     0</i>
  <i type="logical" name="LDAU"> T  </i>
  <v type="int" name="LDAUTYPE">     2</v>
  <v type="int" name="LDAUL">     2</v>
  <v name="LDAUU">      0.00000000</v>
  <v name="LDAUJ">      0.00000000</v>
  <i type="int" name="LDAUPRINT">     0</i>
  <i type="int" name="I_CONSTRAINED_M">     0</i>
  <separator name="electronic exchange-correlation" >
   <i type="string" name="GGA">--</i>
   <i type="int" name="VOSKOWN">     0</i>
   <i type="logical" name="LHFCALC"> F  </i>
   <i type="string" name="PRECFOCK"></i>
   <i type="logical" name="LSYMGRAD"> F  </i>
   <i type="logical" name="LHFONE"> F  </i>
   <i type="logical" name="LRHFCALC"> F  </i>
   <i type="logical" name="LTHOMAS"> F  </i>
   <i type="logical" name="LMODELHF"> F  </i>
   <i name="ENCUT4O">     -1.00000000</i>
   <i type="int" name="EXXOEP">     0</i>
   <i type="int" name="FOURORBIT">     0</i>
   <i name="AEXX">      0.00000000</i>
   <i name="HFALPHA">      0.00000000</i>
   <i name="MCALPHA">      0.00000000</i>
   <i name="ALDAX">      1.00000000</i>
   <i name="AGGAX">      1.00000000</i>
   <i name="ALDAC">      1.00000000</i>
   <i name="AGGAC">      1.00000000</i>
   <i type="int" name="NKREDX">     1</i>
   <i type="int" name="NKREDY">     1</i>
   <i type="int" name="NKREDZ">     1</i>
   <i type="logical" name="SHIFTRED"> F  </i>
   <i type="logical" name="ODDONLY"> F  </i>
   <i type="logical" name="EVENONLY"> F  </i>
   <i type="int" name="LMAXFOCK">     0</i>
   <i type="int" name="NMAXFOCKAE">     0</i>
   <i type="logical" name="LFOCKAEDFT"> F  </i>
   <i name="HFSCREEN">      0.00000000</i>
   <i name="HFSCREENC">      0.00000000</i>
   <i type="int" name="NBANDSGWLOW">     0</i>
  </separator>
  <separator name="vdW DFT" >
   <i type="logical" name="LUSE_VDW"> F  </i>
   <i name="Zab_VDW">     -0.84910000</i>
   <i name="PARAM1">      0.12340000</i>
   <i name="PARAM2">      1.00000000</i>
   <i name="PARAM3">      0.00000000</i>
  </separator>
  <separator name="model GW" >
   <i type="int" name="MODEL_GW">     0</i>
   <i name="MODEL_EPS0">      9.60000000</i>
   <i name="MODEL_ALPHA">      1.00000000</i>
  </separator>
  <separator name="linear response parameters" >
   <i type="logical" name="LEPSILON"> F  </i>
   <i type="logical" name="LRPA"> F  </i>
   <i type="logical" name="LNABLA"> F  </i>
   <i type="logical" name="LVEL"> F  </i>
   <i type="int" name="KINTER">     0</i>
   <i name="CSHIFT">      0.10000000</i>
   <i name="OMEGAMAX">     -1.00000000</i>
   <i name="DEG_THRESHOLD">      0.00200000</i>
  </separator>
  <separator name="orbital magnetization" >
   <i type="logical" name="NUCIND"> F  </i>
   <v name="MAGPOS">      0.00000000      0.00000000      0.00000000</v>
   <i type="logical" name="LNICSALL"> T  </i>
   <i type="logical" name="ORBITALMAG"> F  </i>
   <i type="logical" name="LMAGBLOCH"> F  </i>
   <i type="logical" name="LCHIMAG"> F  </i>
   <i type="logical" name="LGAUGE"> T  </i>
   <i type="int" name="MAGATOM">     0</i>
   <v name="MAGDIPOL">      0.00000000      0.00000000      0.00000000</v>
   <v name="AVECCONST">      0.00000000      0.00000000      0.00000000</v>
  </separator>
  <separator name="response functions" >
   <i type="logical" name="LADDER"> F  </i>
   <i type="logical" name="LFXC"> F  </i>
   <i type="logical" name="LHARTREE"> T  </i>
   <i type="int" name="IBSE">     0</i>
   <i type="logical" name="LTCTE"> F  </i>
   <i type="logical" name="LTETE"> F  </i>
   <i type="logical" name="LTRIPLET"> F  </i>
   <i type="logical" name="LFXCEPS"> F  </i>
   <i type="logical" name="LFXHEG"> F  </i>
   <i type="logical" name="L2ORDER"> F  </i>
   <i type="logical" name="LUSEW"> F  </i>
   <i name="ENCUTGW">     -2.00000000</i>
   <i name="ENCUTGWSOFT">     -2.00000000</i>
   <i name="ENCUTLF">     -1.00000000</i>
   <i type="int" name="LMAXMP2">    -1</i>
   <i name="SCISSOR">      0.00000000</i>
   <i type="int" name="NOMEGA">     0</i>
   <i type="int" name="NOMEGAR">     0</i>
   <i type="int" name="NBANDSGW">    -1</i>
   <i type="int" name="NBANDSO">    -1</i>
   <i type="int" name="NBANDSV">    -1</i>
   <i type="int" name="NELM">   100</i>
   <i type="int" name="DIM">     3</i>
   <i type="int" name="ANTIRES">     0</i>
   <i name="OMEGAMAX">    -30.00000000</i>
   <i name="OMEGAMIN">    -30.00000000</i>
   <i name="OMEGATL">   -200.00000000</i>
   <i type="int" name="OMEGAGRID">     0</i>
   <i name="CSHIFT">     -0.10000000</i>
   <i type="logical" name="SELFENERGY"> F  </i>
   <i type="logical" name="LSPECTRAL"> F  </i>
   <i type="logical" name="ODDONLYGW"> F  </i>
   <i type="logical" name="EVENONLYGW"> F  </i>
   <i type="int" name="NKREDLFX">     1</i>
   <i type="int" name="NKREDLFY">     1</i>
   <i type="int" name="NKREDLFZ">     1</i>
   <i type="int" name="MAXMEM">  1800</i>
   <i type="int" name="TELESCOPE">     0</i>
   <i type="int" name="TAUPAR">     1</i>
  </separator>
  <separator name="External order field" >
   <i name="OFIELD_KAPPA">      0.00000000</i>
   <v name="OFIELD_K">      0.00000000      0.00000000      0.00000000</v>
   <i name="OFIELD_Q6_NEAR">      0.00000000</i>
   <i name="OFIELD_Q6_FAR">      0.00000000</i>
   <i name="OFIELD_A">      0.00000000</i>
  </separator>
 </parameters>
 <atominfo>
  <atoms>      32 </atoms>
  <types>       3 </types>
  <array name="atoms" >
   <dimension dim="1">ion</dimension>
   <field type="string">element</field>
   <field type="int">atomtype</field>
   <set>
    <rc><c>Sr</c><c>   1</c></rc>
    <rc><c>Sr</c><c>   1</c></rc>
    <rc><c>Sr</c><c>   1</c></rc>
    <rc><c>Sr</c><c>   1</c></rc>
    <rc><c>Sr</c><c>   1</c></rc>
    <rc><c>Sr</c><c>   1</c></rc>
    <rc><c>Sr</c><c>   1</c></rc>
    <rc><c>Sr</c><c>   1</c></rc>
    <rc><c>Cu</c><c>   2</c></rc>
    <rc><c>Cu</c><c>   2</c></rc>
    <rc><c>Cu</c><c>   2</c></rc>
    <rc><c>Cu</c><c>   2</c></rc>
    <rc><c>Cu</c><c>   2</c></rc>
    <rc><c>Cu</c><c>   2</c></rc>
    <rc><c>Cu</c><c>   2</c></rc>
    <rc><c>Cu</c><c>   2</c></rc>
    <rc><c>O </c><c>   3</c></rc>
    <rc><c>O </c><c>   3</c></rc>
    <rc><c>O </c><c>   3</c></rc>
    <rc><c>O </c><c>   3</c></rc>
    <rc><c>O </c><c>   3</c></rc>
    <rc><c>O </c><c>   3</c></rc>
    <rc><c>O </c><c>   3</c></rc>
    <rc><c>O </c><c>   3</c></rc>
    <rc><c>O </c><c>   3</c></rc>
    <rc><c>O </c><c>   3</c></rc>
    <rc><c>O </c><c>   3</c></rc>
    <rc><c>O </c><c>   3</c></rc>
    <rc><c>O </c><c>   3</c></rc>
    <rc><c>O </c><c>   3</c></rc>
    <rc><c>O </c><c>   3</c></rc>
    <rc><c>O </c><c>   3</c></rc>
   </set>
  </array>
  <array name="atomtypes" >
   <dimension dim="1">type</dimension>
   <field type="int">atomspertype</field>
   <field type="string">element</field>
   <field>mass</field>
   <field>valence</field>
   <field type="string">pseudopotential</field>
   <set>
    <rc><c>   8</c><c>Sr</c><c>     87.62000000</c><c>     10.00000000</c><c>  PAW_PBE Sr_sv 07Sep2000               </c></rc>
    <rc><c>   8</c><c>Cu</c><c>     63.54600000</c><c>     11.00000000</c><c>  PAW_PBE Cu 22Jun2005                  </c></rc>
    <rc><c>  16</c><c>O </c><c>     16.00000000</c><c>      6.00000000</c><c>  PAW_PBE O_s 07Sep2000                 </c></rc>
   </set>
  </array>
 </atominfo>
 <structure name="initialpos" >
  <crystal>
   <varray name="basis" >
    <v>       4.00000000       0.00000000       0.00000000 </v>
    <v>       0.00000000      11.31370850       0.00000000 </v>
    <v>       0.00000000       0.00000000      11.31370850 </v>
   </varray>
   <i name="volume">    512.00000000 </i>
   <varray name="rec_basis" >
    <v>       0.25000000       0.00000000       0.00000000 </v>
    <v>       0.00000000       0.08838835       0.00000000 </v>
    <v>       0.00000000       0.00000000       0.08838835 </v>
   </varray>
  </crystal>
  <varray name="positions" >
   <v>       0.00000000       0.00000000       0.00000000 </v>
   <v>       0.00000000       0.25000000       0.25000000 </v>
   <v>       0.00000000       0.75000000       0.25000000 </v>
   <v>       0.00000000       0.00000000       0.50000000 </v>
   <v>       0.00000000       0.50000000       0.50000000 </v>
   <v>       0.00000000       0.75000000       0.75000000 </v>
   <v>       0.00000000       0.25000000       0.75000000 </v>
   <v>       0.00000000       0.50000000       0.00000000 </v>
   <v>       0.50000000       0.00000000       0.25000000 </v>
   <v>       0.50000000       0.25000000       0.50000000 </v>
   <v>       0.50000000       0.75000000       0.50000000 </v>
   <v>       0.50000000       0.00000000       0.75000000 </v>
   <v>       0.50000000       0.50000000       0.75000000 </v>
   <v>       0.50000000       0.75000000       0.00000000 </v>
   <v>       0.50000000       0.25000000       0.00000000 </v>
   <v>       0.50000000       0.50000000       0.25000000 </v>
   <v>       0.50000000       0.37500000       0.37500000 </v>
   <v>       0.50000000       0.87500000       0.37500000 </v>
   <v>       0.50000000       0.12500000       0.62500000 </v>
   <v>       0.00000000       0.25000000       0.50000000 </v>
   <v>       0.00000000       0.75000000       0.50000000 </v>
   <v>       0.50000000       0.12500000       0.37500000 </v>
   <v>       0.50000000       0.62500000       0.37500000 </v>
   <v>       0.50000000       0.87500000       0.62500000 </v>
   <v>       0.50000000       0.87500000       0.87500000 </v>
   <v>       0.50000000       0.37500000       0.87500000 </v>
   <v>       0.50000000       0.62500000       0.12500000 </v>
   <v>       0.00000000       0.75000000       0.00000000 </v>
   <v>       0.00000000       0.25000000       0.00000000 </v>
   <v>       0.50000000       0.62500000       0.87500000 </v>
   <v>       0.50000000       0.12500000       0.87500000 </v>
   <v>       0.50000000       0.37500000       0.12500000 </v>
  </varray>
 </structure>
 <calculation>
  <scstep>
   <time name="dav">   13.72   13.72</time>
   <time name="total">   14.14   14.16</time>
   <energy>
    <i name="alphaZ">   1197.30728287 </i>
    <i name="ewald"> -17150.85707491 </i>
    <i name="hartreedc">  -7737.35437514 </i>
    <i name="XCdc">   1086.32928127 </i>
    <i name="pawpsdc">  20377.93945936 </i>
    <i name="pawaedc"> -21035.46554250 </i>
    <i name="eentropy">     -0.01118585 </i>
    <i name="bandstr">   1931.67140230 </i>
    <i name="atom">  24790.01456472 </i>
    <i name="e_fr_energy">   3459.57381213 </i>
    <i name="e_wo_entrp">   3459.58499798 </i>
    <i name="e_0_energy">   3459.57940506 </i>
   </energy>
  </scstep>
  <scstep>
   <time name="dav">   13.98   13.98</time>
   <time name="total">   13.98   14.00</time>
   <energy>
    <i name="e_fr_energy">    406.43392611 </i>
    <i name="e_wo_entrp">    406.44835486 </i>
    <i name="e_0_energy">    406.44114048 </i>
   </energy>
  </scstep>
  <scstep>
   <time name="dav">   13.90   13.90</time>
   <time name="total">   13.90   13.92</time>
   <energy>
    <i name="e_fr_energy">   -140.73596983 </i>
    <i name="e_wo_entrp">   -140.71105687 </i>
    <i name="e_0_energy">   -140.72351335 </i>
   </energy>
  </scstep>
  <scstep>
   <time name="dav">   18.10   18.10</time>
   <time name="total">   18.10   18.12</time>
   <energy>
    <i name="e_fr_energy">   -190.51324797 </i>
    <i name="e_wo_entrp">   -190.49322707 </i>
    <i name="e_0_energy">   -190.50323752 </i>
   </energy>
  </scstep>
  <scstep>
   <time name="dav">   22.66   22.67</time>
   <time name="total">   23.60   23.62</time>
   <energy>
    <i name="e_fr_energy">   -193.78192557 </i>
    <i name="e_wo_entrp">   -193.76173861 </i>
    <i name="e_0_energy">   -193.77183209 </i>
   </energy>
  </scstep>
  <scstep>
   <time name="dav">   19.39   19.39</time>
   <time name="total">   20.73   20.74</time>
   <energy>
    <i name="e_fr_energy">   -170.74261177 </i>
    <i name="e_wo_entrp">   -170.71925111 </i>
    <i name="e_0_energy">   -170.73093144 </i>
   </energy>
  </scstep>
  <scstep>
   <time name="dav">   19.03   19.04</time>
   <time name="total">   20.37   20.39</time>
   <energy>
    <i name="e_fr_energy">   -157.06268602 </i>
    <i name="e_wo_entrp">   -157.04157599 </i>
    <i name="e_0_energy">   -157.05213100 </i>
   </energy>
  </scstep>
  <scstep>
   <time name="dav">   19.35   19.35</time>
   <time name="total">   20.69   20.71</time>
   <energy>
    <i name="e_fr_energy">   -158.07333287 </i>
    <i name="e_wo_entrp">   -158.05891042 </i>
    <i name="e_0_energy">   -158.06612165 </i>
   </energy>
  </scstep>
  <scstep>
   <time name="dav">   18.45   18.45</time>
   <time name="total">   19.78   19.80</time>
   <energy>
    <i name="e_fr_energy">   -159.84382051 </i>
    <i name="e_wo_entrp">   -159.82748722 </i>
    <i name="e_0_energy">   -159.83565386 </i>
   </energy>
  </scstep>
  <scstep>
   <time name="dav">   18.82   18.83</time>
   <time name="total">   20.16   20.17</time>
   <energy>
    <i name="e_fr_energy">   -155.05557019 </i>
    <i name="e_wo_entrp">   -155.04090005 </i>
    <i name="e_0_energy">   -155.04823512 </i>
   </energy>
  </scstep>
  <scstep>
   <time name="dav">   19.66   19.66</time>
   <time name="total">   20.99   21.01</time>
   <energy>
    <i name="e_fr_energy">   -155.87910799 </i>
    <i name="e_wo_entrp">   -155.86738446 </i>
    <i name="e_0_energy">   -155.87324622 </i>
   </energy>
  </scstep>
  <scstep>
   <time name="dav">   18.54   18.54</time>
   <time name="total">   19.87   19.89</time>
   <energy>
    <i name="e_fr_energy">   -155.87846707 </i>
    <i name="e_wo_entrp">   -155.86856696 </i>
    <i name="e_0_energy">   -155.87351702 </i>
   </energy>
  </scstep>
  <scstep>
   <time name="dav">   18.81   18.81</time>
   <time name="total">   20.14   20.16</time>
   <energy>
    <i name="e_fr_energy">   -156.01678593 </i>
    <i name="e_wo_entrp">   -156.00681689 </i>
    <i name="e_0_energy">   -156.01180141 </i>
   </energy>
  </scstep>
  <scstep>
   <time name="dav">   19.20   19.21</time>
   <time name="total">   20.54   20.56</time>
   <energy>
    <i name="e_fr_energy">   -156.05810232 </i>
    <i name="e_wo_entrp">   -156.04737095 </i>
    <i name="e_0_energy">   -156.05273663 </i>
   </energy>
  </scstep>
  <scstep>
   <time name="dav">   20.34   20.35</time>
   <time name="total">   21.68   21.70</time>
   <energy>
    <i name="e_fr_energy">   -156.07398973 </i>
    <i name="e_wo_entrp">   -156.06260351 </i>
    <i name="e_0_energy">   -156.06829662 </i>
   </energy>
  </scstep>
  <scstep>
   <time name="dav">   19.89   19.89</time>
   <time name="total">   21.22   21.25</time>
   <energy>
    <i name="e_fr_energy">   -156.08055851 </i>
    <i name="e_wo_entrp">   -156.06878546 </i>
    <i name="e_0_energy">   -156.07467199 </i>
   </energy>
  </scstep>
  <scstep>
   <time name="dav">   19.30   19.30</time>
   <time name="total">   20.64   20.66</time>
   <energy>
    <i name="e_fr_energy">   -156.08314725 </i>
    <i name="e_wo_entrp">   -156.07133820 </i>
    <i name="e_0_energy">   -156.07724272 </i>
   </energy>
  </scstep>
  <scstep>
   <time name="dav">   20.37   20.38</time>
   <time name="total">   21.71   21.73</time>
   <energy>
    <i name="e_fr_energy">   -156.08451107 </i>
    <i name="e_wo_entrp">   -156.07278395 </i>
    <i name="e_0_energy">   -156.07864751 </i>
   </energy>
  </scstep>
  <scstep>
   <time name="dav">   20.31   20.32</time>
   <time name="total">   21.65   21.67</time>
   <energy>
    <i name="e_fr_energy">   -156.08510958 </i>
    <i name="e_wo_entrp">   -156.07346591 </i>
    <i name="e_0_energy">   -156.07928774 </i>
   </energy>
  </scstep>
  <scstep>
   <time name="dav">   16.95   16.95</time>
   <time name="total">   18.29   18.31</time>
   <energy>
    <i name="e_fr_energy">   -156.08548313 </i>
    <i name="e_wo_entrp">   -156.07390932 </i>
    <i name="e_0_energy">   -156.07969622 </i>
   </energy>
  </scstep>
  <scstep>
   <time name="dav">   19.82   19.83</time>
   <time name="total">   21.17   21.19</time>
   <energy>
    <i name="e_fr_energy">   -156.08559790 </i>
    <i name="e_wo_entrp">   -156.07407603 </i>
    <i name="e_0_energy">   -156.07983696 </i>
   </energy>
  </scstep>
  <scstep>
   <time name="dav">   18.53   18.53</time>
   <time name="total">   19.87   19.89</time>
   <energy>
    <i name="e_fr_energy">   -156.08566440 </i>
    <i name="e_wo_entrp">   -156.07416468 </i>
    <i name="e_0_energy">   -156.07991454 </i>
   </energy>
  </scstep>
  <scstep>
   <time name="dav">   17.73   17.74</time>
   <time name="total">   19.07   19.09</time>
   <energy>
    <i name="e_fr_energy">   -156.08568842 </i>
    <i name="e_wo_entrp">   -156.07420126 </i>
    <i name="e_0_energy">   -156.07994484 </i>
   </energy>
  </scstep>
  <scstep>
   <time name="dav">   17.09   17.10</time>
   <time name="total">   18.43   18.45</time>
   <energy>
    <i name="e_fr_energy">   -156.08569788 </i>
    <i name="e_wo_entrp">   -156.07422316 </i>
    <i name="e_0_energy">   -156.07996052 </i>
   </energy>
  </scstep>
  <scstep>
   <time name="dav">   14.47   14.48</time>
   <time name="total">   15.81   15.83</time>
   <energy>
    <i name="e_fr_energy">   -156.08570201 </i>
    <i name="e_wo_entrp">   -156.07422726 </i>
    <i name="e_0_energy">   -156.07996464 </i>
   </energy>
  </scstep>
  <scstep>
   <time name="dav">   10.94   10.95</time>
   <time name="total">   12.28   12.30</time>
   <energy>
    <i name="e_fr_energy">   -156.08570357 </i>
    <i name="e_wo_entrp">   -156.07422830 </i>
    <i name="e_0_energy">   -156.07996593 </i>
   </energy>
  </scstep>
  <scstep>
   <time name="dav">   11.93   11.93</time>
   <time name="total">   12.34   12.36</time>
   <energy>
    <i name="alphaZ">   1197.30728287 </i>
    <i name="ewald"> -17150.85707491 </i>
    <i name="hartreedc">  -7739.97163387 </i>
    <i name="XCdc">   1086.50687370 </i>
    <i name="pawpsdc">  31044.30498606 </i>
    <i name="pawaedc"> -31775.36074750 </i>
    <i name="eentropy">     -0.01147999 </i>
    <i name="bandstr">  -1608.01847551 </i>
    <i name="atom">  24790.01456472 </i>
    <i name="e_fr_energy">   -156.08570442 </i>
    <i name="e_wo_entrp">   -156.07422443 </i>
    <i name="e_0_energy">   -156.07996443 </i>
   </energy>
  </scstep>
  <structure>
   <crystal>
    <varray name="basis" >
     <v>       4.00000000       0.00000000       0.00000000 </v>
     <v>       0.00000000      11.31370850       0.00000000 </v>
     <v>       0.00000000       0.00000000      11.31370850 </v>
    </varray>
    <i name="volume">    512.00000000 </i>
    <varray name="rec_basis" >
     <v>       0.25000000       0.00000000       0.00000000 </v>
     <v>       0.00000000       0.08838835       0.00000000 </v>
     <v>       0.00000000       0.00000000       0.08838835 </v>
    </varray>
   </crystal>
   <varray name="positions" >
    <v>       0.00000000       0.00000000       0.00000000 </v>
    <v>       0.00000000       0.25000000       0.25000000 </v>
    <v>       0.00000000       0.75000000       0.25000000 </v>
    <v>       0.00000000       0.00000000       0.50000000 </v>
    <v>       0.00000000       0.50000000       0.50000000 </v>
    <v>       0.00000000       0.75000000       0.75000000 </v>
    <v>       0.00000000       0.25000000       0.75000000 </v>
    <v>       0.00000000       0.50000000       0.00000000 </v>
    <v>       0.50000000       0.00000000       0.25000000 </v>
    <v>       0.50000000       0.25000000       0.50000000 </v>
    <v>       0.50000000       0.75000000       0.50000000 </v>
    <v>       0.50000000       0.00000000       0.75000000 </v>
    <v>       0.50000000       0.50000000       0.75000000 </v>
    <v>       0.50000000       0.75000000       0.00000000 </v>
    <v>       0.50000000       0.25000000       0.00000000 </v>
    <v>       0.50000000       0.50000000       0.25000000 </v>
    <v>       0.50000000       0.37500000       0.37500000 </v>
    <v>       0.50000000       0.87500000       0.37500000 </v>
    <v>       0.50000000       0.12500000       0.62500000 </v>
    <v>       0.00000000       0.25000000       0.50000000 </v>
    <v>       0.00000000       0.75000000       0.50000000 </v>
    <v>       0.50000000       0.12500000       0.37500000 </v>
    <v>       0.50000000       0.62500000       0.37500000 </v>
    <v>       0.50000000       0.87500000       0.62500000 </v>
    <v>       0.50000000       0.87500000       0.87500000 </v>
    <v>       0.50000000       0.37500000       0.87500000 </v>
    <v>       0.50000000       0.62500000       0.12500000 </v>
    <v>       0.00000000       0.75000000       0.00000000 </v>
    <v>       0.00000000       0.25000000       0.00000000 </v>
    <v>       0.50000000       0.62500000       0.87500000 </v>
    <v>       0.50000000       0.12500000       0.87500000 </v>
    <v>       0.50000000       0.37500000       0.12500000 </v>
   </varray>
  </structure>
  <varray name="forces" >
   <v>       0.00000000       0.00000000      -1.78573014 </v>
   <v>       0.00000000       0.91412882       0.76877567 </v>
   <v>       0.00000000      -0.91412882       0.76877567 </v>
   <v>       0.00000000       0.00000000       0.12171270 </v>
   <v>       0.00000000       0.00000000      -1.78573014 </v>
   <v>       0.00000000       0.91412882       0.76877567 </v>
   <v>       0.00000000      -0.91412882       0.76877567 </v>
   <v>       0.00000000       0.00000000       0.12171270 </v>
   <v>       0.00000000       0.00000000       1.87042304 </v>
   <v>       0.00000000      -0.48584710      -0.30667308 </v>
   <v>       0.00000000       0.48584710      -0.30667308 </v>
   <v>       0.00000000       0.00000000       0.02801733 </v>
   <v>       0.00000000       0.00000000       1.87042304 </v>
   <v>       0.00000000      -0.48584710      -0.30667308 </v>
   <v>       0.00000000       0.48584710      -0.30667308 </v>
   <v>       0.00000000       0.00000000       0.02801733 </v>
   <v>       0.00000000       0.90882552       0.00421968 </v>
   <v>       0.00000000       0.92957303      -2.12305929 </v>
   <v>       0.00000000       0.02797114       0.80258865 </v>
   <v>       0.00000000       0.92840444       0.73693690 </v>
   <v>       0.00000000      -0.92840444       0.73693690 </v>
   <v>       0.00000000      -0.92957303      -2.12305929 </v>
   <v>       0.00000000      -0.90882552       0.00421968 </v>
   <v>       0.00000000      -0.02797114       0.80258865 </v>
   <v>       0.00000000       0.90882552       0.00421968 </v>
   <v>       0.00000000       0.92957303      -2.12305929 </v>
   <v>       0.00000000       0.02797114       0.80258865 </v>
   <v>       0.00000000       0.92840444       0.73693690 </v>
   <v>       0.00000000      -0.92840444       0.73693690 </v>
   <v>       0.00000000      -0.92957303      -2.12305929 </v>
   <v>       0.00000000      -0.90882552       0.00421968 </v>
   <v>       0.00000000      -0.02797114       0.80258865 </v>
  </varray>
  <varray name="stress" >
   <v>     -99.72848871       0.00000000       0.00000000 </v>
   <v>       0.00000000     -69.54678027       0.00000000 </v>
   <v>       0.00000000       0.00000000     -95.89635855 </v>
  </varray>
  <energy>
   <i name="e_fr_energy">   -156.08570442 </i>
   <i name="e_wo_entrp">   -156.07996443 </i>
   <i name="e_0_energy">     -0.01147999 </i>
  </energy>
  <time name="totalsc">  532.13  532.70</time>
  <eigenvalues>
   <array>
    <dimension dim="1">band</dimension>
    <dimension dim="2">kpoint</dimension>
    <dimension dim="3">spin</dimension>
    <field>eigene</field>
    <field>occ</field>
    <set>
     <set comment="spin 1">
      <set comment="kpoint 1">
       <r>  -32.0503    1.0000 </r>
       <r>  -32.0502    1.0000 </r>
       <r>  -31.3353    1.0000 </r>
       <r>  -31.3352    1.0000 </r>
       <r>  -31.3350    1.0000 </r>
       <r>  -31.3348    1.0000 </r>
       <r>  -30.7159    1.0000 </r>
       <r>  -30.7157    1.0000 </r>
       <r>  -15.0262    1.0000 </r>
       <r>  -14.9079    1.0000 </r>
       <r>  -14.8496    1.0000 </r>
       <r>  -14.8245    1.0000 </r>
       <r>  -14.6345    1.0000 </r>
       <r>  -14.6301    1.0000 </r>
       <r>  -14.4481    1.0000 </r>
       <r>  -14.3400    1.0000 </r>
       <r>  -14.3085    1.0000 </r>
       <r>  -14.2906    1.0000 </r>
       <r>  -14.0913    1.0000 </r>
       <r>  -14.0709    1.0000 </r>
       <r>  -13.9607    1.0000 </r>
       <r>  -13.9604    1.0000 </r>
       <r>  -13.9103    1.0000 </r>
       <r>  -13.8894    1.0000 </r>
       <r>  -13.8144    1.0000 </r>
       <r>  -13.7752    1.0000 </r>
       <r>  -13.6384    1.0000 </r>
       <r>  -13.5812    1.0000 </r>
       <r>  -13.5295    1.0000 </r>
       <r>  -13.4259    1.0000 </r>
       <r>  -13.2812    1.0000 </r>
       <r>  -13.2200    1.0000 </r>
       <r>  -13.2049    1.0000 </r>
       <r>  -13.2048    1.0000 </r>
       <r>  -13.2044    1.0000 </r>
       <r>  -13.2042    1.0000 </r>
       <r>  -13.1479    1.0000 </r>
       <r>  -13.1277    1.0000 </r>
       <r>  -13.0325    1.0000 </r>
       <r>  -12.9029    1.0000 </r>
       <r>  -12.8590    1.0000 </r>
       <r>  -12.8357    1.0000 </r>
       <r>  -12.6102    1.0000 </r>
       <r>  -12.5627    1.0000 </r>
       <r>  -12.5615    1.0000 </r>
       <r>  -12.5530    1.0000 </r>
       <r>  -12.3732    1.0000 </r>
       <r>  -12.3079    1.0000 </r>
       <r>   -3.0855    1.0000 </r>
       <r>   -2.5385    1.0000 </r>
       <r>   -2.4876    1.0000 </r>
       <r>   -2.4649    1.0000 </r>
       <r>   -2.2921    1.0000 </r>
       <r>   -2.2748    1.0000 </r>
       <r>   -2.2712    1.0000 </r>
       <r>   -2.2365    1.0000 </r>
       <r>   -2.1221    1.0000 </r>
       <r>   -2.0922    1.0000 </r>
       <r>   -1.6900    1.0000 </r>
       <r>   -1.5236    1.0000 </r>
       <r>   -1.5180    1.0000 </r>
       <r>   -1.4401    1.0000 </r>
       <r>   -1.4360    1.0000 </r>
       <r>   -1.4180    1.0000 </r>
       <r>   -1.3319    1.0000 </r>
       <r>   -1.3263    1.0000 </r>
       <r>   -1.3036    1.0000 </r>
       <r>   -1.1889    1.0000 </r>
       <r>   -1.1846    1.0000 </r>
       <r>   -1.1843    1.0000 </r>
       <r>   -1.1666    1.0000 </r>
       <r>   -1.0924    1.0000 </r>
       <r>   -1.0553    1.0000 </r>
       <r>   -1.0465    1.0000 </r>
       <r>   -0.8212    1.0000 </r>
       <r>   -0.7924    1.0000 </r>
       <r>   -0.7824    1.0000 </r>
       <r>   -0.7591    1.0000 </r>
       <r>   -0.7589    1.0000 </r>
       <r>   -0.7576    1.0000 </r>
       <r>   -0.6847    1.0000 </r>
       <r>   -0.6811    1.0000 </r>
       <r>   -0.6623    1.0000 </r>
       <r>   -0.6539    1.0000 </r>
       <r>   -0.6200    1.0000 </r>
       <r>   -0.5995    1.0000 </r>
       <r>   -0.5587    1.0000 </r>
       <r>   -0.5451    1.0000 </r>
       <r>   -0.5190    1.0000 </r>
       <r>   -0.4977    1.0000 </r>
       <r>   -0.4420    1.0000 </r>
       <r>   -0.4116    1.0000 </r>
       <r>   -0.3712    1.0000 </r>
       <r>   -0.3625    1.0000 </r>
       <r>   -0.3186    1.0000 </r>
       <r>   -0.1990    1.0000 </r>
       <r>    0.0883    1.0000 </r>
       <r>    0.2294    1.0000 </r>
       <r>    0.2490    1.0000 </r>
       <r>    0.2964    1.0000 </r>
       <r>    0.3073    1.0000 </r>
       <r>    0.7056    1.0000 </r>
       <r>    0.7240    1.0000 </r>
       <r>    0.7484    1.0000 </r>
       <r>    0.7839    1.0000 </r>
       <r>    0.7942    1.0000 </r>
       <r>    0.9115    1.0000 </r>
       <r>    0.9219    1.0000 </r>
       <r>    0.9376    1.0000 </r>
       <r>    1.0660    1.0000 </r>
       <r>    1.0828    1.0000 </r>
       <r>    1.0884    1.0000 </r>
       <r>    1.1772    1.0000 </r>
       <r>    1.2031    1.0000 </r>
       <r>    1.2493    1.0000 </r>
       <r>    1.3503    1.0000 </r>
       <r>    1.3621    1.0000 </r>
       <r>    1.3958    1.0000 </r>
       <r>    1.3993    1.0000 </r>
       <r>    1.4539    1.0000 </r>
       <r>    1.4735    1.0000 </r>
       <r>    1.4766    1.0000 </r>
       <r>    1.4863    1.0000 </r>
       <r>    1.5931    1.0000 </r>
       <r>    1.6291    1.0000 </r>
       <r>    1.6956    1.0000 </r>
       <r>    1.7513    1.0000 </r>
       <r>    1.7687    1.0000 </r>
       <r>    1.7802    1.0000 </r>
       <r>    1.8087    1.0000 </r>
       <r>    1.8254    1.0000 </r>
       <r>    1.8915    1.0000 </r>
       <r>    2.1451    1.0000 </r>
       <r>    2.3422    1.0000 </r>
       <r>    2.3739    1.0000 </r>
       <r>    2.5290    0.8525 </r>
       <r>    3.4265    0.0000 </r>
       <r>    3.5146    0.0000 </r>
       <r>    5.1888    0.0000 </r>
       <r>    5.2228    0.0000 </r>
       <r>    5.6362    0.0000 </r>
       <r>    5.8889    0.0000 </r>
       <r>    5.9474    0.0000 </r>
       <r>    5.9948    0.0000 </r>
       <r>    6.8690    0.0000 </r>
       <r>    6.9766    0.0000 </r>
       <r>    7.2450    0.0000 </r>
       <r>    7.5076    0.0000 </r>
       <r>    7.5556    0.0000 </r>
       <r>    7.6317    0.0000 </r>
       <r>    7.6578    0.0000 </r>
       <r>    7.7481    0.0000 </r>
       <r>    7.8150    0.0000 </r>
       <r>    7.9344    0.0000 </r>
       <r>    8.0886    0.0000 </r>
       <r>    8.2396    0.0000 </r>
       <r>    8.4873    0.0000 </r>
       <r>    8.5387    0.0000 </r>
       <r>    8.6270    0.0000 </r>
       <r>    8.8234    0.0000 </r>
       <r>    8.9843    0.0000 </r>
       <r>    9.0039    0.0000 </r>
       <r>    9.1186    0.0000 </r>
       <r>    9.2150    0.0000 </r>
       <r>    9.3589    0.0000 </r>
       <r>    9.4801    0.0000 </r>
       <r>    9.5044    0.0000 </r>
       <r>    9.6075    0.0000 </r>
       <r>    9.7124    0.0000 </r>
       <r>    9.7157    0.0000 </r>
       <r>    9.9136    0.0000 </r>
       <r>    9.9245    0.0000 </r>
       <r>   10.0672    0.0000 </r>
       <r>   10.0690    0.0000 </r>
       <r>   10.2344    0.0000 </r>
       <r>   10.3737    0.0000 </r>
      </set>
      <set comment="kpoint 2">
       <r>  -32.0460    1.0000 </r>
       <r>  -32.0459    1.0000 </r>
       <r>  -31.3309    1.0000 </r>
       <r>  -31.3308    1.0000 </r>
       <r>  -31.3306    1.0000 </r>
       <r>  -31.3305    1.0000 </r>
       <r>  -30.7113    1.0000 </r>
       <r>  -30.7111    1.0000 </r>
       <r>  -14.8972    1.0000 </r>
       <r>  -14.8680    1.0000 </r>
       <r>  -14.8624    1.0000 </r>
       <r>  -14.7687    1.0000 </r>
       <r>  -14.6346    1.0000 </r>
       <r>  -14.5776    1.0000 </r>
       <r>  -14.3448    1.0000 </r>
       <r>  -14.2907    1.0000 </r>
       <r>  -14.2702    1.0000 </r>
       <r>  -14.2653    1.0000 </r>
       <r>  -14.1414    1.0000 </r>
       <r>  -14.1081    1.0000 </r>
       <r>  -14.0853    1.0000 </r>
       <r>  -14.0183    1.0000 </r>
       <r>  -13.9854    1.0000 </r>
       <r>  -13.9571    1.0000 </r>
       <r>  -13.8493    1.0000 </r>
       <r>  -13.7049    1.0000 </r>
       <r>  -13.6437    1.0000 </r>
       <r>  -13.5909    1.0000 </r>
       <r>  -13.5631    1.0000 </r>
       <r>  -13.4782    1.0000 </r>
       <r>  -13.3532    1.0000 </r>
       <r>  -13.3396    1.0000 </r>
       <r>  -13.2776    1.0000 </r>
       <r>  -13.2618    1.0000 </r>
       <r>  -13.1272    1.0000 </r>
       <r>  -13.1190    1.0000 </r>
       <r>  -13.0509    1.0000 </r>
       <r>  -13.0481    1.0000 </r>
       <r>  -13.0199    1.0000 </r>
       <r>  -12.9596    1.0000 </r>
       <r>  -12.8962    1.0000 </r>
       <r>  -12.8640    1.0000 </r>
       <r>  -12.6796    1.0000 </r>
       <r>  -12.6615    1.0000 </r>
       <r>  -12.4688    1.0000 </r>
       <r>  -12.4498    1.0000 </r>
       <r>  -12.4106    1.0000 </r>
       <r>  -12.3763    1.0000 </r>
       <r>   -3.0694    1.0000 </r>
       <r>   -2.5281    1.0000 </r>
       <r>   -2.4886    1.0000 </r>
       <r>   -2.4455    1.0000 </r>
       <r>   -2.2893    1.0000 </r>
       <r>   -2.2741    1.0000 </r>
       <r>   -2.2645    1.0000 </r>
       <r>   -2.2406    1.0000 </r>
       <r>   -2.1103    1.0000 </r>
       <r>   -1.9728    1.0000 </r>
       <r>   -1.8956    1.0000 </r>
       <r>   -1.8774    1.0000 </r>
       <r>   -1.8751    1.0000 </r>
       <r>   -1.8620    1.0000 </r>
       <r>   -1.6809    1.0000 </r>
       <r>   -1.6771    1.0000 </r>
       <r>   -1.6544    1.0000 </r>
       <r>   -1.5724    1.0000 </r>
       <r>   -1.5671    1.0000 </r>
       <r>   -1.4996    1.0000 </r>
       <r>   -1.4506    1.0000 </r>
       <r>   -1.4064    1.0000 </r>
       <r>   -1.3932    1.0000 </r>
       <r>   -1.3703    1.0000 </r>
       <r>   -1.3552    1.0000 </r>
       <r>   -1.3367    1.0000 </r>
       <r>   -1.3298    1.0000 </r>
       <r>   -1.1057    1.0000 </r>
       <r>   -0.9580    1.0000 </r>
       <r>   -0.9564    1.0000 </r>
       <r>   -0.8313    1.0000 </r>
       <r>   -0.8307    1.0000 </r>
       <r>   -0.8112    1.0000 </r>
       <r>   -0.7390    1.0000 </r>
       <r>   -0.6563    1.0000 </r>
       <r>   -0.6483    1.0000 </r>
       <r>   -0.6340    1.0000 </r>
       <r>   -0.6200    1.0000 </r>
       <r>   -0.6087    1.0000 </r>
       <r>   -0.5808    1.0000 </r>
       <r>   -0.4749    1.0000 </r>
       <r>   -0.4427    1.0000 </r>
       <r>   -0.4243    1.0000 </r>
       <r>   -0.4075    1.0000 </r>
       <r>   -0.2819    1.0000 </r>
       <r>   -0.1458    1.0000 </r>
       <r>   -0.0536    1.0000 </r>
       <r>    0.1977    1.0000 </r>
       <r>    0.4392    1.0000 </r>
       <r>    0.5037    1.0000 </r>
       <r>    0.5322    1.0000 </r>
       <r>    0.6191    1.0000 </r>
       <r>    0.6252    1.0000 </r>
       <r>    0.7492    1.0000 </r>
       <r>    0.8165    1.0000 </r>
       <r>    0.9086    1.0000 </r>
       <r>    0.9252    1.0000 </r>
       <r>    0.9350    1.0000 </r>
       <r>    0.9963    1.0000 </r>
       <r>    1.0606    1.0000 </r>
       <r>    1.0965    1.0000 </r>
       <r>    1.1173    1.0000 </r>
       <r>    1.1492    1.0000 </r>
       <r>    1.1815    1.0000 </r>
       <r>    1.2209    1.0000 </r>
       <r>    1.2311    1.0000 </r>
       <r>    1.2526    1.0000 </r>
       <r>    1.3249    1.0000 </r>
       <r>    1.3299    1.0000 </r>
       <r>    1.4164    1.0000 </r>
       <r>    1.4346    1.0000 </r>
       <r>    1.4405    1.0000 </r>
       <r>    1.4501    1.0000 </r>
       <r>    1.4786    1.0000 </r>
       <r>    1.4836    1.0000 </r>
       <r>    1.6011    1.0000 </r>
       <r>    1.6357    1.0000 </r>
       <r>    1.7420    1.0000 </r>
       <r>    1.8610    1.0000 </r>
       <r>    1.9550    1.0000 </r>
       <r>    1.9566    1.0000 </r>
       <r>    2.0692    1.0000 </r>
       <r>    2.3016    1.0000 </r>
       <r>    2.3295    1.0000 </r>
       <r>    2.3913    1.0000 </r>
       <r>    2.4546    0.9992 </r>
       <r>    2.5456    0.7182 </r>
       <r>    2.7864    0.0000 </r>
       <r>    3.3925    0.0000 </r>
       <r>    3.7704    0.0000 </r>
       <r>    5.3280    0.0000 </r>
       <r>    5.4125    0.0000 </r>
       <r>    5.4370    0.0000 </r>
       <r>    5.5979    0.0000 </r>
       <r>    5.8267    0.0000 </r>
       <r>    6.1808    0.0000 </r>
       <r>    7.0820    0.0000 </r>
       <r>    7.1561    0.0000 </r>
       <r>    7.2446    0.0000 </r>
       <r>    7.4684    0.0000 </r>
       <r>    7.4928    0.0000 </r>
       <r>    7.6376    0.0000 </r>
       <r>    7.6519    0.0000 </r>
       <r>    7.7876    0.0000 </r>
       <r>    8.0257    0.0000 </r>
       <r>    8.0555    0.0000 </r>
       <r>    8.2490    0.0000 </r>
       <r>    8.4041    0.0000 </r>
       <r>    8.5343    0.0000 </r>
       <r>    8.6078    0.0000 </r>
       <r>    8.9678    0.0000 </r>
       <r>    8.9856    0.0000 </r>
       <r>    9.0549    0.0000 </r>
       <r>    9.1475    0.0000 </r>
       <r>    9.2594    0.0000 </r>
       <r>    9.2968    0.0000 </r>
       <r>    9.4260    0.0000 </r>
       <r>    9.4611    0.0000 </r>
       <r>    9.5311    0.0000 </r>
       <r>    9.5315    0.0000 </r>
       <r>    9.6201    0.0000 </r>
       <r>    9.8801    0.0000 </r>
       <r>    9.9531    0.0000 </r>
       <r>   10.0511    0.0000 </r>
       <r>   10.1422    0.0000 </r>
       <r>   10.2665    0.0000 </r>
       <r>   10.3001    0.0000 </r>
       <r>   10.3825    0.0000 </r>
      </set>
      <set comment="kpoint 3">
       <r>  -32.0392    1.0000 </r>
       <r>  -32.0391    1.0000 </r>
       <r>  -31.3237    1.0000 </r>
       <r>  -31.3237    1.0000 </r>
       <r>  -31.3235    1.0000 </r>
       <r>  -31.3234    1.0000 </r>
       <r>  -30.7038    1.0000 </r>
       <r>  -30.7037    1.0000 </r>
       <r>  -14.9823    1.0000 </r>
       <r>  -14.8493    1.0000 </r>
       <r>  -14.6368    1.0000 </r>
       <r>  -14.6153    1.0000 </r>
       <r>  -14.6019    1.0000 </r>
       <r>  -14.5689    1.0000 </r>
       <r>  -14.3486    1.0000 </r>
       <r>  -14.2741    1.0000 </r>
       <r>  -14.2680    1.0000 </r>
       <r>  -14.1898    1.0000 </r>
       <r>  -14.1762    1.0000 </r>
       <r>  -14.1118    1.0000 </r>
       <r>  -14.0863    1.0000 </r>
       <r>  -14.0846    1.0000 </r>
       <r>  -13.9604    1.0000 </r>
       <r>  -13.8095    1.0000 </r>
       <r>  -13.7321    1.0000 </r>
       <r>  -13.7297    1.0000 </r>
       <r>  -13.6398    1.0000 </r>
       <r>  -13.6296    1.0000 </r>
       <r>  -13.5841    1.0000 </r>
       <r>  -13.4994    1.0000 </r>
       <r>  -13.4656    1.0000 </r>
       <r>  -13.4534    1.0000 </r>
       <r>  -13.4530    1.0000 </r>
       <r>  -13.4467    1.0000 </r>
       <r>  -13.2142    1.0000 </r>
       <r>  -13.1855    1.0000 </r>
       <r>  -13.0952    1.0000 </r>
       <r>  -13.0073    1.0000 </r>
       <r>  -12.9541    1.0000 </r>
       <r>  -12.8941    1.0000 </r>
       <r>  -12.8668    1.0000 </r>
       <r>  -12.8431    1.0000 </r>
       <r>  -12.8284    1.0000 </r>
       <r>  -12.8062    1.0000 </r>
       <r>  -12.4859    1.0000 </r>
       <r>  -12.4539    1.0000 </r>
       <r>  -12.3745    1.0000 </r>
       <r>  -12.3113    1.0000 </r>
       <r>   -3.0929    1.0000 </r>
       <r>   -2.8692    1.0000 </r>
       <r>   -2.8523    1.0000 </r>
       <r>   -2.8340    1.0000 </r>
       <r>   -2.7903    1.0000 </r>
       <r>   -2.4893    1.0000 </r>
       <r>   -2.4684    1.0000 </r>
       <r>   -2.3923    1.0000 </r>
       <r>   -2.2706    1.0000 </r>
       <r>   -2.2574    1.0000 </r>
       <r>   -2.2314    1.0000 </r>
       <r>   -2.2213    1.0000 </r>
       <r>   -2.0623    1.0000 </r>
       <r>   -2.0086    1.0000 </r>
       <r>   -2.0068    1.0000 </r>
       <r>   -1.8885    1.0000 </r>
       <r>   -1.8079    1.0000 </r>
       <r>   -1.8034    1.0000 </r>
       <r>   -1.7661    1.0000 </r>
       <r>   -1.6643    1.0000 </r>
       <r>   -1.6427    1.0000 </r>
       <r>   -1.5988    1.0000 </r>
       <r>   -1.4925    1.0000 </r>
       <r>   -1.4574    1.0000 </r>
       <r>   -1.4500    1.0000 </r>
       <r>   -1.3860    1.0000 </r>
       <r>   -1.3461    1.0000 </r>
       <r>   -1.1518    1.0000 </r>
       <r>   -1.0598    1.0000 </r>
       <r>   -1.0594    1.0000 </r>
       <r>   -0.8763    1.0000 </r>
       <r>   -0.8749    1.0000 </r>
       <r>   -0.7957    1.0000 </r>
       <r>   -0.7342    1.0000 </r>
       <r>   -0.7179    1.0000 </r>
       <r>   -0.7064    1.0000 </r>
       <r>   -0.6908    1.0000 </r>
       <r>   -0.6855    1.0000 </r>
       <r>   -0.5999    1.0000 </r>
       <r>   -0.5130    1.0000 </r>
       <r>   -0.3755    1.0000 </r>
       <r>   -0.3400    1.0000 </r>
       <r>   -0.2570    1.0000 </r>
       <r>   -0.1918    1.0000 </r>
       <r>   -0.0215    1.0000 </r>
       <r>    0.0077    1.0000 </r>
       <r>    0.0191    1.0000 </r>
       <r>    0.3255    1.0000 </r>
       <r>    0.4443    1.0000 </r>
       <r>    0.5828    1.0000 </r>
       <r>    0.6955    1.0000 </r>
       <r>    0.7235    1.0000 </r>
       <r>    0.7461    1.0000 </r>
       <r>    0.8060    1.0000 </r>
       <r>    0.8557    1.0000 </r>
       <r>    0.9462    1.0000 </r>
       <r>    1.0042    1.0000 </r>
       <r>    1.0205    1.0000 </r>
       <r>    1.0227    1.0000 </r>
       <r>    1.0693    1.0000 </r>
       <r>    1.0991    1.0000 </r>
       <r>    1.1186    1.0000 </r>
       <r>    1.1576    1.0000 </r>
       <r>    1.1850    1.0000 </r>
       <r>    1.2359    1.0000 </r>
       <r>    1.2554    1.0000 </r>
       <r>    1.2798    1.0000 </r>
       <r>    1.2907    1.0000 </r>
       <r>    1.3258    1.0000 </r>
       <r>    1.4675    1.0000 </r>
       <r>    1.4723    1.0000 </r>
       <r>    1.5075    1.0000 </r>
       <r>    1.6318    1.0000 </r>
       <r>    1.6676    1.0000 </r>
       <r>    1.6945    1.0000 </r>
       <r>    1.7336    1.0000 </r>
       <r>    1.8504    1.0000 </r>
       <r>    2.0438    1.0000 </r>
       <r>    2.2016    1.0000 </r>
       <r>    2.2056    1.0000 </r>
       <r>    2.2225    1.0000 </r>
       <r>    2.3209    1.0000 </r>
       <r>    2.3278    1.0000 </r>
       <r>    2.5673    0.4856 </r>
       <r>    2.7233    0.0000 </r>
       <r>    3.1048    0.0000 </r>
       <r>    3.1066    0.0000 </r>
       <r>    3.2837    0.0000 </r>
       <r>    3.4313    0.0000 </r>
       <r>    4.2358    0.0000 </r>
       <r>    4.2781    0.0000 </r>
       <r>    4.2966    0.0000 </r>
       <r>    5.6914    0.0000 </r>
       <r>    5.7620    0.0000 </r>
       <r>    6.0171    0.0000 </r>
       <r>    6.0354    0.0000 </r>
       <r>    6.7294    0.0000 </r>
       <r>    7.1387    0.0000 </r>
       <r>    7.4468    0.0000 </r>
       <r>    7.8341    0.0000 </r>
       <r>    7.8932    0.0000 </r>
       <r>    8.0847    0.0000 </r>
       <r>    8.1953    0.0000 </r>
       <r>    8.2512    0.0000 </r>
       <r>    8.2627    0.0000 </r>
       <r>    8.4001    0.0000 </r>
       <r>    8.4979    0.0000 </r>
       <r>    8.5211    0.0000 </r>
       <r>    8.7217    0.0000 </r>
       <r>    8.7950    0.0000 </r>
       <r>    8.8387    0.0000 </r>
       <r>    8.9013    0.0000 </r>
       <r>    9.3952    0.0000 </r>
       <r>    9.4526    0.0000 </r>
       <r>    9.5030    0.0000 </r>
       <r>    9.5523    0.0000 </r>
       <r>    9.5999    0.0000 </r>
       <r>    9.7162    0.0000 </r>
       <r>    9.7770    0.0000 </r>
       <r>   10.0631    0.0000 </r>
       <r>   10.0660    0.0000 </r>
       <r>   10.1531    0.0000 </r>
       <r>   10.1881    0.0000 </r>
       <r>   10.2622    0.0000 </r>
       <r>   10.2648    0.0000 </r>
       <r>   10.4463    0.0000 </r>
       <r>   10.6829    0.0000 </r>
       <r>   10.7045    0.0000 </r>
      </set>
      <set comment="kpoint 4">
       <r>  -32.0502    1.0000 </r>
       <r>  -32.0502    1.0000 </r>
       <r>  -31.3353    1.0000 </r>
       <r>  -31.3353    1.0000 </r>
       <r>  -31.3349    1.0000 </r>
       <r>  -31.3349    1.0000 </r>
       <r>  -30.7158    1.0000 </r>
       <r>  -30.7158    1.0000 </r>
       <r>  -14.9671    1.0000 </r>
       <r>  -14.9671    1.0000 </r>
       <r>  -14.8260    1.0000 </r>
       <r>  -14.8260    1.0000 </r>
       <r>  -14.5960    1.0000 </r>
       <r>  -14.5960    1.0000 </r>
       <r>  -14.5264    1.0000 </r>
       <r>  -14.5264    1.0000 </r>
       <r>  -14.2416    1.0000 </r>
       <r>  -14.2416    1.0000 </r>
       <r>  -14.0343    1.0000 </r>
       <r>  -14.0343    1.0000 </r>
       <r>  -13.9605    1.0000 </r>
       <r>  -13.9605    1.0000 </r>
       <r>  -13.8885    1.0000 </r>
       <r>  -13.8885    1.0000 </r>
       <r>  -13.8434    1.0000 </r>
       <r>  -13.8434    1.0000 </r>
       <r>  -13.5589    1.0000 </r>
       <r>  -13.5589    1.0000 </r>
       <r>  -13.5119    1.0000 </r>
       <r>  -13.5119    1.0000 </r>
       <r>  -13.2495    1.0000 </r>
       <r>  -13.2495    1.0000 </r>
       <r>  -13.2048    1.0000 </r>
       <r>  -13.2048    1.0000 </r>
       <r>  -13.2043    1.0000 </r>
       <r>  -13.2043    1.0000 </r>
       <r>  -13.1424    1.0000 </r>
       <r>  -13.1424    1.0000 </r>
       <r>  -12.9467    1.0000 </r>
       <r>  -12.9467    1.0000 </r>
       <r>  -12.8662    1.0000 </r>
       <r>  -12.8662    1.0000 </r>
       <r>  -12.5765    1.0000 </r>
       <r>  -12.5765    1.0000 </r>
       <r>  -12.5621    1.0000 </r>
       <r>  -12.5621    1.0000 </r>
       <r>  -12.3442    1.0000 </r>
       <r>  -12.3442    1.0000 </r>
       <r>   -2.8420    1.0000 </r>
       <r>   -2.8420    1.0000 </r>
       <r>   -2.5030    1.0000 </r>
       <r>   -2.5030    1.0000 </r>
       <r>   -2.3830    1.0000 </r>
       <r>   -2.3830    1.0000 </r>
       <r>   -2.2844    1.0000 </r>
       <r>   -2.2844    1.0000 </r>
       <r>   -1.9281    1.0000 </r>
       <r>   -1.9281    1.0000 </r>
       <r>   -1.5243    1.0000 </r>
       <r>   -1.5243    1.0000 </r>
       <r>   -1.3966    1.0000 </r>
       <r>   -1.3966    1.0000 </r>
       <r>   -1.3912    1.0000 </r>
       <r>   -1.3912    1.0000 </r>
       <r>   -1.3508    1.0000 </r>
       <r>   -1.3508    1.0000 </r>
       <r>   -1.2085    1.0000 </r>
       <r>   -1.2085    1.0000 </r>
       <r>   -1.1889    1.0000 </r>
       <r>   -1.1889    1.0000 </r>
       <r>   -1.1675    1.0000 </r>
       <r>   -1.1675    1.0000 </r>
       <r>   -1.0845    1.0000 </r>
       <r>   -1.0845    1.0000 </r>
       <r>   -0.9476    1.0000 </r>
       <r>   -0.9476    1.0000 </r>
       <r>   -0.9317    1.0000 </r>
       <r>   -0.9317    1.0000 </r>
       <r>   -0.7410    1.0000 </r>
       <r>   -0.7410    1.0000 </r>
       <r>   -0.6662    1.0000 </r>
       <r>   -0.6662    1.0000 </r>
       <r>   -0.6419    1.0000 </r>
       <r>   -0.6419    1.0000 </r>
       <r>   -0.5800    1.0000 </r>
       <r>   -0.5800    1.0000 </r>
       <r>   -0.4807    1.0000 </r>
       <r>   -0.4807    1.0000 </r>
       <r>   -0.4465    1.0000 </r>
       <r>   -0.4465    1.0000 </r>
       <r>   -0.4300    1.0000 </r>
       <r>   -0.4300    1.0000 </r>
       <r>   -0.4293    1.0000 </r>
       <r>   -0.4293    1.0000 </r>
       <r>   -0.2685    1.0000 </r>
       <r>   -0.2685    1.0000 </r>
       <r>    0.1196    1.0000 </r>
       <r>    0.1196    1.0000 </r>
       <r>    0.3356    1.0000 </r>
       <r>    0.3356    1.0000 </r>
       <r>    0.5160    1.0000 </r>
       <r>    0.5160    1.0000 </r>
       <r>    0.7641    1.0000 </r>
       <r>    0.7641    1.0000 </r>
       <r>    0.8037    1.0000 </r>
       <r>    0.8037    1.0000 </r>
       <r>    0.8574    1.0000 </r>
       <r>    0.8574    1.0000 </r>
       <r>    0.9731    1.0000 </r>
       <r>    0.9731    1.0000 </r>
       <r>    1.0812    1.0000 </r>
       <r>    1.0812    1.0000 </r>
       <r>    1.1889    1.0000 </r>
       <r>    1.1889    1.0000 </r>
       <r>    1.2387    1.0000 </r>
       <r>    1.2387    1.0000 </r>
       <r>    1.3282    1.0000 </r>
       <r>    1.3282    1.0000 </r>
       <r>    1.4854    1.0000 </r>
       <r>    1.4854    1.0000 </r>
       <r>    1.5243    1.0000 </r>
       <r>    1.5243    1.0000 </r>
       <r>    1.5613    1.0000 </r>
       <r>    1.5613    1.0000 </r>
       <r>    1.6668    1.0000 </r>
       <r>    1.6668    1.0000 </r>
       <r>    1.7531    1.0000 </r>
       <r>    1.7531    1.0000 </r>
       <r>    1.7942    1.0000 </r>
       <r>    1.7942    1.0000 </r>
       <r>    1.9598    1.0000 </r>
       <r>    1.9598    1.0000 </r>
       <r>    2.1702    1.0000 </r>
       <r>    2.1702    1.0000 </r>
       <r>    2.5252    0.8756 </r>
       <r>    2.5252    0.8756 </r>
       <r>    3.3944    0.0000 </r>
       <r>    3.3944    0.0000 </r>
       <r>    4.9305    0.0000 </r>
       <r>    4.9305    0.0000 </r>
       <r>    5.9207    0.0000 </r>
       <r>    5.9207    0.0000 </r>
       <r>    6.1613    0.0000 </r>
       <r>    6.1613    0.0000 </r>
       <r>    6.9893    0.0000 </r>
       <r>    6.9893    0.0000 </r>
       <r>    7.4189    0.0000 </r>
       <r>    7.4189    0.0000 </r>
       <r>    7.6462    0.0000 </r>
       <r>    7.6462    0.0000 </r>
       <r>    7.6478    0.0000 </r>
       <r>    7.6478    0.0000 </r>
       <r>    7.9230    0.0000 </r>
       <r>    7.9230    0.0000 </r>
       <r>    7.9713    0.0000 </r>
       <r>    7.9713    0.0000 </r>
       <r>    8.6374    0.0000 </r>
       <r>    8.6374    0.0000 </r>
       <r>    8.7008    0.0000 </r>
       <r>    8.7008    0.0000 </r>
       <r>    8.8177    0.0000 </r>
       <r>    8.8177    0.0000 </r>
       <r>    9.3969    0.0000 </r>
       <r>    9.3969    0.0000 </r>
       <r>    9.5424    0.0000 </r>
       <r>    9.5424    0.0000 </r>
       <r>    9.5705    0.0000 </r>
       <r>    9.5705    0.0000 </r>
       <r>    9.7093    0.0000 </r>
       <r>    9.7093    0.0000 </r>
       <r>    9.7216    0.0000 </r>
       <r>    9.7217    0.0000 </r>
       <r>   10.0559    0.0000 </r>
       <r>   10.0689    0.0000 </r>
       <r>   10.0919    0.0000 </r>
       <r>   10.1649    0.0000 </r>
      </set>
      <set comment="kpoint 5">
       <r>  -32.0460    1.0000 </r>
       <r>  -32.0460    1.0000 </r>
       <r>  -31.3309    1.0000 </r>
       <r>  -31.3309    1.0000 </r>
       <r>  -31.3305    1.0000 </r>
       <r>  -31.3305    1.0000 </r>
       <r>  -30.7112    1.0000 </r>
       <r>  -30.7112    1.0000 </r>
       <r>  -14.8746    1.0000 </r>
       <r>  -14.8746    1.0000 </r>
       <r>  -14.8267    1.0000 </r>
       <r>  -14.8267    1.0000 </r>
       <r>  -14.5311    1.0000 </r>
       <r>  -14.5311    1.0000 </r>
       <r>  -14.4676    1.0000 </r>
       <r>  -14.4676    1.0000 </r>
       <r>  -14.2230    1.0000 </r>
       <r>  -14.2230    1.0000 </r>
       <r>  -14.1071    1.0000 </r>
       <r>  -14.1071    1.0000 </r>
       <r>  -14.0906    1.0000 </r>
       <r>  -14.0906    1.0000 </r>
       <r>  -13.9186    1.0000 </r>
       <r>  -13.9186    1.0000 </r>
       <r>  -13.7930    1.0000 </r>
       <r>  -13.7930    1.0000 </r>
       <r>  -13.5745    1.0000 </r>
       <r>  -13.5745    1.0000 </r>
       <r>  -13.5266    1.0000 </r>
       <r>  -13.5266    1.0000 </r>
       <r>  -13.3316    1.0000 </r>
       <r>  -13.3316    1.0000 </r>
       <r>  -13.3081    1.0000 </r>
       <r>  -13.3081    1.0000 </r>
       <r>  -13.1183    1.0000 </r>
       <r>  -13.1183    1.0000 </r>
       <r>  -13.0548    1.0000 </r>
       <r>  -13.0548    1.0000 </r>
       <r>  -12.9871    1.0000 </r>
       <r>  -12.9871    1.0000 </r>
       <r>  -12.8700    1.0000 </r>
       <r>  -12.8700    1.0000 </r>
       <r>  -12.6704    1.0000 </r>
       <r>  -12.6704    1.0000 </r>
       <r>  -12.4599    1.0000 </r>
       <r>  -12.4599    1.0000 </r>
       <r>  -12.4015    1.0000 </r>
       <r>  -12.4015    1.0000 </r>
       <r>   -2.8214    1.0000 </r>
       <r>   -2.8214    1.0000 </r>
       <r>   -2.4881    1.0000 </r>
       <r>   -2.4881    1.0000 </r>
       <r>   -2.3832    1.0000 </r>
       <r>   -2.3832    1.0000 </r>
       <r>   -2.2822    1.0000 </r>
       <r>   -2.2822    1.0000 </r>
       <r>   -1.9033    1.0000 </r>
       <r>   -1.9033    1.0000 </r>
       <r>   -1.8882    1.0000 </r>
       <r>   -1.8882    1.0000 </r>
       <r>   -1.8304    1.0000 </r>
       <r>   -1.8304    1.0000 </r>
       <r>   -1.6829    1.0000 </r>
       <r>   -1.6829    1.0000 </r>
       <r>   -1.6139    1.0000 </r>
       <r>   -1.6139    1.0000 </r>
       <r>   -1.4828    1.0000 </r>
       <r>   -1.4828    1.0000 </r>
       <r>   -1.4229    1.0000 </r>
       <r>   -1.4229    1.0000 </r>
       <r>   -1.3595    1.0000 </r>
       <r>   -1.3595    1.0000 </r>
       <r>   -1.2690    1.0000 </r>
       <r>   -1.2690    1.0000 </r>
       <r>   -1.1612    1.0000 </r>
       <r>   -1.1612    1.0000 </r>
       <r>   -1.0210    1.0000 </r>
       <r>   -1.0210    1.0000 </r>
       <r>   -0.8840    1.0000 </r>
       <r>   -0.8840    1.0000 </r>
       <r>   -0.8564    1.0000 </r>
       <r>   -0.8564    1.0000 </r>
       <r>   -0.7230    1.0000 </r>
       <r>   -0.7230    1.0000 </r>
       <r>   -0.6408    1.0000 </r>
       <r>   -0.6408    1.0000 </r>
       <r>   -0.6187    1.0000 </r>
       <r>   -0.6187    1.0000 </r>
       <r>   -0.4145    1.0000 </r>
       <r>   -0.4145    1.0000 </r>
       <r>   -0.3143    1.0000 </r>
       <r>   -0.3143    1.0000 </r>
       <r>   -0.2529    1.0000 </r>
       <r>   -0.2529    1.0000 </r>
       <r>    0.0333    1.0000 </r>
       <r>    0.0333    1.0000 </r>
       <r>    0.3425    1.0000 </r>
       <r>    0.3425    1.0000 </r>
       <r>    0.5652    1.0000 </r>
       <r>    0.5652    1.0000 </r>
       <r>    0.7881    1.0000 </r>
       <r>    0.7881    1.0000 </r>
       <r>    0.8965    1.0000 </r>
       <r>    0.8965    1.0000 </r>
       <r>    0.9452    1.0000 </r>
       <r>    0.9452    1.0000 </r>
       <r>    0.9994    1.0000 </r>
       <r>    0.9994    1.0000 </r>
       <r>    1.0959    1.0000 </r>
       <r>    1.0959    1.0000 </r>
       <r>    1.1582    1.0000 </r>
       <r>    1.1582    1.0000 </r>
       <r>    1.2180    1.0000 </r>
       <r>    1.2180    1.0000 </r>
       <r>    1.2465    1.0000 </r>
       <r>    1.2465    1.0000 </r>
       <r>    1.3491    1.0000 </r>
       <r>    1.3491    1.0000 </r>
       <r>    1.4163    1.0000 </r>
       <r>    1.4163    1.0000 </r>
       <r>    1.4938    1.0000 </r>
       <r>    1.4938    1.0000 </r>
       <r>    1.7545    1.0000 </r>
       <r>    1.7545    1.0000 </r>
       <r>    1.8345    1.0000 </r>
       <r>    1.8345    1.0000 </r>
       <r>    1.9208    1.0000 </r>
       <r>    1.9208    1.0000 </r>
       <r>    2.0908    1.0000 </r>
       <r>    2.0908    1.0000 </r>
       <r>    2.1136    1.0000 </r>
       <r>    2.1136    1.0000 </r>
       <r>    2.2628    1.0000 </r>
       <r>    2.2628    1.0000 </r>
       <r>    2.6908    0.0002 </r>
       <r>    2.6908    0.0002 </r>
       <r>    3.5928    0.0000 </r>
       <r>    3.5928    0.0000 </r>
       <r>    5.2078    0.0000 </r>
       <r>    5.2078    0.0000 </r>
       <r>    5.5003    0.0000 </r>
       <r>    5.5003    0.0000 </r>
       <r>    6.1223    0.0000 </r>
       <r>    6.1223    0.0000 </r>
       <r>    7.1510    0.0000 </r>
       <r>    7.1510    0.0000 </r>
       <r>    7.3616    0.0000 </r>
       <r>    7.3616    0.0000 </r>
       <r>    7.5481    0.0000 </r>
       <r>    7.5481    0.0000 </r>
       <r>    7.9564    0.0000 </r>
       <r>    7.9564    0.0000 </r>
       <r>    8.1359    0.0000 </r>
       <r>    8.1359    0.0000 </r>
       <r>    8.3418    0.0000 </r>
       <r>    8.3418    0.0000 </r>
       <r>    8.6972    0.0000 </r>
       <r>    8.6972    0.0000 </r>
       <r>    8.7822    0.0000 </r>
       <r>    8.7822    0.0000 </r>
       <r>    9.0174    0.0000 </r>
       <r>    9.0174    0.0000 </r>
       <r>    9.4264    0.0000 </r>
       <r>    9.4264    0.0000 </r>
       <r>    9.5248    0.0000 </r>
       <r>    9.5248    0.0000 </r>
       <r>    9.5950    0.0000 </r>
       <r>    9.5950    0.0000 </r>
       <r>    9.6757    0.0000 </r>
       <r>    9.6757    0.0000 </r>
       <r>    9.7999    0.0000 </r>
       <r>    9.8000    0.0000 </r>
       <r>   10.1232    0.0000 </r>
       <r>   10.1244    0.0000 </r>
       <r>   10.2489    0.0000 </r>
       <r>   10.2966    0.0000 </r>
      </set>
      <set comment="kpoint 6">
       <r>  -32.0391    1.0000 </r>
       <r>  -32.0391    1.0000 </r>
       <r>  -31.3237    1.0000 </r>
       <r>  -31.3237    1.0000 </r>
       <r>  -31.3234    1.0000 </r>
       <r>  -31.3234    1.0000 </r>
       <r>  -30.7037    1.0000 </r>
       <r>  -30.7037    1.0000 </r>
       <r>  -14.8925    1.0000 </r>
       <r>  -14.8925    1.0000 </r>
       <r>  -14.7556    1.0000 </r>
       <r>  -14.7556    1.0000 </r>
       <r>  -14.4033    1.0000 </r>
       <r>  -14.4033    1.0000 </r>
       <r>  -14.3324    1.0000 </r>
       <r>  -14.3324    1.0000 </r>
       <r>  -14.2564    1.0000 </r>
       <r>  -14.2564    1.0000 </r>
       <r>  -14.1834    1.0000 </r>
       <r>  -14.1834    1.0000 </r>
       <r>  -14.0298    1.0000 </r>
       <r>  -14.0298    1.0000 </r>
       <r>  -14.0037    1.0000 </r>
       <r>  -14.0037    1.0000 </r>
       <r>  -13.7135    1.0000 </r>
       <r>  -13.7135    1.0000 </r>
       <r>  -13.6000    1.0000 </r>
       <r>  -13.6000    1.0000 </r>
       <r>  -13.5151    1.0000 </r>
       <r>  -13.5151    1.0000 </r>
       <r>  -13.4686    1.0000 </r>
       <r>  -13.4686    1.0000 </r>
       <r>  -13.4406    1.0000 </r>
       <r>  -13.4406    1.0000 </r>
       <r>  -13.1981    1.0000 </r>
       <r>  -13.1981    1.0000 </r>
       <r>  -13.0366    1.0000 </r>
       <r>  -13.0366    1.0000 </r>
       <r>  -12.9408    1.0000 </r>
       <r>  -12.9408    1.0000 </r>
       <r>  -12.8519    1.0000 </r>
       <r>  -12.8519    1.0000 </r>
       <r>  -12.8074    1.0000 </r>
       <r>  -12.8074    1.0000 </r>
       <r>  -12.4899    1.0000 </r>
       <r>  -12.4899    1.0000 </r>
       <r>  -12.3401    1.0000 </r>
       <r>  -12.3401    1.0000 </r>
       <r>   -2.8903    1.0000 </r>
       <r>   -2.8903    1.0000 </r>
       <r>   -2.8573    1.0000 </r>
       <r>   -2.8573    1.0000 </r>
       <r>   -2.7399    1.0000 </r>
       <r>   -2.7399    1.0000 </r>
       <r>   -2.4351    1.0000 </r>
       <r>   -2.4351    1.0000 </r>
       <r>   -2.3735    1.0000 </r>
       <r>   -2.3735    1.0000 </r>
       <r>   -2.2638    1.0000 </r>
       <r>   -2.2638    1.0000 </r>
       <r>   -1.9910    1.0000 </r>
       <r>   -1.9910    1.0000 </r>
       <r>   -1.8863    1.0000 </r>
       <r>   -1.8863    1.0000 </r>
       <r>   -1.7569    1.0000 </r>
       <r>   -1.7569    1.0000 </r>
       <r>   -1.6926    1.0000 </r>
       <r>   -1.6926    1.0000 </r>
       <r>   -1.6365    1.0000 </r>
       <r>   -1.6365    1.0000 </r>
       <r>   -1.4756    1.0000 </r>
       <r>   -1.4756    1.0000 </r>
       <r>   -1.2424    1.0000 </r>
       <r>   -1.2424    1.0000 </r>
       <r>   -1.1709    1.0000 </r>
       <r>   -1.1709    1.0000 </r>
       <r>   -0.9870    1.0000 </r>
       <r>   -0.9870    1.0000 </r>
       <r>   -0.9746    1.0000 </r>
       <r>   -0.9746    1.0000 </r>
       <r>   -0.9354    1.0000 </r>
       <r>   -0.9354    1.0000 </r>
       <r>   -0.7172    1.0000 </r>
       <r>   -0.7172    1.0000 </r>
       <r>   -0.7130    1.0000 </r>
       <r>   -0.7130    1.0000 </r>
       <r>   -0.6882    1.0000 </r>
       <r>   -0.6882    1.0000 </r>
       <r>   -0.2412    1.0000 </r>
       <r>   -0.2412    1.0000 </r>
       <r>   -0.1794    1.0000 </r>
       <r>   -0.1794    1.0000 </r>
       <r>   -0.0588    1.0000 </r>
       <r>   -0.0588    1.0000 </r>
       <r>    0.2076    1.0000 </r>
       <r>    0.2076    1.0000 </r>
       <r>    0.3209    1.0000 </r>
       <r>    0.3209    1.0000 </r>
       <r>    0.6330    1.0000 </r>
       <r>    0.6330    1.0000 </r>
       <r>    0.7851    1.0000 </r>
       <r>    0.7851    1.0000 </r>
       <r>    0.9416    1.0000 </r>
       <r>    0.9416    1.0000 </r>
       <r>    1.0032    1.0000 </r>
       <r>    1.0032    1.0000 </r>
       <r>    1.0364    1.0000 </r>
       <r>    1.0364    1.0000 </r>
       <r>    1.0934    1.0000 </r>
       <r>    1.0934    1.0000 </r>
       <r>    1.2418    1.0000 </r>
       <r>    1.2418    1.0000 </r>
       <r>    1.2457    1.0000 </r>
       <r>    1.2457    1.0000 </r>
       <r>    1.4036    1.0000 </r>
       <r>    1.4036    1.0000 </r>
       <r>    1.4813    1.0000 </r>
       <r>    1.4813    1.0000 </r>
       <r>    1.5809    1.0000 </r>
       <r>    1.5809    1.0000 </r>
       <r>    1.6890    1.0000 </r>
       <r>    1.6890    1.0000 </r>
       <r>    1.8368    1.0000 </r>
       <r>    1.8368    1.0000 </r>
       <r>    1.9840    1.0000 </r>
       <r>    1.9840    1.0000 </r>
       <r>    2.0361    1.0000 </r>
       <r>    2.0361    1.0000 </r>
       <r>    2.2021    1.0000 </r>
       <r>    2.2021    1.0000 </r>
       <r>    2.4129    1.0000 </r>
       <r>    2.4129    1.0000 </r>
       <r>    2.7039    0.0000 </r>
       <r>    2.7039    0.0000 </r>
       <r>    3.1739    0.0000 </r>
       <r>    3.1739    0.0000 </r>
       <r>    3.9934    0.0000 </r>
       <r>    3.9934    0.0000 </r>
       <r>    4.2872    0.0000 </r>
       <r>    4.2872    0.0000 </r>
       <r>    5.7027    0.0000 </r>
       <r>    5.7027    0.0000 </r>
       <r>    5.8683    0.0000 </r>
       <r>    5.8683    0.0000 </r>
       <r>    7.0192    0.0000 </r>
       <r>    7.0192    0.0000 </r>
       <r>    7.6378    0.0000 </r>
       <r>    7.6378    0.0000 </r>
       <r>    8.1466    0.0000 </r>
       <r>    8.1466    0.0000 </r>
       <r>    8.1945    0.0000 </r>
       <r>    8.1945    0.0000 </r>
       <r>    8.4564    0.0000 </r>
       <r>    8.4564    0.0000 </r>
       <r>    8.7355    0.0000 </r>
       <r>    8.7355    0.0000 </r>
       <r>    8.8755    0.0000 </r>
       <r>    8.8755    0.0000 </r>
       <r>    9.1253    0.0000 </r>
       <r>    9.1253    0.0000 </r>
       <r>    9.1628    0.0000 </r>
       <r>    9.1628    0.0000 </r>
       <r>    9.3930    0.0000 </r>
       <r>    9.3930    0.0000 </r>
       <r>    9.6988    0.0000 </r>
       <r>    9.6988    0.0000 </r>
       <r>    9.9443    0.0000 </r>
       <r>    9.9443    0.0000 </r>
       <r>   10.0923    0.0000 </r>
       <r>   10.0923    0.0000 </r>
       <r>   10.2054    0.0000 </r>
       <r>   10.2054    0.0000 </r>
       <r>   10.3103    0.0000 </r>
       <r>   10.3105    0.0000 </r>
       <r>   10.5017    0.0000 </r>
       <r>   10.5066    0.0000 </r>
      </set>
      <set comment="kpoint 7">
       <r>  -32.0502    1.0000 </r>
       <r>  -32.0502    1.0000 </r>
       <r>  -31.3352    1.0000 </r>
       <r>  -31.3352    1.0000 </r>
       <r>  -31.3350    1.0000 </r>
       <r>  -31.3350    1.0000 </r>
       <r>  -30.7158    1.0000 </r>
       <r>  -30.7158    1.0000 </r>
       <r>  -14.9455    1.0000 </r>
       <r>  -14.9455    1.0000 </r>
       <r>  -14.8616    1.0000 </r>
       <r>  -14.8616    1.0000 </r>
       <r>  -14.6389    1.0000 </r>
       <r>  -14.6389    1.0000 </r>
       <r>  -14.4024    1.0000 </r>
       <r>  -14.4024    1.0000 </r>
       <r>  -14.3068    1.0000 </r>
       <r>  -14.3068    1.0000 </r>
       <r>  -13.9959    1.0000 </r>
       <r>  -13.9959    1.0000 </r>
       <r>  -13.9868    1.0000 </r>
       <r>  -13.9868    1.0000 </r>
       <r>  -13.9605    1.0000 </r>
       <r>  -13.9605    1.0000 </r>
       <r>  -13.7706    1.0000 </r>
       <r>  -13.7706    1.0000 </r>
       <r>  -13.6232    1.0000 </r>
       <r>  -13.6232    1.0000 </r>
       <r>  -13.4621    1.0000 </r>
       <r>  -13.4621    1.0000 </r>
       <r>  -13.2514    1.0000 </r>
       <r>  -13.2514    1.0000 </r>
       <r>  -13.2046    1.0000 </r>
       <r>  -13.2046    1.0000 </r>
       <r>  -13.2045    1.0000 </r>
       <r>  -13.2045    1.0000 </r>
       <r>  -13.1219    1.0000 </r>
       <r>  -13.1219    1.0000 </r>
       <r>  -12.9408    1.0000 </r>
       <r>  -12.9408    1.0000 </r>
       <r>  -12.8944    1.0000 </r>
       <r>  -12.8944    1.0000 </r>
       <r>  -12.5770    1.0000 </r>
       <r>  -12.5770    1.0000 </r>
       <r>  -12.5621    1.0000 </r>
       <r>  -12.5621    1.0000 </r>
       <r>  -12.3399    1.0000 </r>
       <r>  -12.3399    1.0000 </r>
       <r>   -2.8512    1.0000 </r>
       <r>   -2.8512    1.0000 </r>
       <r>   -2.4947    1.0000 </r>
       <r>   -2.4947    1.0000 </r>
       <r>   -2.3859    1.0000 </r>
       <r>   -2.3859    1.0000 </r>
       <r>   -2.2832    1.0000 </r>
       <r>   -2.2832    1.0000 </r>
       <r>   -1.9767    1.0000 </r>
       <r>   -1.9767    1.0000 </r>
       <r>   -1.4123    1.0000 </r>
       <r>   -1.4123    1.0000 </r>
       <r>   -1.3965    1.0000 </r>
       <r>   -1.3965    1.0000 </r>
       <r>   -1.3914    1.0000 </r>
       <r>   -1.3914    1.0000 </r>
       <r>   -1.3556    1.0000 </r>
       <r>   -1.3556    1.0000 </r>
       <r>   -1.2095    1.0000 </r>
       <r>   -1.2095    1.0000 </r>
       <r>   -1.1893    1.0000 </r>
       <r>   -1.1893    1.0000 </r>
       <r>   -1.1671    1.0000 </r>
       <r>   -1.1671    1.0000 </r>
       <r>   -1.1148    1.0000 </r>
       <r>   -1.1148    1.0000 </r>
       <r>   -0.9483    1.0000 </r>
       <r>   -0.9483    1.0000 </r>
       <r>   -0.9309    1.0000 </r>
       <r>   -0.9309    1.0000 </r>
       <r>   -0.7585    1.0000 </r>
       <r>   -0.7585    1.0000 </r>
       <r>   -0.6690    1.0000 </r>
       <r>   -0.6690    1.0000 </r>
       <r>   -0.6369    1.0000 </r>
       <r>   -0.6369    1.0000 </r>
       <r>   -0.5671    1.0000 </r>
       <r>   -0.5671    1.0000 </r>
       <r>   -0.4692    1.0000 </r>
       <r>   -0.4692    1.0000 </r>
       <r>   -0.4476    1.0000 </r>
       <r>   -0.4476    1.0000 </r>
       <r>   -0.4347    1.0000 </r>
       <r>   -0.4347    1.0000 </r>
       <r>   -0.4309    1.0000 </r>
       <r>   -0.4309    1.0000 </r>
       <r>   -0.3481    1.0000 </r>
       <r>   -0.3481    1.0000 </r>
       <r>    0.2572    1.0000 </r>
       <r>    0.2572    1.0000 </r>
       <r>    0.3428    1.0000 </r>
       <r>    0.3428    1.0000 </r>
       <r>    0.5135    1.0000 </r>
       <r>    0.5135    1.0000 </r>
       <r>    0.7593    1.0000 </r>
       <r>    0.7593    1.0000 </r>
       <r>    0.8416    1.0000 </r>
       <r>    0.8416    1.0000 </r>
       <r>    0.8714    1.0000 </r>
       <r>    0.8714    1.0000 </r>
       <r>    0.8807    1.0000 </r>
       <r>    0.8807    1.0000 </r>
       <r>    1.0425    1.0000 </r>
       <r>    1.0425    1.0000 </r>
       <r>    1.2657    1.0000 </r>
       <r>    1.2657    1.0000 </r>
       <r>    1.3239    1.0000 </r>
       <r>    1.3239    1.0000 </r>
       <r>    1.3605    1.0000 </r>
       <r>    1.3605    1.0000 </r>
       <r>    1.3973    1.0000 </r>
       <r>    1.3973    1.0000 </r>
       <r>    1.4309    1.0000 </r>
       <r>    1.4309    1.0000 </r>
       <r>    1.5065    1.0000 </r>
       <r>    1.5065    1.0000 </r>
       <r>    1.5335    1.0000 </r>
       <r>    1.5335    1.0000 </r>
       <r>    1.7684    1.0000 </r>
       <r>    1.7684    1.0000 </r>
       <r>    1.7971    1.0000 </r>
       <r>    1.7971    1.0000 </r>
       <r>    1.9285    1.0000 </r>
       <r>    1.9285    1.0000 </r>
       <r>    2.2304    1.0000 </r>
       <r>    2.2304    1.0000 </r>
       <r>    2.6402    0.0180 </r>
       <r>    2.6402    0.0180 </r>
       <r>    3.3969    0.0000 </r>
       <r>    3.3969    0.0000 </r>
       <r>    5.2844    0.0000 </r>
       <r>    5.2844    0.0000 </r>
       <r>    5.4883    0.0000 </r>
       <r>    5.4883    0.0000 </r>
       <r>    6.0865    0.0000 </r>
       <r>    6.0865    0.0000 </r>
       <r>    7.1704    0.0000 </r>
       <r>    7.1704    0.0000 </r>
       <r>    7.4179    0.0000 </r>
       <r>    7.4179    0.0000 </r>
       <r>    7.6437    0.0000 </r>
       <r>    7.6437    0.0000 </r>
       <r>    7.7756    0.0000 </r>
       <r>    7.7756    0.0000 </r>
       <r>    7.8548    0.0000 </r>
       <r>    7.8548    0.0000 </r>
       <r>    7.9950    0.0000 </r>
       <r>    7.9950    0.0000 </r>
       <r>    8.6439    0.0000 </r>
       <r>    8.6439    0.0000 </r>
       <r>    8.6734    0.0000 </r>
       <r>    8.6734    0.0000 </r>
       <r>    8.7145    0.0000 </r>
       <r>    8.7145    0.0000 </r>
       <r>    9.2579    0.0000 </r>
       <r>    9.2579    0.0000 </r>
       <r>    9.5097    0.0000 </r>
       <r>    9.5097    0.0000 </r>
       <r>    9.5522    0.0000 </r>
       <r>    9.5522    0.0000 </r>
       <r>    9.8387    0.0000 </r>
       <r>    9.8388    0.0000 </r>
       <r>    9.9205    0.0000 </r>
       <r>    9.9209    0.0000 </r>
       <r>   10.0604    0.0000 </r>
       <r>   10.0628    0.0000 </r>
       <r>   10.0677    0.0000 </r>
       <r>   10.1020    0.0000 </r>
      </set>
      <set comment="kpoint 8">
       <r>  -32.0460    1.0000 </r>
       <r>  -32.0460    1.0000 </r>
       <r>  -31.3308    1.0000 </r>
       <r>  -31.3308    1.0000 </r>
       <r>  -31.3306    1.0000 </r>
       <r>  -31.3306    1.0000 </r>
       <r>  -30.7112    1.0000 </r>
       <r>  -30.7112    1.0000 </r>
       <r>  -14.8632    1.0000 </r>
       <r>  -14.8632    1.0000 </r>
       <r>  -14.8348    1.0000 </r>
       <r>  -14.8348    1.0000 </r>
       <r>  -14.6033    1.0000 </r>
       <r>  -14.6033    1.0000 </r>
       <r>  -14.3049    1.0000 </r>
       <r>  -14.3049    1.0000 </r>
       <r>  -14.2882    1.0000 </r>
       <r>  -14.2882    1.0000 </r>
       <r>  -14.1180    1.0000 </r>
       <r>  -14.1180    1.0000 </r>
       <r>  -14.0912    1.0000 </r>
       <r>  -14.0912    1.0000 </r>
       <r>  -13.9753    1.0000 </r>
       <r>  -13.9753    1.0000 </r>
       <r>  -13.7658    1.0000 </r>
       <r>  -13.7658    1.0000 </r>
       <r>  -13.6050    1.0000 </r>
       <r>  -13.6050    1.0000 </r>
       <r>  -13.4883    1.0000 </r>
       <r>  -13.4883    1.0000 </r>
       <r>  -13.3398    1.0000 </r>
       <r>  -13.3398    1.0000 </r>
       <r>  -13.2662    1.0000 </r>
       <r>  -13.2662    1.0000 </r>
       <r>  -13.1303    1.0000 </r>
       <r>  -13.1303    1.0000 </r>
       <r>  -13.0696    1.0000 </r>
       <r>  -13.0696    1.0000 </r>
       <r>  -12.9600    1.0000 </r>
       <r>  -12.9600    1.0000 </r>
       <r>  -12.9063    1.0000 </r>
       <r>  -12.9063    1.0000 </r>
       <r>  -12.6681    1.0000 </r>
[...]
       <r>     5.1668     0.4288   139.0534 </r>
       <r>     5.3236     3.6886   139.6318 </r>
       <r>     5.4804     4.0404   140.2653 </r>
       <r>     5.6372     4.7066   141.0033 </r>
       <r>     5.7940     4.4350   141.6986 </r>
       <r>     5.9508     8.0262   142.9571 </r>
       <r>     6.1076     4.0567   143.5932 </r>
       <r>     6.2644     2.5878   143.9989 </r>
       <r>     6.4211     0.0069   144.0000 </r>
       <r>     6.5779     0.0000   144.0000 </r>
       <r>     6.7347     0.3573   144.0560 </r>
       <r>     6.8915     1.0214   144.2162 </r>
       <r>     7.0483     3.9375   144.8336 </r>
       <r>     7.2051     5.5561   145.7047 </r>
       <r>     7.3619     3.9113   146.3180 </r>
       <r>     7.5187     6.2781   147.3024 </r>
       <r>     7.6755     9.8166   148.8415 </r>
       <r>     7.8323     5.5840   149.7171 </r>
       <r>     7.9891     6.9900   150.8130 </r>
       <r>     8.1459     8.6439   152.1684 </r>
       <r>     8.3027     9.8074   153.7061 </r>
       <r>     8.4595     7.2386   154.8411 </r>
       <r>     8.6163    10.0939   156.4237 </r>
       <r>     8.7730    12.4603   158.3774 </r>
       <r>     8.9298     7.1279   159.4950 </r>
       <r>     9.0866     7.6837   160.6998 </r>
       <r>     9.2434     6.6495   161.7424 </r>
       <r>     9.4002     8.1092   163.0138 </r>
       <r>     9.5570    16.4319   165.5903 </r>
       <r>     9.7138    10.4206   167.2242 </r>
       <r>     9.8706    12.9404   169.2531 </r>
       <r>    10.0274    11.8022   171.1036 </r>
       <r>    10.1842    11.4244   172.8949 </r>
       <r>    10.3410    10.7950   174.5875 </r>
       <r>    10.4978     4.7180   175.3272 </r>
       <r>    10.6546     3.1980   175.8287 </r>
       <r>    10.8114     1.0918   175.9999 </r>
       <r>    10.9682     0.0009   176.0000 </r>
       <r>    11.1250     0.0000   176.0000 </r>
       <r>    11.2817     0.0000   176.0000 </r>
       <r>    11.4385     0.0000   176.0000 </r>
       <r>    11.5953     0.0000   176.0000 </r>
       <r>    11.7521     0.0000   176.0000 </r>
       <r>    11.9089     0.0000   176.0000 </r>
       <r>    12.0657     0.0000   176.0000 </r>
       <r>    12.2225     0.0000   176.0000 </r>
       <r>    12.3793     0.0000   176.0000 </r>
       <r>    12.5361     0.0000   176.0000 </r>
       <r>    12.6929     0.0000   176.0000 </r>
       <r>    12.8497     0.0000   176.0000 </r>
      </set>
      <set comment="spin 2">
       <r>   -34.1884     0.0000     0.0000 </r>
       <r>   -34.0316     0.0000     0.0000 </r>
       <r>   -33.8748     0.0000     0.0000 </r>
       <r>   -33.7180     0.0000     0.0000 </r>
       <r>   -33.5612     0.0000     0.0000 </r>
       <r>   -33.4044     0.0000     0.0000 </r>
       <r>   -33.2476     0.0000     0.0000 </r>
       <r>   -33.0908     0.0000     0.0000 </r>
       <r>   -32.9340     0.0000     0.0000 </r>
       <r>   -32.7773     0.0000     0.0000 </r>
       <r>   -32.6205     0.0000     0.0000 </r>
       <r>   -32.4637     0.0000     0.0000 </r>
       <r>   -32.3069     0.0000     0.0000 </r>
       <r>   -32.1501     0.0187     0.0029 </r>
       <r>   -31.9933    11.7591     1.8467 </r>
       <r>   -31.8365     0.9778     2.0000 </r>
       <r>   -31.6797     0.0000     2.0000 </r>
       <r>   -31.5229     0.0000     2.0000 </r>
       <r>   -31.3661     4.0249     2.6311 </r>
       <r>   -31.2093    21.4776     5.9986 </r>
       <r>   -31.0525     0.0087     6.0000 </r>
       <r>   -30.8957     0.0000     6.0000 </r>
       <r>   -30.7389     2.7247     6.4272 </r>
       <r>   -30.5821    10.0290     7.9997 </r>
       <r>   -30.4253     0.0020     8.0000 </r>
       <r>   -30.2686     0.0000     8.0000 </r>
       <r>   -30.1118     0.0000     8.0000 </r>
       <r>   -29.9550     0.0000     8.0000 </r>
       <r>   -29.7982     0.0000     8.0000 </r>
       <r>   -29.6414     0.0000     8.0000 </r>
       <r>   -29.4846     0.0000     8.0000 </r>
       <r>   -29.3278     0.0000     8.0000 </r>
       <r>   -29.1710     0.0000     8.0000 </r>
       <r>   -29.0142     0.0000     8.0000 </r>
       <r>   -28.8574     0.0000     8.0000 </r>
       <r>   -28.7006     0.0000     8.0000 </r>
       <r>   -28.5438     0.0000     8.0000 </r>
       <r>   -28.3870     0.0000     8.0000 </r>
       <r>   -28.2302     0.0000     8.0000 </r>
       <r>   -28.0734     0.0000     8.0000 </r>
       <r>   -27.9167     0.0000     8.0000 </r>
       <r>   -27.7599     0.0000     8.0000 </r>
       <r>   -27.6031     0.0000     8.0000 </r>
       <r>   -27.4463     0.0000     8.0000 </r>
       <r>   -27.2895     0.0000     8.0000 </r>
       <r>   -27.1327     0.0000     8.0000 </r>
       <r>   -26.9759     0.0000     8.0000 </r>
       <r>   -26.8191     0.0000     8.0000 </r>
       <r>   -26.6623     0.0000     8.0000 </r>
       <r>   -26.5055     0.0000     8.0000 </r>
       <r>   -26.3487     0.0000     8.0000 </r>
       <r>   -26.1919     0.0000     8.0000 </r>
       <r>   -26.0351     0.0000     8.0000 </r>
       <r>   -25.8783     0.0000     8.0000 </r>
       <r>   -25.7215     0.0000     8.0000 </r>
       <r>   -25.5647     0.0000     8.0000 </r>
       <r>   -25.4080     0.0000     8.0000 </r>
       <r>   -25.2512     0.0000     8.0000 </r>
       <r>   -25.0944     0.0000     8.0000 </r>
       <r>   -24.9376     0.0000     8.0000 </r>
       <r>   -24.7808     0.0000     8.0000 </r>
       <r>   -24.6240     0.0000     8.0000 </r>
       <r>   -24.4672     0.0000     8.0000 </r>
       <r>   -24.3104     0.0000     8.0000 </r>
       <r>   -24.1536     0.0000     8.0000 </r>
       <r>   -23.9968     0.0000     8.0000 </r>
       <r>   -23.8400     0.0000     8.0000 </r>
       <r>   -23.6832     0.0000     8.0000 </r>
       <r>   -23.5264     0.0000     8.0000 </r>
       <r>   -23.3696     0.0000     8.0000 </r>
       <r>   -23.2128     0.0000     8.0000 </r>
       <r>   -23.0561     0.0000     8.0000 </r>
       <r>   -22.8993     0.0000     8.0000 </r>
       <r>   -22.7425     0.0000     8.0000 </r>
       <r>   -22.5857     0.0000     8.0000 </r>
       <r>   -22.4289     0.0000     8.0000 </r>
       <r>   -22.2721     0.0000     8.0000 </r>
       <r>   -22.1153     0.0000     8.0000 </r>
       <r>   -21.9585     0.0000     8.0000 </r>
       <r>   -21.8017     0.0000     8.0000 </r>
       <r>   -21.6449     0.0000     8.0000 </r>
       <r>   -21.4881     0.0000     8.0000 </r>
       <r>   -21.3313     0.0000     8.0000 </r>
       <r>   -21.1745     0.0000     8.0000 </r>
       <r>   -21.0177     0.0000     8.0000 </r>
       <r>   -20.8609     0.0000     8.0000 </r>
       <r>   -20.7041     0.0000     8.0000 </r>
       <r>   -20.5474     0.0000     8.0000 </r>
       <r>   -20.3906     0.0000     8.0000 </r>
       <r>   -20.2338     0.0000     8.0000 </r>
       <r>   -20.0770     0.0000     8.0000 </r>
       <r>   -19.9202     0.0000     8.0000 </r>
       <r>   -19.7634     0.0000     8.0000 </r>
       <r>   -19.6066     0.0000     8.0000 </r>
       <r>   -19.4498     0.0000     8.0000 </r>
       <r>   -19.2930     0.0000     8.0000 </r>
       <r>   -19.1362     0.0000     8.0000 </r>
       <r>   -18.9794     0.0000     8.0000 </r>
       <r>   -18.8226     0.0000     8.0000 </r>
       <r>   -18.6658     0.0000     8.0000 </r>
       <r>   -18.5090     0.0000     8.0000 </r>
       <r>   -18.3522     0.0000     8.0000 </r>
       <r>   -18.1954     0.0000     8.0000 </r>
       <r>   -18.0387     0.0000     8.0000 </r>
       <r>   -17.8819     0.0000     8.0000 </r>
       <r>   -17.7251     0.0000     8.0000 </r>
       <r>   -17.5683     0.0000     8.0000 </r>
       <r>   -17.4115     0.0000     8.0000 </r>
       <r>   -17.2547     0.0000     8.0000 </r>
       <r>   -17.0979     0.0000     8.0000 </r>
       <r>   -16.9411     0.0000     8.0000 </r>
       <r>   -16.7843     0.0000     8.0000 </r>
       <r>   -16.6275     0.0000     8.0000 </r>
       <r>   -16.4707     0.0000     8.0000 </r>
       <r>   -16.3139     0.0000     8.0000 </r>
       <r>   -16.1571     0.0000     8.0000 </r>
       <r>   -16.0003     0.0000     8.0000 </r>
       <r>   -15.8435     0.0000     8.0000 </r>
       <r>   -15.6868     0.0000     8.0000 </r>
       <r>   -15.5300     0.0000     8.0000 </r>
       <r>   -15.3732     0.0000     8.0000 </r>
       <r>   -15.2164     0.0000     8.0000 </r>
       <r>   -15.0596     0.0000     8.0000 </r>
       <r>   -14.9028     0.6014     8.0943 </r>
       <r>   -14.7460    13.6066    10.2277 </r>
       <r>   -14.5892     8.0409    11.4885 </r>
       <r>   -14.4324     9.9891    13.0547 </r>
       <r>   -14.2756     9.8605    14.6008 </r>
       <r>   -14.1188    24.6160    18.4604 </r>
       <r>   -13.9620    13.6321    20.5978 </r>
       <r>   -13.8052    18.8797    23.5581 </r>
       <r>   -13.6484    12.7705    25.5604 </r>
       <r>   -13.4916    16.5671    28.1580 </r>
       <r>   -13.3348    22.4990    31.6857 </r>
       <r>   -13.1781    16.5456    34.2799 </r>
       <r>   -13.0213    18.8071    37.2288 </r>
       <r>   -12.8645    20.7832    40.4874 </r>
       <r>   -12.7077    14.8363    42.8137 </r>
       <r>   -12.5509     7.7751    44.0328 </r>
       <r>   -12.3941    13.5203    46.1526 </r>
       <r>   -12.2373    11.5454    47.9629 </r>
       <r>   -12.0805     0.2367    48.0000 </r>
       <r>   -11.9237     0.0000    48.0000 </r>
       <r>   -11.7669     0.0000    48.0000 </r>
       <r>   -11.6101     0.0000    48.0000 </r>
       <r>   -11.4533     0.0000    48.0000 </r>
       <r>   -11.2965     0.0000    48.0000 </r>
       <r>   -11.1397     0.0000    48.0000 </r>
       <r>   -10.9829     0.0000    48.0000 </r>
       <r>   -10.8262     0.0000    48.0000 </r>
       <r>   -10.6694     0.0000    48.0000 </r>
       <r>   -10.5126     0.0000    48.0000 </r>
       <r>   -10.3558     0.0000    48.0000 </r>
       <r>   -10.1990     0.0000    48.0000 </r>
       <r>   -10.0422     0.0000    48.0000 </r>
       <r>    -9.8854     0.0000    48.0000 </r>
       <r>    -9.7286     0.0000    48.0000 </r>
       <r>    -9.5718     0.0000    48.0000 </r>
       <r>    -9.4150     0.0000    48.0000 </r>
       <r>    -9.2582     0.0000    48.0000 </r>
       <r>    -9.1014     0.0000    48.0000 </r>
       <r>    -8.9446     0.0000    48.0000 </r>
       <r>    -8.7878     0.0000    48.0000 </r>
       <r>    -8.6310     0.0000    48.0000 </r>
       <r>    -8.4742     0.0000    48.0000 </r>
       <r>    -8.3175     0.0000    48.0000 </r>
       <r>    -8.1607     0.0000    48.0000 </r>
       <r>    -8.0039     0.0000    48.0000 </r>
       <r>    -7.8471     0.0000    48.0000 </r>
       <r>    -7.6903     0.0000    48.0000 </r>
       <r>    -7.5335     0.0000    48.0000 </r>
       <r>    -7.3767     0.0000    48.0000 </r>
       <r>    -7.2199     0.0000    48.0000 </r>
       <r>    -7.0631     0.0000    48.0000 </r>
       <r>    -6.9063     0.0000    48.0000 </r>
       <r>    -6.7495     0.0000    48.0000 </r>
       <r>    -6.5927     0.0000    48.0000 </r>
       <r>    -6.4359     0.0000    48.0000 </r>
       <r>    -6.2791     0.0000    48.0000 </r>
       <r>    -6.1223     0.0000    48.0000 </r>
       <r>    -5.9655     0.0000    48.0000 </r>
       <r>    -5.8088     0.0000    48.0000 </r>
       <r>    -5.6520     0.0000    48.0000 </r>
       <r>    -5.4952     0.0000    48.0000 </r>
       <r>    -5.3384     0.0000    48.0000 </r>
       <r>    -5.1816     0.0000    48.0000 </r>
       <r>    -5.0248     0.0000    48.0000 </r>
       <r>    -4.8680     0.0000    48.0000 </r>
       <r>    -4.7112     0.0000    48.0000 </r>
       <r>    -4.5544     0.0000    48.0000 </r>
       <r>    -4.3976     0.0000    48.0000 </r>
       <r>    -4.2408     0.0000    48.0000 </r>
       <r>    -4.0840     0.0000    48.0000 </r>
       <r>    -3.9272     0.0000    48.0000 </r>
       <r>    -3.7704     0.0000    48.0000 </r>
       <r>    -3.6136     0.0000    48.0000 </r>
       <r>    -3.4569     0.0000    48.0000 </r>
       <r>    -3.3001     0.0000    48.0000 </r>
       <r>    -3.1433     0.0000    48.0000 </r>
       <r>    -2.9865     0.1342    48.0210 </r>
       <r>    -2.8297     2.1752    48.3621 </r>
       <r>    -2.6729     6.8568    49.4372 </r>
       <r>    -2.5161     6.3810    50.4377 </r>
       <r>    -2.3593     6.0415    51.3850 </r>
       <r>    -2.2025     0.2954    51.4313 </r>
       <r>    -2.0457    11.3566    53.2119 </r>
       <r>    -1.8889    17.4754    55.9520 </r>
       <r>    -1.7321    22.9067    59.5436 </r>
       <r>    -1.5753    16.5355    62.1362 </r>
       <r>    -1.4185    21.0367    65.4347 </r>
       <r>    -1.2617    21.9577    68.8775 </r>
       <r>    -1.1049    27.5207    73.1926 </r>
       <r>    -0.9482    26.9971    77.4255 </r>
       <r>    -0.7914    16.9100    80.0769 </r>
       <r>    -0.6346    12.4065    82.0222 </r>
       <r>    -0.4778    32.8646    87.1751 </r>
       <r>    -0.3210    15.0098    89.5286 </r>
       <r>    -0.1642     9.6468    91.0411 </r>
       <r>    -0.0074     9.3274    92.5036 </r>
       <r>     0.1494     5.7241    93.4011 </r>
       <r>     0.3062    10.3092    95.0175 </r>
       <r>     0.4630     5.0336    95.8068 </r>
       <r>     0.6198    10.7351    97.4900 </r>
       <r>     0.7766    10.2556    99.0980 </r>
       <r>     0.9334    13.5662   101.2251 </r>
       <r>     1.0902    26.3831   105.3618 </r>
       <r>     1.2470    28.3484   109.8066 </r>
       <r>     1.4037    29.2324   114.3901 </r>
       <r>     1.5605    24.2311   118.1893 </r>
       <r>     1.7173    19.7398   121.2844 </r>
       <r>     1.8741    18.7658   124.2268 </r>
       <r>     2.0309    17.4450   126.9620 </r>
       <r>     2.1877    11.7709   128.8076 </r>
       <r>     2.3445     7.8775   130.0428 </r>
       <r>     2.5013     2.9396   130.5037 </r>
       <r>     2.6581     3.3416   131.0276 </r>
       <r>     2.8149     7.7141   132.2372 </r>
       <r>     2.9717     9.0421   133.6549 </r>
       <r>     3.1285     6.5027   134.6745 </r>
       <r>     3.2853     4.3579   135.3578 </r>
       <r>     3.4421     1.9492   135.6634 </r>
       <r>     3.5989     1.7431   135.9367 </r>
       <r>     3.7557     4.9685   136.7157 </r>
       <r>     3.9124     2.5013   137.1079 </r>
       <r>     4.0692     1.3648   137.3219 </r>
       <r>     4.2260     1.2598   137.5195 </r>
       <r>     4.3828     6.8410   138.5921 </r>
       <r>     4.5396     0.7119   138.7037 </r>
       <r>     4.6964     0.6116   138.7996 </r>
       <r>     4.8532     0.0026   138.8000 </r>
       <r>     5.0100     0.5557   138.8871 </r>
       <r>     5.1668     0.7203   139.0001 </r>
       <r>     5.3236     2.5338   139.3974 </r>
       <r>     5.4804     2.7883   139.8345 </r>
       <r>     5.6372     6.2580   140.8158 </r>
       <r>     5.7940     3.9425   141.4339 </r>
       <r>     5.9508     5.2476   142.2567 </r>
       <r>     6.1076     6.7476   143.3147 </r>
       <r>     6.2644     4.0759   143.9538 </r>
       <r>     6.4211     0.2948   144.0000 </r>
       <r>     6.5779     0.0000   144.0000 </r>
       <r>     6.7347     0.2167   144.0340 </r>
       <r>     6.8915     0.7981   144.1591 </r>
       <r>     7.0483     3.5135   144.7100 </r>
       <r>     7.2051     4.7175   145.4497 </r>
       <r>     7.3619     4.7296   146.1913 </r>
       <r>     7.5187     6.3373   147.1849 </r>
       <r>     7.6755     8.7270   148.5532 </r>
       <r>     7.8323     6.0148   149.4963 </r>
       <r>     7.9891     7.0212   150.5972 </r>
       <r>     8.1459     8.2680   151.8936 </r>
       <r>     8.3027    10.1954   153.4922 </r>
       <r>     8.4595     7.4315   154.6574 </r>
       <r>     8.6163    10.2705   156.2677 </r>
       <r>     8.7730    12.2293   158.1852 </r>
       <r>     8.9298     7.8439   159.4151 </r>
       <r>     9.0866     7.6444   160.6137 </r>
       <r>     9.2434     6.3112   161.6032 </r>
       <r>     9.4002     7.2839   162.7453 </r>
       <r>     9.5570    16.8991   165.3950 </r>
       <r>     9.7138    10.1274   166.9829 </r>
       <r>     9.8706    13.4198   169.0870 </r>
       <r>    10.0274    11.9796   170.9653 </r>
       <r>    10.1842    11.6087   172.7855 </r>
       <r>    10.3410    10.4824   174.4291 </r>
       <r>    10.4978     4.8911   175.1960 </r>
       <r>    10.6546     3.9284   175.8119 </r>
       <r>    10.8114     1.1975   175.9997 </r>
       <r>    10.9682     0.0021   176.0000 </r>
       <r>    11.1250     0.0000   176.0000 </r>
       <r>    11.2817     0.0000   176.0000 </r>
       <r>    11.4385     0.0000   176.0000 </r>
       <r>    11.5953     0.0000   176.0000 </r>
       <r>    11.7521     0.0000   176.0000 </r>
       <r>    11.9089     0.0000   176.0000 </r>
       <r>    12.0657     0.0000   176.0000 </r>
       <r>    12.2225     0.0000   176.0000 </r>
       <r>    12.3793     0.0000   176.0000 </r>
       <r>    12.5361     0.0000   176.0000 </r>
       <r>    12.6929     0.0000   176.0000 </r>
       <r>    12.8497     0.0000   176.0000 </r>
      </set>
     </set>
    </array>
   </total>
  </dos>
 </calculation>
 <structure name="finalpos" >
  <crystal>
   <varray name="basis" >
    <v>       4.00000000       0.00000000       0.00000000 </v>
    <v>       0.00000000      11.31370850       0.00000000 </v>
    <v>       0.00000000       0.00000000      11.31370850 </v>
   </varray>
   <i name="volume">    512.00000000 </i>
   <varray name="rec_basis" >
    <v>       0.25000000       0.00000000       0.00000000 </v>
    <v>       0.00000000       0.08838835       0.00000000 </v>
    <v>       0.00000000       0.00000000       0.08838835 </v>
   </varray>
  </crystal>
  <varray name="positions" >
   <v>       0.00000000       0.00000000       0.00000000 </v>
   <v>       0.00000000       0.25000000       0.25000000 </v>
   <v>       0.00000000       0.75000000       0.25000000 </v>
   <v>       0.00000000       0.00000000       0.50000000 </v>
   <v>       0.00000000       0.50000000       0.50000000 </v>
   <v>       0.00000000       0.75000000       0.75000000 </v>
   <v>       0.00000000       0.25000000       0.75000000 </v>
   <v>       0.00000000       0.50000000       0.00000000 </v>
   <v>       0.50000000       0.00000000       0.25000000 </v>
   <v>       0.50000000       0.25000000       0.50000000 </v>
   <v>       0.50000000       0.75000000       0.50000000 </v>
   <v>       0.50000000       0.00000000       0.75000000 </v>
   <v>       0.50000000       0.50000000       0.75000000 </v>
   <v>       0.50000000       0.75000000       0.00000000 </v>
   <v>       0.50000000       0.25000000       0.00000000 </v>
   <v>       0.50000000       0.50000000       0.25000000 </v>
   <v>       0.50000000       0.37500000       0.37500000 </v>
   <v>       0.50000000       0.87500000       0.37500000 </v>
   <v>       0.50000000       0.12500000       0.62500000 </v>
   <v>       0.00000000       0.25000000       0.50000000 </v>
   <v>       0.00000000       0.75000000       0.50000000 </v>
   <v>       0.50000000       0.12500000       0.37500000 </v>
   <v>       0.50000000       0.62500000       0.37500000 </v>
   <v>       0.50000000       0.87500000       0.62500000 </v>
   <v>       0.50000000       0.87500000       0.87500000 </v>
   <v>       0.50000000       0.37500000       0.87500000 </v>
   <v>       0.50000000       0.62500000       0.12500000 </v>
   <v>       0.00000000       0.75000000       0.00000000 </v>
   <v>       0.00000000       0.25000000       0.00000000 </v>
   <v>       0.50000000       0.62500000       0.87500000 </v>
   <v>       0.50000000       0.12500000       0.87500000 </v>
   <v>       0.50000000       0.37500000       0.12500000 </v>
  </varray>
 </structure>
</modeling>
