<?xml version="1.0" encoding="ISO-8859-1"?>
<modeling>
 <generator>
  <i name="program" type="string">vasp </i>
  <i name="version" type="string">5.3.5  </i>
  <i name="subversion" type="string">31Mar14 (build Jun 20 2014 13:15:13) complex                          parallel </i>
  <i name="platform" type="string">LinuxIFC </i>
  <i name="date" type="string">2025 12 12 </i>
  <i name="time" type="string">11:27:57 </i>
 </generator>
 <incar>
  <i type="string" name="PREC">accurate</i>
  <i type="int" name="IALGO">    38</i>
  <i type="logical" name="ADDGRID"> T  </i>
  <i type="int" name="ISPIN">     2</i>
  <i type="int" name="NELM">   100</i>
  <i type="int" name="NELMIN">     4</i>
  <i name="EDIFF">      0.00000100</i>
  <i name="ENCUT">    500.00000000</i>
  <i type="logical" name="LREAL"> F  </i>
  <i type="int" name="ISMEAR">     0</i>
  <i name="SIGMA">      0.05000000</i>
  <i type="logical" name="LWAVE"> F  </i>
  <i type="logical" name="LCHARG"> F  </i>
  <i type="int" name="NELM">   100</i>
  <i type="logical" name="LDAU"> T  </i>
  <v name="LDAUU">      0.00000000      4.00000000      0.00000000</v>
  <v name="LDAUJ">      0.00000000      0.00000000      0.00000000</v>
 </incar>
 <kpoints>
  <generation param="Auto">
   <i name="subdivisionlength">     20.00000000 </i>
   <v type="int" name="divisions">       5        1        4 </v>
   <v name="usershift">      0.00000000       0.00000000       0.00000000 </v>
   <v name="genvec1">      0.20000000       0.00000000       0.00000000 </v>
   <v name="genvec2">      0.00000000       1.00000000       0.00000000 </v>
   <v name="genvec3">      0.00000000       0.00000000       0.25000000 </v>
   <v name="shift">      0.00000000       0.00000000       0.00000000 </v>
  </generation>
  <varray name="kpointlist" >
   <v>       0.00000000       0.00000000       0.00000000 </v>
   <v>       0.20000000       0.00000000       0.00000000 </v>
   <v>       0.40000000       0.00000000       0.00000000 </v>
   <v>       0.00000000       0.00000000       0.25000000 </v>
   <v>       0.20000000       0.00000000       0.25000000 </v>
   <v>       0.40000000       0.00000000       0.25000000 </v>
   <v>       0.00000000       0.00000000       0.50000000 </v>
   <v>       0.20000000       0.00000000       0.50000000 </v>
   <v>       0.40000000       0.00000000       0.50000000 </v>
  </varray>
  <varray name="weights" >
   <v>       0.05000000 </v>
   <v>       0.10000000 </v>
   <v>       0.10000000 </v>
   <v>       0.10000000 </v>
   <v>       0.20000000 </v>
   <v>       0.20000000 </v>
   <v>       0.05000000 </v>
   <v>       0.10000000 </v>
   <v>       0.10000000 </v>
  </varray>
 </kpoints>
 <parameters>
  <separator name="general" >
   <i type="string" name="SYSTEM">unknown system</i>
   <i type="logical" name="LCOMPAT"> F  </i>
  </separator>
  <separator name="electronic" >
   <i type="string" name="PREC">accura</i>
   <i name="ENMAX">    500.00000000</i>
   <i name="ENAUG">    586.98000000</i>
   <i name="EDIFF">      0.00000100</i>
   <i type="int" name="IALGO">    38</i>
   <i type="int" name="IWAVPR">    10</i>
   <i type="int" name="NBANDS">   140</i>
   <i name="NELECT">    210.00000000</i>
   <i type="int" name="TURBO">     0</i>
   <i type="int" name="IRESTART">     0</i>
   <i type="int" name="NREBOOT">     0</i>
   <i type="int" name="NMIN">     0</i>
   <i name="EREF">      0.00000000</i>
   <separator name="electronic smearing" >
    <i type="int" name="ISMEAR">     0</i>
    <i name="SIGMA">      0.05000000</i>
    <i name="KSPACING">      0.50000000</i>
    <i type="logical" name="KGAMMA"> T  </i>
   </separator>
   <separator name="electronic projectors" >
    <i type="logical" name="LREAL"> F  </i>
    <v name="ROPT">      0.00000000      0.00000000      0.00000000</v>
    <i type="int" name="LMAXPAW">  -100</i>
    <i type="int" name="LMAXMIX">     2</i>
    <i type="logical" name="NLSPLINE"> F  </i>
   </separator>
   <separator name="electronic startup" >
    <i type="int" name="ISTART">     0</i>
    <i type="int" name="ICHARG">     2</i>
    <i type="int" name="INIWAV">     1</i>
   </separator>
   <separator name="electronic spin" >
    <i type="int" name="ISPIN">     2</i>
    <i type="logical" name="LNONCOLLINEAR"> F  </i>
    <v name="MAGMOM">      1.00000000      1.00000000      1.00000000      1.00000000      1.00000000      1.00000000      1.00000000      1.00000000      1.00000000      1.00000000      1.00000000      1.00000000      1.00000000      1.00000000      1.00000000      1.00000000      1.00000000      1.00000000      1.00000000      1.00000000
      1.00000000      1.00000000      1.00000000      1.00000000      1.00000000      1.00000000</v>
    <i name="NUPDOWN">     -1.00000000</i>
    <i type="logical" name="LSORBIT"> F  </i>
    <v name="SAXIS">      0.00000000      0.00000000      1.00000000</v>
    <i type="logical" name="LSPIRAL"> F  </i>
    <v name="QSPIRAL">      0.00000000      0.00000000      0.00000000</v>
    <i type="logical" name="LZEROZ"> F  </i>
   </separator>
   <separator name="electronic exchange-correlation" >
    <i type="logical" name="LASPH"> F  </i>
    <i type="logical" name="LMETAGGA"> F  </i>
   </separator>
   <separator name="electronic convergence" >
    <i type="int" name="NELM">   100</i>
    <i type="int" name="NELMDL">    -5</i>
    <i type="int" name="NELMIN">     4</i>
    <i name="ENINI">    500.00000000</i>
    <separator name="electronic convergence detail" >
     <i type="logical" name="LDIAG"> T  </i>
     <i type="logical" name="LSUBROT"> F  </i>
     <i name="WEIMIN">      0.00000000</i>
     <i name="EBREAK">      0.00000000</i>
     <i name="DEPER">      0.30000000</i>
     <i type="int" name="NRMM">     4</i>
     <i name="TIME">      0.40000000</i>
    </separator>
   </separator>
   <separator name="electronic mixer" >
    <i name="AMIX">      0.40000000</i>
    <i name="BMIX">      1.00000000</i>
    <i name="AMIN">      0.10000000</i>
    <i name="AMIX_MAG">      1.60000000</i>
    <i name="BMIX_MAG">      1.00000000</i>
    <separator name="electronic mixer details" >
     <i type="int" name="IMIX">     4</i>
     <i type="int" name="MAXMIX">   -45</i>
     <i name="WC">    100.00000000</i>
     <i type="int" name="INIMIX">     1</i>
     <i type="int" name="MIXPRE">     1</i>
     <i type="int" name="MREMOVE">     5</i>
    </separator>
   </separator>
   <separator name="electronic dipolcorrection" >
    <i type="logical" name="LDIPOL"> F  </i>
    <i type="logical" name="LMONO"> F  </i>
    <i type="int" name="IDIPOL">     0</i>
    <i name="EPSILON">      1.00000000</i>
    <v name="DIPOL">   -100.00000000   -100.00000000   -100.00000000</v>
    <i name="EFIELD">      0.00000000</i>
   </separator>
  </separator>
  <separator name="grids" >
   <i type="int" name="NGX">    30</i>
   <i type="int" name="NGY">   126</i>
   <i type="int" name="NGZ">    42</i>
   <i type="int" name="NGXF">    60</i>
   <i type="int" name="NGYF">   252</i>
   <i type="int" name="NGZF">    84</i>
   <i type="logical" name="ADDGRID"> T  </i>
  </separator>
  <separator name="ionic" >
   <i type="int" name="NSW">     0</i>
   <i type="int" name="IBRION">    -1</i>
   <i type="int" name="ISIF">     2</i>
   <i name="PSTRESS">      0.00000000</i>
   <i name="EDIFFG">      0.00001000</i>
   <i type="int" name="NFREE">     0</i>
   <i name="POTIM">      0.50000000</i>
   <i name="SMASS">     -3.00000000</i>
   <i name="SCALEE">      1.00000000</i>
  </separator>
  <separator name="ionic md" >
   <i name="TEBEG">      0.00010000</i>
   <i name="TEEND">      0.00010000</i>
   <i type="int" name="NBLOCK">     1</i>
   <i type="int" name="KBLOCK">     1</i>
   <i type="int" name="NPACO">   256</i>
   <i name="APACO">     16.00000000</i>
  </separator>
  <separator name="symmetry" >
   <i type="int" name="ISYM">     2</i>
   <i name="SYMPREC">      0.00001000</i>
  </separator>
  <separator name="dos" >
   <i type="logical" name="LORBIT"> F  </i>
   <v name="RWIGS">     -1.00000000     -1.00000000     -1.00000000</v>
   <i type="int" name="NEDOS">   301</i>
   <i name="EMIN">     10.00000000</i>
   <i name="EMAX">    -10.00000000</i>
   <i name="EFERMI">      0.00000000</i>
  </separator>
  <separator name="writing" >
   <i type="int" name="NWRITE">     2</i>
   <i type="logical" name="LWAVE"> F  </i>
   <i type="logical" name="LCHARG"> F  </i>
   <i type="logical" name="LPARD"> F  </i>
   <i type="logical" name="LVTOT"> F  </i>
   <i type="logical" name="LVHAR"> F  </i>
   <i type="logical" name="LELF"> F  </i>
   <i type="logical" name="LOPTICS"> F  </i>
   <v name="STM">      0.00000000      0.00000000      0.00000000      0.00000000      0.00000000      0.00000000      0.00000000</v>
  </separator>
  <separator name="performance" >
   <i type="int" name="NPAR">     4</i>
   <i type="int" name="NSIM">     4</i>
   <i type="int" name="NBLK">    -1</i>
   <i type="logical" name="LPLANE"> T  </i>
   <i type="logical" name="LSCALAPACK"> T  </i>
   <i type="logical" name="LSCAAWARE"> F  </i>
   <i type="logical" name="LSCALU"> F  </i>
   <i type="logical" name="LASYNC"> F  </i>
   <i type="logical" name="LORBITALREAL"> F  </i>
  </separator>
  <separator name="miscellaneous" >
   <i type="int" name="IDIOT">     3</i>
   <i type="logical" name="LMUSIC"> F  </i>
   <v name="POMASS">     87.62000000     63.54600000     16.00000000</v>
   <v name="DARWINR">      0.00000000      0.00000000      0.00000000</v>
   <v name="DARWINV">      1.00000000      1.00000000      1.00000000</v>
   <i type="logical" name="LCORR"> T  </i>
  </separator>
  <i type="logical" name="GGA_COMPAT"> T  </i>
  <i type="logical" name="LBERRY"> F  </i>
  <i type="int" name="ICORELEVEL">     0</i>
  <i type="logical" name="LDAU"> T  </i>
  <v type="int" name="LDAUTYPE">     2</v>
  <v type="int" name="LDAUL">     2</v>
  <v name="LDAUU">      0.00000000</v>
  <v name="LDAUJ">      0.00000000</v>
  <i type="int" name="LDAUPRINT">     0</i>
  <i type="int" name="I_CONSTRAINED_M">     0</i>
  <separator name="electronic exchange-correlation" >
   <i type="string" name="GGA">--</i>
   <i type="int" name="VOSKOWN">     0</i>
   <i type="logical" name="LHFCALC"> F  </i>
   <i type="string" name="PRECFOCK"></i>
   <i type="logical" name="LSYMGRAD"> F  </i>
   <i type="logical" name="LHFONE"> F  </i>
   <i type="logical" name="LRHFCALC"> F  </i>
   <i type="logical" name="LTHOMAS"> F  </i>
   <i type="logical" name="LMODELHF"> F  </i>
   <i name="ENCUT4O">     -1.00000000</i>
   <i type="int" name="EXXOEP">     0</i>
   <i type="int" name="FOURORBIT">     0</i>
   <i name="AEXX">      0.00000000</i>
   <i name="HFALPHA">      0.00000000</i>
   <i name="MCALPHA">      0.00000000</i>
   <i name="ALDAX">      1.00000000</i>
   <i name="AGGAX">      1.00000000</i>
   <i name="ALDAC">      1.00000000</i>
   <i name="AGGAC">      1.00000000</i>
   <i type="int" name="NKREDX">     1</i>
   <i type="int" name="NKREDY">     1</i>
   <i type="int" name="NKREDZ">     1</i>
   <i type="logical" name="SHIFTRED"> F  </i>
   <i type="logical" name="ODDONLY"> F  </i>
   <i type="logical" name="EVENONLY"> F  </i>
   <i type="int" name="LMAXFOCK">     0</i>
   <i type="int" name="NMAXFOCKAE">     0</i>
   <i type="logical" name="LFOCKAEDFT"> F  </i>
   <i name="HFSCREEN">      0.00000000</i>
   <i name="HFSCREENC">      0.00000000</i>
   <i type="int" name="NBANDSGWLOW">     0</i>
  </separator>
  <separator name="vdW DFT" >
   <i type="logical" name="LUSE_VDW"> F  </i>
   <i name="Zab_VDW">     -0.84910000</i>
   <i name="PARAM1">      0.12340000</i>
   <i name="PARAM2">      1.00000000</i>
   <i name="PARAM3">      0.00000000</i>
  </separator>
  <separator name="model GW" >
   <i type="int" name="MODEL_GW">     0</i>
   <i name="MODEL_EPS0">      8.86153846</i>
   <i name="MODEL_ALPHA">      1.00000000</i>
  </separator>
  <separator name="linear response parameters" >
   <i type="logical" name="LEPSILON"> F  </i>
   <i type="logical" name="LRPA"> F  </i>
   <i type="logical" name="LNABLA"> F  </i>
   <i type="logical" name="LVEL"> F  </i>
   <i type="int" name="KINTER">     0</i>
   <i name="CSHIFT">      0.10000000</i>
   <i name="OMEGAMAX">     -1.00000000</i>
   <i name="DEG_THRESHOLD">      0.00200000</i>
  </separator>
  <separator name="orbital magnetization" >
   <i type="logical" name="NUCIND"> F  </i>
   <v name="MAGPOS">      0.00000000      0.00000000      0.00000000</v>
   <i type="logical" name="LNICSALL"> T  </i>
   <i type="logical" name="ORBITALMAG"> F  </i>
   <i type="logical" name="LMAGBLOCH"> F  </i>
   <i type="logical" name="LCHIMAG"> F  </i>
   <i type="logical" name="LGAUGE"> T  </i>
   <i type="int" name="MAGATOM">     0</i>
   <v name="MAGDIPOL">      0.00000000      0.00000000      0.00000000</v>
   <v name="AVECCONST">      0.00000000      0.00000000      0.00000000</v>
  </separator>
  <separator name="response functions" >
   <i type="logical" name="LADDER"> F  </i>
   <i type="logical" name="LFXC"> F  </i>
   <i type="logical" name="LHARTREE"> T  </i>
   <i type="int" name="IBSE">     0</i>
   <i type="logical" name="LTCTE"> F  </i>
   <i type="logical" name="LTETE"> F  </i>
   <i type="logical" name="LTRIPLET"> F  </i>
   <i type="logical" name="LFXCEPS"> F  </i>
   <i type="logical" name="LFXHEG"> F  </i>
   <i type="logical" name="L2ORDER"> F  </i>
   <i type="logical" name="LUSEW"> F  </i>
   <i name="ENCUTGW">     -2.00000000</i>
   <i name="ENCUTGWSOFT">     -2.00000000</i>
   <i name="ENCUTLF">     -1.00000000</i>
   <i type="int" name="LMAXMP2">    -1</i>
   <i name="SCISSOR">      0.00000000</i>
   <i type="int" name="NOMEGA">     0</i>
   <i type="int" name="NOMEGAR">     0</i>
   <i type="int" name="NBANDSGW">    -1</i>
   <i type="int" name="NBANDSO">    -1</i>
   <i type="int" name="NBANDSV">    -1</i>
   <i type="int" name="NELM">   100</i>
   <i type="int" name="DIM">     3</i>
   <i type="int" name="ANTIRES">     0</i>
   <i name="OMEGAMAX">    -30.00000000</i>
   <i name="OMEGAMIN">    -30.00000000</i>
   <i name="OMEGATL">   -200.00000000</i>
   <i type="int" name="OMEGAGRID">     0</i>
   <i name="CSHIFT">     -0.10000000</i>
   <i type="logical" name="SELFENERGY"> F  </i>
   <i type="logical" name="LSPECTRAL"> F  </i>
   <i type="logical" name="ODDONLYGW"> F  </i>
   <i type="logical" name="EVENONLYGW"> F  </i>
   <i type="int" name="NKREDLFX">     1</i>
   <i type="int" name="NKREDLFY">     1</i>
   <i type="int" name="NKREDLFZ">     1</i>
   <i type="int" name="MAXMEM">  1800</i>
   <i type="int" name="TELESCOPE">     0</i>
   <i type="int" name="TAUPAR">     1</i>
  </separator>
  <separator name="External order field" >
   <i name="OFIELD_KAPPA">      0.00000000</i>
   <v name="OFIELD_K">      0.00000000      0.00000000      0.00000000</v>
   <i name="OFIELD_Q6_NEAR">      0.00000000</i>
   <i name="OFIELD_Q6_FAR">      0.00000000</i>
   <i name="OFIELD_A">      0.00000000</i>
  </separator>
 </parameters>
 <atominfo>
  <atoms>      26 </atoms>
  <types>       3 </types>
  <array name="atoms" >
   <dimension dim="1">ion</dimension>
   <field type="string">element</field>
   <field type="int">atomtype</field>
   <set>
    <rc><c>Sr</c><c>   1</c></rc>
    <rc><c>Sr</c><c>   1</c></rc>
    <rc><c>Sr</c><c>   1</c></rc>
    <rc><c>Sr</c><c>   1</c></rc>
    <rc><c>Sr</c><c>   1</c></rc>
    <rc><c>Sr</c><c>   1</c></rc>
    <rc><c>Cu</c><c>   2</c></rc>
    <rc><c>Cu</c><c>   2</c></rc>
    <rc><c>Cu</c><c>   2</c></rc>
    <rc><c>Cu</c><c>   2</c></rc>
    <rc><c>Cu</c><c>   2</c></rc>
    <rc><c>Cu</c><c>   2</c></rc>
    <rc><c>O </c><c>   3</c></rc>
    <rc><c>O </c><c>   3</c></rc>
    <rc><c>O </c><c>   3</c></rc>
    <rc><c>O </c><c>   3</c></rc>
    <rc><c>O </c><c>   3</c></rc>
    <rc><c>O </c><c>   3</c></rc>
    <rc><c>O </c><c>   3</c></rc>
    <rc><c>O </c><c>   3</c></rc>
    <rc><c>O </c><c>   3</c></rc>
    <rc><c>O </c><c>   3</c></rc>
    <rc><c>O </c><c>   3</c></rc>
    <rc><c>O </c><c>   3</c></rc>
    <rc><c>O </c><c>   3</c></rc>
    <rc><c>O </c><c>   3</c></rc>
   </set>
  </array>
  <array name="atomtypes" >
   <dimension dim="1">type</dimension>
   <field type="int">atomspertype</field>
   <field type="string">element</field>
   <field>mass</field>
   <field>valence</field>
   <field type="string">pseudopotential</field>
   <set>
    <rc><c>   6</c><c>Sr</c><c>     87.62000000</c><c>     10.00000000</c><c>  PAW_PBE Sr_sv 07Sep2000               </c></rc>
    <rc><c>   6</c><c>Cu</c><c>     63.54600000</c><c>     11.00000000</c><c>  PAW_PBE Cu 22Jun2005                  </c></rc>
    <rc><c>  14</c><c>O </c><c>     16.00000000</c><c>      6.00000000</c><c>  PAW_PBE O_s 07Sep2000                 </c></rc>
   </set>
  </array>
 </atominfo>
 <structure name="initialpos" >
  <crystal>
   <varray name="basis" >
    <v>       4.00000000       0.00000000       0.00000000 </v>
    <v>       0.00000000      16.97056275       0.00000000 </v>
    <v>       0.00000000       0.00000000       5.65685425 </v>
   </varray>
   <i name="volume">    384.00000000 </i>
   <varray name="rec_basis" >
    <v>       0.25000000       0.00000000       0.00000000 </v>
    <v>       0.00000000       0.05892557       0.00000000 </v>
    <v>       0.00000000       0.00000000       0.17677670 </v>
   </varray>
  </crystal>
  <varray name="positions" >
   <v>       0.00000000       0.00000000       0.00000000 </v>
   <v>       0.00000000       0.16666667       0.50000000 </v>
   <v>       0.00000000       0.33333333       0.00000000 </v>
   <v>       0.00000000       0.50000000       0.50000000 </v>
   <v>       0.00000000       0.66666667       0.00000000 </v>
   <v>       0.00000000       0.83333333       0.50000000 </v>
   <v>       0.50000000       0.00000000       0.50000000 </v>
   <v>       0.50000000       0.16666667       0.00000000 </v>
   <v>       0.50000000       0.33333333       0.50000000 </v>
   <v>       0.50000000       0.50000000       0.00000000 </v>
   <v>       0.50000000       0.66666667       0.50000000 </v>
   <v>       0.50000000       0.83333333       0.00000000 </v>
   <v>       0.50000000       0.08333333       0.25000000 </v>
   <v>       0.50000000       0.25000000       0.75000000 </v>
   <v>       0.00000000       0.00000000       0.50000000 </v>
   <v>       0.00000000       0.16666667       0.00000000 </v>
   <v>       0.00000000       0.33333333       0.50000000 </v>
   <v>       0.50000000       0.25000000       0.25000000 </v>
   <v>       0.50000000       0.41666667       0.75000000 </v>
   <v>       0.50000000       0.58333333       0.75000000 </v>
   <v>       0.50000000       0.75000000       0.25000000 </v>
   <v>       0.00000000       0.50000000       0.00000000 </v>
   <v>       0.00000000       0.66666667       0.50000000 </v>
   <v>       0.00000000       0.83333333       0.00000000 </v>
   <v>       0.50000000       0.75000000       0.75000000 </v>
   <v>       0.50000000       0.91666667       0.25000000 </v>
  </varray>
 </structure>
 <calculation>
  <scstep>
   <time name="dav">    5.39    5.40</time>
   <time name="total">    5.70    5.72</time>
   <energy>
    <i name="alphaZ">    972.25510703 </i>
    <i name="ewald"> -13884.01010633 </i>
    <i name="hartreedc">  -5767.86164483 </i>
    <i name="XCdc">    870.85614542 </i>
    <i name="pawpsdc">  15971.49147610 </i>
    <i name="pawaedc"> -16472.99898616 </i>
    <i name="eentropy">     -0.00360213 </i>
    <i name="bandstr">   1592.61637264 </i>
    <i name="atom">  19457.25548499 </i>
    <i name="e_fr_energy">   2739.60024674 </i>
    <i name="e_wo_entrp">   2739.60384887 </i>
    <i name="e_0_energy">   2739.60204781 </i>
   </energy>
  </scstep>
  <scstep>
   <time name="dav">    5.98    5.98</time>
   <time name="total">    5.98    6.00</time>
   <energy>
    <i name="e_fr_energy">    287.19894832 </i>
    <i name="e_wo_entrp">    287.20843761 </i>
    <i name="e_0_energy">    287.20369296 </i>
   </energy>
  </scstep>
  <scstep>
   <time name="dav">    5.75    5.75</time>
   <time name="total">    5.75    5.76</time>
   <energy>
    <i name="e_fr_energy">   -127.86285077 </i>
    <i name="e_wo_entrp">   -127.83180482 </i>
    <i name="e_0_energy">   -127.84732780 </i>
   </energy>
  </scstep>
  <scstep>
   <time name="dav">    7.33    7.33</time>
   <time name="total">    7.33    7.34</time>
   <energy>
    <i name="e_fr_energy">   -162.31570024 </i>
    <i name="e_wo_entrp">   -162.26637352 </i>
    <i name="e_0_energy">   -162.29103688 </i>
   </energy>
  </scstep>
  <scstep>
   <time name="dav">    9.31    9.31</time>
   <time name="total">    9.85    9.87</time>
   <energy>
    <i name="e_fr_energy">   -164.41611075 </i>
    <i name="e_wo_entrp">   -164.36650479 </i>
    <i name="e_0_energy">   -164.39130777 </i>
   </energy>
  </scstep>
  <scstep>
   <time name="dav">    8.00    8.00</time>
   <time name="total">    8.85    8.87</time>
   <energy>
    <i name="e_fr_energy">   -153.38674803 </i>
    <i name="e_wo_entrp">   -153.35855020 </i>
    <i name="e_0_energy">   -153.37264911 </i>
   </energy>
  </scstep>
  <scstep>
   <time name="dav">    7.45    7.45</time>
   <time name="total">    8.48    8.50</time>
   <energy>
    <i name="e_fr_energy">   -132.22964905 </i>
    <i name="e_wo_entrp">   -132.21176375 </i>
    <i name="e_0_energy">   -132.22070640 </i>
   </energy>
  </scstep>
  <scstep>
   <time name="dav">    8.11    8.11</time>
   <time name="total">    8.95    8.97</time>
   <energy>
    <i name="e_fr_energy">   -134.40431981 </i>
    <i name="e_wo_entrp">   -134.37662539 </i>
    <i name="e_0_energy">   -134.39047260 </i>
   </energy>
  </scstep>
  <scstep>
   <time name="dav">    8.19    8.19</time>
   <time name="total">    9.04    9.06</time>
   <energy>
    <i name="e_fr_energy">   -136.26664037 </i>
    <i name="e_wo_entrp">   -136.23835212 </i>
    <i name="e_0_energy">   -136.25249625 </i>
   </energy>
  </scstep>
  <scstep>
   <time name="dav">    8.15    8.15</time>
   <time name="total">    9.00    9.01</time>
   <energy>
    <i name="e_fr_energy">   -133.40823496 </i>
    <i name="e_wo_entrp">   -133.38647227 </i>
    <i name="e_0_energy">   -133.39735361 </i>
   </energy>
  </scstep>
  <scstep>
   <time name="dav">    8.00    8.00</time>
   <time name="total">    8.85    8.86</time>
   <energy>
    <i name="e_fr_energy">   -127.22945303 </i>
    <i name="e_wo_entrp">   -127.20657899 </i>
    <i name="e_0_energy">   -127.21801601 </i>
   </energy>
  </scstep>
  <scstep>
   <time name="dav">    7.38    7.38</time>
   <time name="total">    8.22    8.24</time>
   <energy>
    <i name="e_fr_energy">   -127.98856945 </i>
    <i name="e_wo_entrp">   -127.96781878 </i>
    <i name="e_0_energy">   -127.97819411 </i>
   </energy>
  </scstep>
  <scstep>
   <time name="dav">    7.39    7.39</time>
   <time name="total">    8.23    8.25</time>
   <energy>
    <i name="e_fr_energy">   -128.24974203 </i>
    <i name="e_wo_entrp">   -128.23025994 </i>
    <i name="e_0_energy">   -128.24000098 </i>
   </energy>
  </scstep>
  <scstep>
   <time name="dav">    8.25    8.25</time>
   <time name="total">    9.09    9.11</time>
   <energy>
    <i name="e_fr_energy">   -128.85480751 </i>
    <i name="e_wo_entrp">   -128.84246316 </i>
    <i name="e_0_energy">   -128.84863534 </i>
   </energy>
  </scstep>
  <scstep>
   <time name="dav">    7.77    7.77</time>
   <time name="total">    8.62    8.63</time>
   <energy>
    <i name="e_fr_energy">   -129.10291901 </i>
    <i name="e_wo_entrp">   -129.08660646 </i>
    <i name="e_0_energy">   -129.09476274 </i>
   </energy>
  </scstep>
  <scstep>
   <time name="dav">    7.83    7.83</time>
   <time name="total">    8.68    8.70</time>
   <energy>
    <i name="e_fr_energy">   -129.24495033 </i>
    <i name="e_wo_entrp">   -129.22744901 </i>
    <i name="e_0_energy">   -129.23619967 </i>
   </energy>
  </scstep>
  <scstep>
   <time name="dav">    7.88    7.89</time>
   <time name="total">    8.95    8.97</time>
   <energy>
    <i name="e_fr_energy">   -129.24887146 </i>
    <i name="e_wo_entrp">   -129.23291827 </i>
    <i name="e_0_energy">   -129.24089487 </i>
   </energy>
  </scstep>
  <scstep>
   <time name="dav">    7.43    7.43</time>
   <time name="total">    8.28    8.29</time>
   <energy>
    <i name="e_fr_energy">   -129.29340077 </i>
    <i name="e_wo_entrp">   -129.27858191 </i>
    <i name="e_0_energy">   -129.28599134 </i>
   </energy>
  </scstep>
  <scstep>
   <time name="dav">    7.70    7.70</time>
   <time name="total">    8.79    8.80</time>
   <energy>
    <i name="e_fr_energy">   -129.30800154 </i>
    <i name="e_wo_entrp">   -129.29317946 </i>
    <i name="e_0_energy">   -129.30059050 </i>
   </energy>
  </scstep>
  <scstep>
   <time name="dav">    8.01    8.01</time>
   <time name="total">    8.85    8.87</time>
   <energy>
    <i name="e_fr_energy">   -129.30684624 </i>
    <i name="e_wo_entrp">   -129.29214221 </i>
    <i name="e_0_energy">   -129.29949423 </i>
   </energy>
  </scstep>
  <scstep>
   <time name="dav">    8.47    8.47</time>
   <time name="total">    9.32    9.33</time>
   <energy>
    <i name="e_fr_energy">   -129.30575115 </i>
    <i name="e_wo_entrp">   -129.29124095 </i>
    <i name="e_0_energy">   -129.29849605 </i>
   </energy>
  </scstep>
  <scstep>
   <time name="dav">    8.15    8.15</time>
   <time name="total">    9.00    9.01</time>
   <energy>
    <i name="e_fr_energy">   -129.30583889 </i>
    <i name="e_wo_entrp">   -129.29149536 </i>
    <i name="e_0_energy">   -129.29866712 </i>
   </energy>
  </scstep>
  <scstep>
   <time name="dav">    7.77    7.78</time>
   <time name="total">    8.62    8.64</time>
   <energy>
    <i name="e_fr_energy">   -129.30589761 </i>
    <i name="e_wo_entrp">   -129.29160502 </i>
    <i name="e_0_energy">   -129.29875131 </i>
   </energy>
  </scstep>
  <scstep>
   <time name="dav">    7.86    7.86</time>
   <time name="total">    8.70    8.72</time>
   <energy>
    <i name="e_fr_energy">   -129.30591097 </i>
    <i name="e_wo_entrp">   -129.29164309 </i>
    <i name="e_0_energy">   -129.29877703 </i>
   </energy>
  </scstep>
  <scstep>
   <time name="dav">    6.76    6.76</time>
   <time name="total">    7.85    7.87</time>
   <energy>
    <i name="e_fr_energy">   -129.30591239 </i>
    <i name="e_wo_entrp">   -129.29165591 </i>
    <i name="e_0_energy">   -129.29878415 </i>
   </energy>
  </scstep>
  <scstep>
   <time name="dav">    6.53    6.53</time>
   <time name="total">    6.84    6.85</time>
   <energy>
    <i name="alphaZ">    972.25510703 </i>
    <i name="ewald"> -13884.01010633 </i>
    <i name="hartreedc">  -5741.20268590 </i>
    <i name="XCdc">    870.84663912 </i>
    <i name="pawpsdc">  24837.75583136 </i>
    <i name="pawaedc"> -25397.60037797 </i>
    <i name="eentropy">     -0.01423618 </i>
    <i name="bandstr">  -1244.59156765 </i>
    <i name="atom">  19457.25548499 </i>
    <i name="e_fr_energy">   -129.30591152 </i>
    <i name="e_wo_entrp">   -129.29167534 </i>
    <i name="e_0_energy">   -129.29879343 </i>
   </energy>
  </scstep>
  <structure>
   <crystal>
    <varray name="basis" >
     <v>       4.00000000       0.00000000       0.00000000 </v>
     <v>       0.00000000      16.97056275       0.00000000 </v>
     <v>       0.00000000       0.00000000       5.65685425 </v>
    </varray>
    <i name="volume">    384.00000000 </i>
    <varray name="rec_basis" >
     <v>       0.25000000       0.00000000       0.00000000 </v>
     <v>       0.00000000       0.05892557       0.00000000 </v>
     <v>       0.00000000       0.00000000       0.17677670 </v>
    </varray>
   </crystal>
   <varray name="positions" >
    <v>       0.00000000       0.00000000       0.00000000 </v>
    <v>       0.00000000       0.16666667       0.50000000 </v>
    <v>       0.00000000       0.33333333       0.00000000 </v>
    <v>       0.00000000       0.50000000       0.50000000 </v>
    <v>       0.00000000       0.66666667       0.00000000 </v>
    <v>       0.00000000       0.83333333       0.50000000 </v>
    <v>       0.50000000       0.00000000       0.50000000 </v>
    <v>       0.50000000       0.16666667       0.00000000 </v>
    <v>       0.50000000       0.33333333       0.50000000 </v>
    <v>       0.50000000       0.50000000       0.00000000 </v>
    <v>       0.50000000       0.66666667       0.50000000 </v>
    <v>       0.50000000       0.83333333       0.00000000 </v>
    <v>       0.50000000       0.08333333       0.25000000 </v>
    <v>       0.50000000       0.25000000       0.75000000 </v>
    <v>       0.00000000       0.00000000       0.50000000 </v>
    <v>       0.00000000       0.16666667       0.00000000 </v>
    <v>       0.00000000       0.33333333       0.50000000 </v>
    <v>       0.50000000       0.25000000       0.25000000 </v>
    <v>       0.50000000       0.41666667       0.75000000 </v>
    <v>       0.50000000       0.58333333       0.75000000 </v>
    <v>       0.50000000       0.75000000       0.25000000 </v>
    <v>       0.00000000       0.50000000       0.00000000 </v>
    <v>       0.00000000       0.66666667       0.50000000 </v>
    <v>       0.00000000       0.83333333       0.00000000 </v>
    <v>       0.50000000       0.75000000       0.75000000 </v>
    <v>       0.50000000       0.91666667       0.25000000 </v>
   </varray>
  </structure>
  <varray name="forces" >
   <v>       0.00000000       0.00000000       1.80839523 </v>
   <v>       0.00000000       0.87564198      -0.81648429 </v>
   <v>       0.00000000      -0.87564198      -0.81648429 </v>
   <v>       0.00000000       0.00000000       1.80839523 </v>
   <v>       0.00000000       0.87564198      -0.81648429 </v>
   <v>       0.00000000      -0.87564198      -0.81648429 </v>
   <v>       0.00000000       0.00000000      -1.35244807 </v>
   <v>       0.00000000       0.69360446       0.35545186 </v>
   <v>       0.00000000      -0.69360446       0.35545186 </v>
   <v>       0.00000000       0.00000000      -1.35244807 </v>
   <v>       0.00000000       0.69360446       0.35545186 </v>
   <v>       0.00000000      -0.69360446       0.35545186 </v>
   <v>       0.00000000       0.35156044      -0.72322059 </v>
   <v>       0.00000000      -1.32531656       0.78692145 </v>
   <v>       0.00000000       0.00000000       1.65630416 </v>
   <v>       0.00000000      -0.78635400      -0.65879409 </v>
   <v>       0.00000000       0.78635400      -0.65879409 </v>
   <v>       0.00000000       1.32531656       0.78692145 </v>
   <v>       0.00000000      -0.35156044      -0.72322059 </v>
   <v>       0.00000000       0.35156044      -0.72322059 </v>
   <v>       0.00000000      -1.32531656       0.78692145 </v>
   <v>       0.00000000       0.00000000       1.65630416 </v>
   <v>       0.00000000      -0.78635400      -0.65879409 </v>
   <v>       0.00000000       0.78635400      -0.65879409 </v>
   <v>       0.00000000       1.32531656       0.78692145 </v>
   <v>       0.00000000      -0.35156044      -0.72322059 </v>
  </varray>
  <varray name="stress" >
   <v>     -95.72191795       0.00000000       0.00000000 </v>
   <v>       0.00000000     -77.79844675       0.00000000 </v>
   <v>       0.00000000       0.00000000    -101.80182469 </v>
  </varray>
  <energy>
   <i name="e_fr_energy">   -129.30591152 </i>
   <i name="e_wo_entrp">   -129.29879343 </i>
   <i name="e_0_energy">     -0.01423618 </i>
  </energy>
  <time name="totalsc">  227.39  227.86</time>
  <eigenvalues>
   <array>
    <dimension dim="1">band</dimension>
    <dimension dim="2">kpoint</dimension>
    <dimension dim="3">spin</dimension>
    <field>eigene</field>
    <field>occ</field>
    <set>
     <set comment="spin 1">
      <set comment="kpoint 1">
       <r>  -31.4227    1.0000 </r>
       <r>  -31.4227    1.0000 </r>
       <r>  -30.6932    1.0000 </r>
       <r>  -30.6931    1.0000 </r>
       <r>  -30.6794    1.0000 </r>
       <r>  -30.6793    1.0000 </r>
       <r>  -14.9026    1.0000 </r>
       <r>  -14.8555    1.0000 </r>
       <r>  -14.8040    1.0000 </r>
       <r>  -14.7128    1.0000 </r>
       <r>  -14.6594    1.0000 </r>
       <r>  -14.2518    1.0000 </r>
       <r>  -14.2405    1.0000 </r>
       <r>  -14.1209    1.0000 </r>
       <r>  -14.0803    1.0000 </r>
       <r>  -14.0578    1.0000 </r>
       <r>  -13.8869    1.0000 </r>
       <r>  -13.7644    1.0000 </r>
       <r>  -13.7635    1.0000 </r>
       <r>  -13.7516    1.0000 </r>
       <r>  -13.4281    1.0000 </r>
       <r>  -13.4281    1.0000 </r>
       <r>  -13.2160    1.0000 </r>
       <r>  -13.1986    1.0000 </r>
       <r>  -13.1270    1.0000 </r>
       <r>  -13.0722    1.0000 </r>
       <r>  -12.6703    1.0000 </r>
       <r>  -12.6606    1.0000 </r>
       <r>  -12.6602    1.0000 </r>
       <r>  -12.6525    1.0000 </r>
       <r>  -12.6246    1.0000 </r>
       <r>  -12.6243    1.0000 </r>
       <r>  -12.6087    1.0000 </r>
       <r>  -12.5257    1.0000 </r>
       <r>  -12.3611    1.0000 </r>
       <r>  -12.3565    1.0000 </r>
       <r>  -12.3519    1.0000 </r>
       <r>  -12.3210    1.0000 </r>
       <r>   -2.6296    1.0000 </r>
       <r>   -2.5723    1.0000 </r>
       <r>   -2.4287    1.0000 </r>
       <r>   -2.3565    1.0000 </r>
       <r>   -2.0483    1.0000 </r>
       <r>   -1.9221    1.0000 </r>
       <r>   -1.8100    1.0000 </r>
       <r>   -1.7942    1.0000 </r>
       <r>   -1.7905    1.0000 </r>
       <r>   -1.7121    1.0000 </r>
       <r>   -1.4868    1.0000 </r>
       <r>   -1.4740    1.0000 </r>
       <r>   -1.4658    1.0000 </r>
       <r>   -1.4560    1.0000 </r>
       <r>   -1.4515    1.0000 </r>
       <r>   -1.1708    1.0000 </r>
       <r>   -1.1141    1.0000 </r>
       <r>   -1.0859    1.0000 </r>
       <r>   -1.0293    1.0000 </r>
       <r>   -1.0291    1.0000 </r>
       <r>   -1.0142    1.0000 </r>
       <r>   -0.8870    1.0000 </r>
       <r>   -0.8856    1.0000 </r>
       <r>   -0.8847    1.0000 </r>
       <r>   -0.8398    1.0000 </r>
       <r>   -0.8092    1.0000 </r>
       <r>   -0.7316    1.0000 </r>
       <r>   -0.6809    1.0000 </r>
       <r>   -0.6693    1.0000 </r>
       <r>   -0.5553    1.0000 </r>
       <r>   -0.4626    1.0000 </r>
       <r>   -0.4387    1.0000 </r>
       <r>   -0.3588    1.0000 </r>
       <r>   -0.3263    1.0000 </r>
       <r>   -0.3142    1.0000 </r>
       <r>   -0.2517    1.0000 </r>
       <r>   -0.1154    1.0000 </r>
       <r>    0.0053    1.0000 </r>
       <r>    0.0879    1.0000 </r>
       <r>    0.1796    1.0000 </r>
       <r>    0.4193    1.0000 </r>
       <r>    0.4612    1.0000 </r>
       <r>    0.5329    1.0000 </r>
       <r>    0.6021    1.0000 </r>
       <r>    0.6233    1.0000 </r>
       <r>    0.8349    1.0000 </r>
       <r>    0.8610    1.0000 </r>
       <r>    0.8989    1.0000 </r>
       <r>    0.9653    1.0000 </r>
       <r>    0.9852    1.0000 </r>
       <r>    1.1055    1.0000 </r>
       <r>    1.1912    1.0000 </r>
       <r>    1.2211    1.0000 </r>
       <r>    1.3055    1.0000 </r>
       <r>    1.3209    1.0000 </r>
       <r>    1.4298    1.0000 </r>
       <r>    1.5221    1.0000 </r>
       <r>    1.5237    1.0000 </r>
       <r>    1.5304    1.0000 </r>
       <r>    1.5913    1.0000 </r>
       <r>    1.5997    1.0000 </r>
       <r>    1.6280    1.0000 </r>
       <r>    1.6412    1.0000 </r>
       <r>    1.6716    1.0000 </r>
       <r>    1.7174    1.0000 </r>
       <r>    1.8096    1.0000 </r>
       <r>    1.9104    1.0000 </r>
       <r>    1.9118    1.0000 </r>
       <r>    2.0859    1.0000 </r>
       <r>    2.3618    0.9693 </r>
       <r>    2.9193    0.0000 </r>
       <r>    3.0768    0.0000 </r>
       <r>    3.6464    0.0000 </r>
       <r>    3.8650    0.0000 </r>
       <r>    5.5217    0.0000 </r>
       <r>    5.6911    0.0000 </r>
       <r>    7.4003    0.0000 </r>
       <r>    7.6564    0.0000 </r>
       <r>    7.6865    0.0000 </r>
       <r>    7.9889    0.0000 </r>
       <r>    8.2385    0.0000 </r>
       <r>    8.2607    0.0000 </r>
       <r>    8.3753    0.0000 </r>
       <r>    8.5232    0.0000 </r>
       <r>    8.8469    0.0000 </r>
       <r>    9.0136    0.0000 </r>
       <r>    9.0176    0.0000 </r>
       <r>    9.1330    0.0000 </r>
       <r>    9.1414    0.0000 </r>
       <r>    9.2791    0.0000 </r>
       <r>    9.3001    0.0000 </r>
       <r>    9.8950    0.0000 </r>
       <r>   10.0097    0.0000 </r>
       <r>   10.0266    0.0000 </r>
       <r>   10.0433    0.0000 </r>
       <r>   10.0770    0.0000 </r>
       <r>   10.2326    0.0000 </r>
       <r>   10.3046    0.0000 </r>
       <r>   10.3171    0.0000 </r>
       <r>   10.5237    0.0000 </r>
       <r>   10.7537    0.0000 </r>
       <r>   10.8808    0.0000 </r>
      </set>
      <set comment="kpoint 2">
       <r>  -31.4183    1.0000 </r>
       <r>  -31.4183    1.0000 </r>
       <r>  -30.6883    1.0000 </r>
       <r>  -30.6883    1.0000 </r>
       <r>  -30.6750    1.0000 </r>
       <r>  -30.6749    1.0000 </r>
       <r>  -14.8306    1.0000 </r>
       <r>  -14.8225    1.0000 </r>
       <r>  -14.7307    1.0000 </r>
       <r>  -14.6143    1.0000 </r>
       <r>  -14.5546    1.0000 </r>
       <r>  -14.1877    1.0000 </r>
       <r>  -14.1621    1.0000 </r>
       <r>  -14.0961    1.0000 </r>
       <r>  -14.0830    1.0000 </r>
       <r>  -14.0182    1.0000 </r>
       <r>  -13.9204    1.0000 </r>
       <r>  -13.8863    1.0000 </r>
       <r>  -13.8610    1.0000 </r>
       <r>  -13.7808    1.0000 </r>
       <r>  -13.4681    1.0000 </r>
       <r>  -13.4644    1.0000 </r>
       <r>  -13.2050    1.0000 </r>
       <r>  -13.2001    1.0000 </r>
       <r>  -13.1481    1.0000 </r>
       <r>  -13.0961    1.0000 </r>
       <r>  -12.7181    1.0000 </r>
       <r>  -12.6915    1.0000 </r>
       <r>  -12.6736    1.0000 </r>
       <r>  -12.6601    1.0000 </r>
       <r>  -12.6222    1.0000 </r>
       <r>  -12.5609    1.0000 </r>
       <r>  -12.5257    1.0000 </r>
       <r>  -12.5183    1.0000 </r>
       <r>  -12.4306    1.0000 </r>
       <r>  -12.4162    1.0000 </r>
       <r>  -12.4068    1.0000 </r>
       <r>  -12.3586    1.0000 </r>
       <r>   -2.6709    1.0000 </r>
       <r>   -2.6212    1.0000 </r>
       <r>   -2.4507    1.0000 </r>
       <r>   -2.3857    1.0000 </r>
       <r>   -1.9922    1.0000 </r>
       <r>   -1.9573    1.0000 </r>
       <r>   -1.9509    1.0000 </r>
       <r>   -1.8899    1.0000 </r>
       <r>   -1.8222    1.0000 </r>
       <r>   -1.8042    1.0000 </r>
       <r>   -1.8037    1.0000 </r>
       <r>   -1.7918    1.0000 </r>
       <r>   -1.7625    1.0000 </r>
       <r>   -1.7489    1.0000 </r>
       <r>   -1.6856    1.0000 </r>
       <r>   -1.6693    1.0000 </r>
       <r>   -1.5927    1.0000 </r>
       <r>   -1.5542    1.0000 </r>
       <r>   -1.5355    1.0000 </r>
       <r>   -1.5340    1.0000 </r>
       <r>   -1.3809    1.0000 </r>
       <r>   -1.2454    1.0000 </r>
       <r>   -1.2370    1.0000 </r>
       <r>   -1.2245    1.0000 </r>
       <r>   -1.2218    1.0000 </r>
       <r>   -1.1293    1.0000 </r>
       <r>   -1.1184    1.0000 </r>
       <r>   -1.0835    1.0000 </r>
       <r>   -1.0672    1.0000 </r>
       <r>   -1.0599    1.0000 </r>
       <r>   -0.9883    1.0000 </r>
       <r>   -0.8000    1.0000 </r>
       <r>   -0.3403    1.0000 </r>
       <r>   -0.0280    1.0000 </r>
       <r>    0.1804    1.0000 </r>
       <r>    0.2545    1.0000 </r>
       <r>    0.3757    1.0000 </r>
       <r>    0.3946    1.0000 </r>
       <r>    0.4410    1.0000 </r>
       <r>    0.5325    1.0000 </r>
       <r>    0.7426    1.0000 </r>
       <r>    0.8625    1.0000 </r>
       <r>    0.8805    1.0000 </r>
       <r>    0.9484    1.0000 </r>
       <r>    0.9881    1.0000 </r>
       <r>    1.0595    1.0000 </r>
       <r>    1.0874    1.0000 </r>
       <r>    1.0974    1.0000 </r>
       <r>    1.1305    1.0000 </r>
       <r>    1.1319    1.0000 </r>
       <r>    1.1555    1.0000 </r>
       <r>    1.2496    1.0000 </r>
       <r>    1.2674    1.0000 </r>
       <r>    1.3028    1.0000 </r>
       <r>    1.3432    1.0000 </r>
       <r>    1.4355    1.0000 </r>
       <r>    1.4356    1.0000 </r>
       <r>    1.4903    1.0000 </r>
       <r>    1.4919    1.0000 </r>
       <r>    1.6225    1.0000 </r>
       <r>    1.6716    1.0000 </r>
       <r>    1.6898    1.0000 </r>
       <r>    1.8118    1.0000 </r>
       <r>    1.8142    1.0000 </r>
       <r>    2.0564    1.0000 </r>
       <r>    2.2215    1.0000 </r>
       <r>    2.2435    1.0000 </r>
       <r>    2.2876    1.0000 </r>
       <r>    2.5942    0.0000 </r>
       <r>    2.7115    0.0000 </r>
       <r>    3.1147    0.0000 </r>
       <r>    3.3307    0.0000 </r>
       <r>    4.3422    0.0000 </r>
       <r>    4.3593    0.0000 </r>
       <r>    5.7481    0.0000 </r>
       <r>    5.7500    0.0000 </r>
       <r>    7.5958    0.0000 </r>
       <r>    7.8110    0.0000 </r>
       <r>    7.9085    0.0000 </r>
       <r>    8.0913    0.0000 </r>
       <r>    8.0981    0.0000 </r>
       <r>    8.3479    0.0000 </r>
       <r>    8.7141    0.0000 </r>
       <r>    8.7213    0.0000 </r>
       <r>    8.8582    0.0000 </r>
       <r>    8.8864    0.0000 </r>
       <r>    9.0259    0.0000 </r>
       <r>    9.1356    0.0000 </r>
       <r>    9.2257    0.0000 </r>
       <r>    9.4157    0.0000 </r>
       <r>    9.6886    0.0000 </r>
       <r>    9.9004    0.0000 </r>
       <r>    9.9868    0.0000 </r>
       <r>   10.0043    0.0000 </r>
       <r>   10.0149    0.0000 </r>
       <r>   10.2966    0.0000 </r>
       <r>   10.3242    0.0000 </r>
       <r>   10.3877    0.0000 </r>
       <r>   10.4273    0.0000 </r>
       <r>   10.4374    0.0000 </r>
       <r>   10.6342    0.0000 </r>
       <r>   10.6932    0.0000 </r>
      </set>
      <set comment="kpoint 3">
       <r>  -31.4111    1.0000 </r>
       <r>  -31.4111    1.0000 </r>
       <r>  -30.6805    1.0000 </r>
       <r>  -30.6805    1.0000 </r>
       <r>  -30.6679    1.0000 </r>
       <r>  -30.6679    1.0000 </r>
       <r>  -14.8068    1.0000 </r>
       <r>  -14.7025    1.0000 </r>
       <r>  -14.6179    1.0000 </r>
       <r>  -14.3914    1.0000 </r>
       <r>  -14.3087    1.0000 </r>
       <r>  -14.2126    1.0000 </r>
       <r>  -14.1810    1.0000 </r>
       <r>  -14.1651    1.0000 </r>
       <r>  -14.0349    1.0000 </r>
       <r>  -14.0142    1.0000 </r>
       <r>  -14.0072    1.0000 </r>
       <r>  -13.9230    1.0000 </r>
       <r>  -13.7771    1.0000 </r>
       <r>  -13.7606    1.0000 </r>
       <r>  -13.4311    1.0000 </r>
       <r>  -13.4289    1.0000 </r>
       <r>  -13.2990    1.0000 </r>
       <r>  -13.2448    1.0000 </r>
       <r>  -13.1965    1.0000 </r>
       <r>  -13.1581    1.0000 </r>
       <r>  -12.7342    1.0000 </r>
       <r>  -12.7220    1.0000 </r>
       <r>  -12.6997    1.0000 </r>
       <r>  -12.6976    1.0000 </r>
       <r>  -12.6769    1.0000 </r>
       <r>  -12.6678    1.0000 </r>
       <r>  -12.5616    1.0000 </r>
       <r>  -12.5450    1.0000 </r>
       <r>  -12.5048    1.0000 </r>
       <r>  -12.4342    1.0000 </r>
       <r>  -12.3718    1.0000 </r>
       <r>  -12.3643    1.0000 </r>
       <r>   -3.0557    1.0000 </r>
       <r>   -2.9975    1.0000 </r>
       <r>   -2.9365    1.0000 </r>
       <r>   -2.8847    1.0000 </r>
       <r>   -2.7295    1.0000 </r>
       <r>   -2.7186    1.0000 </r>
       <r>   -2.3255    1.0000 </r>
       <r>   -2.3010    1.0000 </r>
       <r>   -2.2855    1.0000 </r>
       <r>   -2.2362    1.0000 </r>
       <r>   -1.9917    1.0000 </r>
       <r>   -1.9455    1.0000 </r>
       <r>   -1.9294    1.0000 </r>
       <r>   -1.9002    1.0000 </r>
       <r>   -1.8581    1.0000 </r>
       <r>   -1.7809    1.0000 </r>
       <r>   -1.7280    1.0000 </r>
       <r>   -1.7043    1.0000 </r>
       <r>   -1.6223    1.0000 </r>
       <r>   -1.5997    1.0000 </r>
       <r>   -1.5939    1.0000 </r>
       <r>   -1.5636    1.0000 </r>
       <r>   -1.5630    1.0000 </r>
       <r>   -1.5569    1.0000 </r>
       <r>   -1.4048    1.0000 </r>
       <r>   -1.3877    1.0000 </r>
       <r>   -1.3348    1.0000 </r>
       <r>   -1.3269    1.0000 </r>
       <r>   -1.3202    1.0000 </r>
       <r>   -1.0957    1.0000 </r>
       <r>   -0.9775    1.0000 </r>
       <r>   -0.7893    1.0000 </r>
       <r>   -0.2854    1.0000 </r>
       <r>    0.1283    1.0000 </r>
       <r>    0.4648    1.0000 </r>
       <r>    0.5298    1.0000 </r>
       <r>    0.5450    1.0000 </r>
       <r>    0.6159    1.0000 </r>
       <r>    0.7137    1.0000 </r>
       <r>    0.8557    1.0000 </r>
       <r>    0.8572    1.0000 </r>
       <r>    0.8738    1.0000 </r>
       <r>    0.9442    1.0000 </r>
       <r>    1.0105    1.0000 </r>
       <r>    1.0313    1.0000 </r>
       <r>    1.0660    1.0000 </r>
       <r>    1.1912    1.0000 </r>
       <r>    1.1924    1.0000 </r>
       <r>    1.1942    1.0000 </r>
       <r>    1.2555    1.0000 </r>
       <r>    1.3850    1.0000 </r>
       <r>    1.4366    1.0000 </r>
       <r>    1.4632    1.0000 </r>
       <r>    1.5502    1.0000 </r>
       <r>    1.6156    1.0000 </r>
       <r>    1.6509    1.0000 </r>
       <r>    1.6688    1.0000 </r>
       <r>    1.7271    1.0000 </r>
       <r>    1.7386    1.0000 </r>
       <r>    1.7409    1.0000 </r>
       <r>    1.9288    1.0000 </r>
       <r>    1.9717    1.0000 </r>
       <r>    2.0297    1.0000 </r>
       <r>    2.0948    1.0000 </r>
       <r>    2.1088    1.0000 </r>
       <r>    2.2120    1.0000 </r>
       <r>    2.2305    1.0000 </r>
       <r>    2.3812    0.9069 </r>
       <r>    3.4038    0.0000 </r>
       <r>    3.5442    0.0000 </r>
       <r>    3.5844    0.0000 </r>
       <r>    3.7386    0.0000 </r>
       <r>    5.0782    0.0000 </r>
       <r>    5.2357    0.0000 </r>
       <r>    5.8144    0.0000 </r>
       <r>    5.9282    0.0000 </r>
       <r>    7.7245    0.0000 </r>
       <r>    7.8726    0.0000 </r>
       <r>    7.8925    0.0000 </r>
       <r>    7.9563    0.0000 </r>
       <r>    8.3074    0.0000 </r>
       <r>    8.6266    0.0000 </r>
       <r>    8.9851    0.0000 </r>
       <r>    9.0118    0.0000 </r>
       <r>    9.2950    0.0000 </r>
       <r>    9.4586    0.0000 </r>
       <r>    9.4854    0.0000 </r>
       <r>    9.7394    0.0000 </r>
       <r>    9.7583    0.0000 </r>
       <r>    9.7997    0.0000 </r>
       <r>    9.8219    0.0000 </r>
       <r>    9.8311    0.0000 </r>
       <r>    9.8480    0.0000 </r>
       <r>   10.0931    0.0000 </r>
       <r>   10.1975    0.0000 </r>
       <r>   10.3988    0.0000 </r>
       <r>   10.4760    0.0000 </r>
       <r>   10.5893    0.0000 </r>
       <r>   10.6829    0.0000 </r>
       <r>   10.8465    0.0000 </r>
       <r>   10.8962    0.0000 </r>
       <r>   11.0390    0.0000 </r>
      </set>
      <set comment="kpoint 4">
       <r>  -31.4224    1.0000 </r>
       <r>  -31.4224    1.0000 </r>
       <r>  -30.6910    1.0000 </r>
       <r>  -30.6909    1.0000 </r>
       <r>  -30.6812    1.0000 </r>
       <r>  -30.6811    1.0000 </r>
       <r>  -14.9607    1.0000 </r>
       <r>  -14.9393    1.0000 </r>
       <r>  -14.9285    1.0000 </r>
       <r>  -14.7986    1.0000 </r>
       <r>  -14.7233    1.0000 </r>
       <r>  -14.5006    1.0000 </r>
       <r>  -14.1959    1.0000 </r>
       <r>  -14.0242    1.0000 </r>
       <r>  -13.9919    1.0000 </r>
       <r>  -13.9530    1.0000 </r>
       <r>  -13.7661    1.0000 </r>
       <r>  -13.7651    1.0000 </r>
       <r>  -13.7577    1.0000 </r>
       <r>  -13.7414    1.0000 </r>
       <r>  -13.4277    1.0000 </r>
       <r>  -13.4277    1.0000 </r>
       <r>  -13.1433    1.0000 </r>
       <r>  -13.1389    1.0000 </r>
       <r>  -13.1186    1.0000 </r>
       <r>  -13.0931    1.0000 </r>
       <r>  -12.6551    1.0000 </r>
       <r>  -12.6550    1.0000 </r>
       <r>  -12.6297    1.0000 </r>
       <r>  -12.6296    1.0000 </r>
       <r>  -12.6172    1.0000 </r>
       <r>  -12.6168    1.0000 </r>
       <r>  -12.5771    1.0000 </r>
       <r>  -12.5466    1.0000 </r>
       <r>  -12.3195    1.0000 </r>
       <r>  -12.3002    1.0000 </r>
       <r>  -12.2986    1.0000 </r>
       <r>  -12.2924    1.0000 </r>
       <r>   -2.6135    1.0000 </r>
       <r>   -2.5172    1.0000 </r>
       <r>   -2.4480    1.0000 </r>
       <r>   -2.3750    1.0000 </r>
       <r>   -1.9269    1.0000 </r>
       <r>   -1.8518    1.0000 </r>
       <r>   -1.8509    1.0000 </r>
       <r>   -1.7825    1.0000 </r>
       <r>   -1.7497    1.0000 </r>
       <r>   -1.6542    1.0000 </r>
       <r>   -1.4777    1.0000 </r>
       <r>   -1.4658    1.0000 </r>
       <r>   -1.4478    1.0000 </r>
       <r>   -1.4315    1.0000 </r>
       <r>   -1.4277    1.0000 </r>
       <r>   -1.1733    1.0000 </r>
       <r>   -1.1352    1.0000 </r>
       <r>   -1.1187    1.0000 </r>
       <r>   -1.0659    1.0000 </r>
       <r>   -1.0435    1.0000 </r>
       <r>   -1.0131    1.0000 </r>
       <r>   -0.8892    1.0000 </r>
       <r>   -0.8741    1.0000 </r>
       <r>   -0.8714    1.0000 </r>
       <r>   -0.8632    1.0000 </r>
       <r>   -0.8511    1.0000 </r>
       <r>   -0.7071    1.0000 </r>
       <r>   -0.6955    1.0000 </r>
       <r>   -0.6951    1.0000 </r>
       <r>   -0.5821    1.0000 </r>
       <r>   -0.5350    1.0000 </r>
       <r>   -0.5168    1.0000 </r>
       <r>   -0.4299    1.0000 </r>
       <r>   -0.3705    1.0000 </r>
       <r>   -0.3360    1.0000 </r>
       <r>   -0.3261    1.0000 </r>
       <r>   -0.1250    1.0000 </r>
       <r>   -0.0766    1.0000 </r>
       <r>   -0.0317    1.0000 </r>
       <r>    0.1500    1.0000 </r>
       <r>    0.3052    1.0000 </r>
       <r>    0.3954    1.0000 </r>
       <r>    0.4165    1.0000 </r>
       <r>    0.5350    1.0000 </r>
       <r>    0.5440    1.0000 </r>
       <r>    0.5926    1.0000 </r>
       <r>    0.6592    1.0000 </r>
       <r>    0.8306    1.0000 </r>
       <r>    0.9227    1.0000 </r>
       <r>    0.9903    1.0000 </r>
       <r>    0.9931    1.0000 </r>
       <r>    1.1434    1.0000 </r>
       <r>    1.2328    1.0000 </r>
       <r>    1.2618    1.0000 </r>
       <r>    1.2948    1.0000 </r>
       <r>    1.4164    1.0000 </r>
       <r>    1.5434    1.0000 </r>
       <r>    1.5529    1.0000 </r>
       <r>    1.5964    1.0000 </r>
       <r>    1.6238    1.0000 </r>
       <r>    1.6376    1.0000 </r>
       <r>    1.6439    1.0000 </r>
       <r>    1.6575    1.0000 </r>
       <r>    1.6833    1.0000 </r>
       <r>    1.6963    1.0000 </r>
       <r>    1.7487    1.0000 </r>
       <r>    1.8885    1.0000 </r>
       <r>    1.8959    1.0000 </r>
       <r>    1.9733    1.0000 </r>
       <r>    2.3652    0.9620 </r>
       <r>    2.6210    0.0000 </r>
       <r>    2.8395    0.0000 </r>
       <r>    4.1123    0.0000 </r>
       <r>    4.2778    0.0000 </r>
       <r>    5.8927    0.0000 </r>
       <r>    6.0461    0.0000 </r>
       <r>    7.2081    0.0000 </r>
       <r>    7.5124    0.0000 </r>
       <r>    8.0893    0.0000 </r>
       <r>    8.1319    0.0000 </r>
       <r>    8.2350    0.0000 </r>
       <r>    8.3053    0.0000 </r>
       <r>    8.5456    0.0000 </r>
       <r>    8.8770    0.0000 </r>
       <r>    9.0424    0.0000 </r>
       <r>    9.0618    0.0000 </r>
       <r>    9.1195    0.0000 </r>
       <r>    9.1720    0.0000 </r>
       <r>    9.1753    0.0000 </r>
       <r>    9.1788    0.0000 </r>
       <r>    9.1842    0.0000 </r>
       <r>    9.8146    0.0000 </r>
       <r>    9.9369    0.0000 </r>
       <r>   10.1432    0.0000 </r>
       <r>   10.1725    0.0000 </r>
       <r>   10.2322    0.0000 </r>
       <r>   10.2582    0.0000 </r>
       <r>   10.2665    0.0000 </r>
       <r>   10.4675    0.0000 </r>
       <r>   10.4701    0.0000 </r>
       <r>   10.6641    0.0000 </r>
       <r>   10.9030    0.0000 </r>
      </set>
      <set comment="kpoint 5">
       <r>  -31.4180    1.0000 </r>
       <r>  -31.4180    1.0000 </r>
       <r>  -30.6863    1.0000 </r>
       <r>  -30.6862    1.0000 </r>
       <r>  -30.6768    1.0000 </r>
       <r>  -30.6767    1.0000 </r>
       <r>  -14.8745    1.0000 </r>
       <r>  -14.8411    1.0000 </r>
       <r>  -14.8311    1.0000 </r>
       <r>  -14.6765    1.0000 </r>
       <r>  -14.6469    1.0000 </r>
       <r>  -14.4166    1.0000 </r>
       <r>  -14.1465    1.0000 </r>
       <r>  -14.0843    1.0000 </r>
       <r>  -14.0662    1.0000 </r>
       <r>  -14.0224    1.0000 </r>
       <r>  -13.8979    1.0000 </r>
       <r>  -13.8683    1.0000 </r>
       <r>  -13.7936    1.0000 </r>
       <r>  -13.7741    1.0000 </r>
       <r>  -13.3972    1.0000 </r>
       <r>  -13.3895    1.0000 </r>
       <r>  -13.1519    1.0000 </r>
       <r>  -13.1495    1.0000 </r>
       <r>  -13.1468    1.0000 </r>
       <r>  -13.1209    1.0000 </r>
       <r>  -12.6953    1.0000 </r>
       <r>  -12.6717    1.0000 </r>
       <r>  -12.6708    1.0000 </r>
       <r>  -12.6270    1.0000 </r>
       <r>  -12.5730    1.0000 </r>
       <r>  -12.5216    1.0000 </r>
       <r>  -12.5100    1.0000 </r>
       <r>  -12.5065    1.0000 </r>
       <r>  -12.3761    1.0000 </r>
       <r>  -12.3644    1.0000 </r>
       <r>  -12.3444    1.0000 </r>
       <r>  -12.3403    1.0000 </r>
       <r>   -2.6654    1.0000 </r>
       <r>   -2.5642    1.0000 </r>
       <r>   -2.4815    1.0000 </r>
       <r>   -2.4090    1.0000 </r>
       <r>   -1.9854    1.0000 </r>
       <r>   -1.9721    1.0000 </r>
       <r>   -1.8933    1.0000 </r>
       <r>   -1.8679    1.0000 </r>
       <r>   -1.8652    1.0000 </r>
       <r>   -1.8115    1.0000 </r>
       <r>   -1.7983    1.0000 </r>
       <r>   -1.7868    1.0000 </r>
       <r>   -1.7642    1.0000 </r>
       <r>   -1.7509    1.0000 </r>
       <r>   -1.6851    1.0000 </r>
       <r>   -1.6309    1.0000 </r>
       <r>   -1.6014    1.0000 </r>
       <r>   -1.5950    1.0000 </r>
       <r>   -1.5500    1.0000 </r>
       <r>   -1.5335    1.0000 </r>
       <r>   -1.3857    1.0000 </r>
       <r>   -1.2923    1.0000 </r>
       <r>   -1.2734    1.0000 </r>
       <r>   -1.2398    1.0000 </r>
       <r>   -1.2106    1.0000 </r>
       <r>   -1.1520    1.0000 </r>
       <r>   -1.1455    1.0000 </r>
       <r>   -1.1082    1.0000 </r>
       <r>   -1.1077    1.0000 </r>
       <r>   -1.0880    1.0000 </r>
       <r>   -0.9735    1.0000 </r>
       <r>   -0.8575    1.0000 </r>
       <r>   -0.1725    1.0000 </r>
       <r>   -0.1230    1.0000 </r>
       <r>   -0.0760    1.0000 </r>
       <r>    0.1202    1.0000 </r>
       <r>    0.2003    1.0000 </r>
       <r>    0.4398    1.0000 </r>
       <r>    0.4952    1.0000 </r>
       <r>    0.5236    1.0000 </r>
       <r>    0.6789    1.0000 </r>
       <r>    0.7856    1.0000 </r>
       <r>    0.8768    1.0000 </r>
       <r>    0.8779    1.0000 </r>
       <r>    0.9405    1.0000 </r>
       <r>    0.9737    1.0000 </r>
       <r>    0.9928    1.0000 </r>
       <r>    1.0491    1.0000 </r>
       <r>    1.0781    1.0000 </r>
       <r>    1.1186    1.0000 </r>
       <r>    1.1598    1.0000 </r>
       <r>    1.1826    1.0000 </r>
       <r>    1.2308    1.0000 </r>
       <r>    1.2741    1.0000 </r>
       <r>    1.3155    1.0000 </r>
       <r>    1.3745    1.0000 </r>
       <r>    1.3776    1.0000 </r>
       <r>    1.5295    1.0000 </r>
       <r>    1.5776    1.0000 </r>
       <r>    1.6222    1.0000 </r>
       <r>    1.6737    1.0000 </r>
       <r>    1.7087    1.0000 </r>
       <r>    1.7239    1.0000 </r>
       <r>    1.8453    1.0000 </r>
       <r>    2.1108    1.0000 </r>
       <r>    2.1216    1.0000 </r>
       <r>    2.1705    1.0000 </r>
       <r>    2.1809    1.0000 </r>
       <r>    2.6516    0.0000 </r>
       <r>    2.8045    0.0000 </r>
       <r>    2.9888    0.0000 </r>
       <r>    3.1713    0.0000 </r>
       <r>    4.5826    0.0000 </r>
       <r>    4.5839    0.0000 </r>
       <r>    6.0637    0.0000 </r>
       <r>    6.0901    0.0000 </r>
       <r>    7.6988    0.0000 </r>
       <r>    7.9095    0.0000 </r>
       <r>    8.1697    0.0000 </r>
       <r>    8.3141    0.0000 </r>
       <r>    8.3209    0.0000 </r>
       <r>    8.3587    0.0000 </r>
       <r>    8.5486    0.0000 </r>
       <r>    8.5791    0.0000 </r>
       <r>    8.9164    0.0000 </r>
       <r>    9.0990    0.0000 </r>
       <r>    9.1631    0.0000 </r>
       <r>    9.4266    0.0000 </r>
       <r>    9.4635    0.0000 </r>
       <r>    9.5750    0.0000 </r>
       <r>    9.6908    0.0000 </r>
       <r>    9.8792    0.0000 </r>
       <r>    9.9512    0.0000 </r>
       <r>    9.9639    0.0000 </r>
       <r>   10.2025    0.0000 </r>
       <r>   10.2581    0.0000 </r>
       <r>   10.3576    0.0000 </r>
       <r>   10.4080    0.0000 </r>
       <r>   10.4721    0.0000 </r>
       <r>   10.5537    0.0000 </r>
       <r>   10.6624    0.0000 </r>
       <r>   10.6727    0.0000 </r>
      </set>
      <set comment="kpoint 6">
       <r>  -31.4109    1.0000 </r>
       <r>  -31.4109    1.0000 </r>
       <r>  -30.6786    1.0000 </r>
       <r>  -30.6785    1.0000 </r>
       <r>  -30.6697    1.0000 </r>
       <r>  -30.6695    1.0000 </r>
       <r>  -14.7576    1.0000 </r>
       <r>  -14.6417    1.0000 </r>
       <r>  -14.6368    1.0000 </r>
       <r>  -14.4512    1.0000 </r>
       <r>  -14.3922    1.0000 </r>
       <r>  -14.3397    1.0000 </r>
       <r>  -14.2439    1.0000 </r>
       <r>  -14.2286    1.0000 </r>
       <r>  -14.1529    1.0000 </r>
       <r>  -14.0875    1.0000 </r>
       <r>  -14.0793    1.0000 </r>
       <r>  -13.9156    1.0000 </r>
       <r>  -13.8684    1.0000 </r>
       <r>  -13.8273    1.0000 </r>
       <r>  -13.3354    1.0000 </r>
       <r>  -13.3136    1.0000 </r>
       <r>  -13.2076    1.0000 </r>
       <r>  -13.1961    1.0000 </r>
       <r>  -13.1902    1.0000 </r>
       <r>  -13.1879    1.0000 </r>
       <r>  -12.6811    1.0000 </r>
       <r>  -12.6717    1.0000 </r>
       <r>  -12.6529    1.0000 </r>
       <r>  -12.6003    1.0000 </r>
       <r>  -12.5906    1.0000 </r>
       <r>  -12.5621    1.0000 </r>
       <r>  -12.4851    1.0000 </r>
       <r>  -12.4643    1.0000 </r>
       <r>  -12.4472    1.0000 </r>
       <r>  -12.4166    1.0000 </r>
       <r>  -12.3983    1.0000 </r>
       <r>  -12.3868    1.0000 </r>
       <r>   -3.0824    1.0000 </r>
       <r>   -2.9689    1.0000 </r>
       <r>   -2.9451    1.0000 </r>
       <r>   -2.8517    1.0000 </r>
       <r>   -2.7635    1.0000 </r>
       <r>   -2.7525    1.0000 </r>
       <r>   -2.3342    1.0000 </r>
       <r>   -2.2904    1.0000 </r>
       <r>   -2.2879    1.0000 </r>
       <r>   -2.2531    1.0000 </r>
       <r>   -2.0668    1.0000 </r>
       <r>   -2.0374    1.0000 </r>
       <r>   -2.0357    1.0000 </r>
       <r>   -1.9900    1.0000 </r>
       <r>   -1.7661    1.0000 </r>
       <r>   -1.7602    1.0000 </r>
       <r>   -1.7391    1.0000 </r>
       <r>   -1.6982    1.0000 </r>
       <r>   -1.6556    1.0000 </r>
       <r>   -1.6064    1.0000 </r>
       <r>   -1.5818    1.0000 </r>
       <r>   -1.5643    1.0000 </r>
       <r>   -1.5575    1.0000 </r>
       <r>   -1.5233    1.0000 </r>
       <r>   -1.4564    1.0000 </r>
       <r>   -1.4037    1.0000 </r>
       <r>   -1.3891    1.0000 </r>
       <r>   -1.3813    1.0000 </r>
       <r>   -1.3585    1.0000 </r>
       <r>   -1.1776    1.0000 </r>
       <r>   -0.9783    1.0000 </r>
       <r>   -0.8522    1.0000 </r>
       <r>   -0.0490    1.0000 </r>
       <r>    0.0354    1.0000 </r>
       <r>    0.1257    1.0000 </r>
       <r>    0.4242    1.0000 </r>
       <r>    0.5387    1.0000 </r>
       <r>    0.7734    1.0000 </r>
       <r>    0.7739    1.0000 </r>
       <r>    0.8562    1.0000 </r>
       <r>    0.8764    1.0000 </r>
       <r>    0.9700    1.0000 </r>
       <r>    0.9758    1.0000 </r>
       <r>    1.0249    1.0000 </r>
       <r>    1.0644    1.0000 </r>
       <r>    1.1561    1.0000 </r>
       <r>    1.1584    1.0000 </r>
       <r>    1.1687    1.0000 </r>
       <r>    1.1842    1.0000 </r>
       <r>    1.2210    1.0000 </r>
       <r>    1.4119    1.0000 </r>
       <r>    1.4154    1.0000 </r>
       <r>    1.4180    1.0000 </r>
       <r>    1.4517    1.0000 </r>
       <r>    1.5548    1.0000 </r>
       <r>    1.5973    1.0000 </r>
       <r>    1.6069    1.0000 </r>
       <r>    1.6539    1.0000 </r>
       <r>    1.6720    1.0000 </r>
       <r>    1.7569    1.0000 </r>
       <r>    1.8879    1.0000 </r>
       <r>    1.9044    1.0000 </r>
       <r>    2.0079    1.0000 </r>
       <r>    2.0359    1.0000 </r>
       <r>    2.0781    1.0000 </r>
       <r>    2.1368    1.0000 </r>
       <r>    2.1712    1.0000 </r>
       <r>    2.1748    1.0000 </r>
       <r>    3.5378    0.0000 </r>
       <r>    3.5728    0.0000 </r>
       <r>    3.6206    0.0000 </r>
       <r>    3.6626    0.0000 </r>
       <r>    5.1911    0.0000 </r>
       <r>    5.2877    0.0000 </r>
       <r>    6.1389    0.0000 </r>
       <r>    6.2634    0.0000 </r>
       <r>    7.9944    0.0000 </r>
       <r>    8.1255    0.0000 </r>
       <r>    8.1642    0.0000 </r>
       <r>    8.2271    0.0000 </r>
       <r>    8.4852    0.0000 </r>
       <r>    8.7114    0.0000 </r>
       <r>    8.8567    0.0000 </r>
       <r>    9.0095    0.0000 </r>
       <r>    9.2231    0.0000 </r>
       <r>    9.4000    0.0000 </r>
       <r>    9.5592    0.0000 </r>
       <r>    9.7748    0.0000 </r>
       <r>    9.9757    0.0000 </r>
       <r>   10.0648    0.0000 </r>
       <r>   10.0925    0.0000 </r>
       <r>   10.1672    0.0000 </r>
       <r>   10.2112    0.0000 </r>
       <r>   10.3770    0.0000 </r>
       <r>   10.4688    0.0000 </r>
       <r>   10.4918    0.0000 </r>
       <r>   10.5286    0.0000 </r>
       <r>   10.5844    0.0000 </r>
       <r>   10.6919    0.0000 </r>
       <r>   10.8902    0.0000 </r>
       <r>   10.9134    0.0000 </r>
       <r>   11.0673    0.0000 </r>
      </set>
      <set comment="kpoint 7">
       <r>  -31.4222    1.0000 </r>
       <r>  -31.4222    1.0000 </r>
       <r>  -30.6860    1.0000 </r>
       <r>  -30.6860    1.0000 </r>
       <r>  -30.6858    1.0000 </r>
       <r>  -30.6858    1.0000 </r>
       <r>  -15.0355    1.0000 </r>
       <r>  -15.0355    1.0000 </r>
       <r>  -14.9409    1.0000 </r>
       <r>  -14.9409    1.0000 </r>
       <r>  -14.6951    1.0000 </r>
       <r>  -14.6951    1.0000 </r>
       <r>  -14.0753    1.0000 </r>
       <r>  -14.0753    1.0000 </r>
       <r>  -13.9048    1.0000 </r>
       <r>  -13.9048    1.0000 </r>
       <r>  -13.7540    1.0000 </r>
       <r>  -13.7540    1.0000 </r>
       <r>  -13.7202    1.0000 </r>
       <r>  -13.7202    1.0000 </r>
       <r>  -13.4273    1.0000 </r>
       <r>  -13.4273    1.0000 </r>
       <r>  -13.1126    1.0000 </r>
       <r>  -13.1126    1.0000 </r>
       <r>  -13.0728    1.0000 </r>
       <r>  -13.0728    1.0000 </r>
       <r>  -12.6425    1.0000 </r>
       <r>  -12.6425    1.0000 </r>
       <r>  -12.6423    1.0000 </r>
       <r>  -12.6423    1.0000 </r>
       <r>  -12.5973    1.0000 </r>
       <r>  -12.5973    1.0000 </r>
       <r>  -12.5307    1.0000 </r>
       <r>  -12.5307    1.0000 </r>
       <r>  -12.2595    1.0000 </r>
       <r>  -12.2595    1.0000 </r>
       <r>  -12.2513    1.0000 </r>
       <r>  -12.2513    1.0000 </r>
       <r>   -2.5361    1.0000 </r>
       <r>   -2.5361    1.0000 </r>
       <r>   -2.4279    1.0000 </r>
       <r>   -2.4279    1.0000 </r>
       <r>   -1.8427    1.0000 </r>
       <r>   -1.8427    1.0000 </r>
       <r>   -1.8056    1.0000 </r>
       <r>   -1.8056    1.0000 </r>
       <r>   -1.6036    1.0000 </r>
       <r>   -1.6036    1.0000 </r>
       <r>   -1.4304    1.0000 </r>
       <r>   -1.4304    1.0000 </r>
       <r>   -1.4027    1.0000 </r>
       <r>   -1.4027    1.0000 </r>
       <r>   -1.3628    1.0000 </r>
       <r>   -1.3628    1.0000 </r>
       <r>   -1.1419    1.0000 </r>
       <r>   -1.1419    1.0000 </r>
       <r>   -1.0946    1.0000 </r>
       <r>   -1.0946    1.0000 </r>
       <r>   -0.9814    1.0000 </r>
       <r>   -0.9814    1.0000 </r>
       <r>   -0.8785    1.0000 </r>
       <r>   -0.8785    1.0000 </r>
       <r>   -0.8509    1.0000 </r>
       <r>   -0.8509    1.0000 </r>
       <r>   -0.6990    1.0000 </r>
       <r>   -0.6990    1.0000 </r>
       <r>   -0.6508    1.0000 </r>
       <r>   -0.6508    1.0000 </r>
       <r>   -0.5562    1.0000 </r>
       <r>   -0.5562    1.0000 </r>
       <r>   -0.5554    1.0000 </r>
       <r>   -0.5554    1.0000 </r>
       <r>   -0.4066    1.0000 </r>
       <r>   -0.4066    1.0000 </r>
       <r>   -0.0788    1.0000 </r>
       <r>   -0.0788    1.0000 </r>
       <r>   -0.0139    1.0000 </r>
       <r>   -0.0139    1.0000 </r>
       <r>    0.2652    1.0000 </r>
       <r>    0.2652    1.0000 </r>
       <r>    0.3546    1.0000 </r>
       <r>    0.3546    1.0000 </r>
       <r>    0.4046    1.0000 </r>
       <r>    0.4046    1.0000 </r>
       <r>    0.7515    1.0000 </r>
       <r>    0.7515    1.0000 </r>
       <r>    0.8654    1.0000 </r>
       <r>    0.8654    1.0000 </r>
       <r>    0.9777    1.0000 </r>
       <r>    0.9777    1.0000 </r>
       <r>    1.2121    1.0000 </r>
       <r>    1.2121    1.0000 </r>
       <r>    1.4252    1.0000 </r>
       <r>    1.4252    1.0000 </r>
       <r>    1.5716    1.0000 </r>
       <r>    1.5716    1.0000 </r>
       <r>    1.5765    1.0000 </r>
       <r>    1.5765    1.0000 </r>
       <r>    1.6732    1.0000 </r>
       <r>    1.6732    1.0000 </r>
       <r>    1.6736    1.0000 </r>
       <r>    1.6736    1.0000 </r>
       <r>    1.8080    1.0000 </r>
       <r>    1.8080    1.0000 </r>
       <r>    1.8371    1.0000 </r>
       <r>    1.8371    1.0000 </r>
       <r>    2.0547    1.0000 </r>
       <r>    2.0547    1.0000 </r>
       <r>    2.5004    0.0202 </r>
       <r>    2.5004    0.0202 </r>
       <r>    4.7415    0.0000 </r>
       <r>    4.7415    0.0000 </r>
       <r>    6.4185    0.0000 </r>
       <r>    6.4185    0.0000 </r>
       <r>    7.0506    0.0000 </r>
       <r>    7.0506    0.0000 </r>
       <r>    7.8059    0.0000 </r>
       <r>    7.8059    0.0000 </r>
       <r>    8.5640    0.0000 </r>
       <r>    8.5640    0.0000 </r>
       <r>    8.9798    0.0000 </r>
       <r>    8.9798    0.0000 </r>
       <r>    9.1515    0.0000 </r>
       <r>    9.1515    0.0000 </r>
       <r>    9.1677    0.0000 </r>
       <r>    9.1677    0.0000 </r>
       <r>    9.3697    0.0000 </r>
       <r>    9.3697    0.0000 </r>
       <r>    9.4882    0.0000 </r>
       <r>    9.4882    0.0000 </r>
       <r>    9.6753    0.0000 </r>
       <r>    9.6753    0.0000 </r>
       <r>   10.2700    0.0000 </r>
       <r>   10.2700    0.0000 </r>
       <r>   10.2771    0.0000 </r>
       <r>   10.2771    0.0000 </r>
       <r>   10.7093    0.0000 </r>
       <r>   10.7221    0.0000 </r>
       <r>   10.8421    0.0000 </r>
       <r>   10.9001    0.0000 </r>
      </set>
      <set comment="kpoint 8">
       <r>  -31.4178    1.0000 </r>
       <r>  -31.4178    1.0000 </r>
       <r>  -30.6814    1.0000 </r>
       <r>  -30.6814    1.0000 </r>
       <r>  -30.6812    1.0000 </r>
       <r>  -30.6812    1.0000 </r>
       <r>  -14.9253    1.0000 </r>
       <r>  -14.9253    1.0000 </r>
       <r>  -14.8166    1.0000 </r>
       <r>  -14.8166    1.0000 </r>
       <r>  -14.6110    1.0000 </r>
       <r>  -14.6110    1.0000 </r>
       <r>  -14.0757    1.0000 </r>
       <r>  -14.0757    1.0000 </r>
       <r>  -14.0694    1.0000 </r>
       <r>  -14.0694    1.0000 </r>
       <r>  -13.8345    1.0000 </r>
       <r>  -13.8345    1.0000 </r>
       <r>  -13.8241    1.0000 </r>
       <r>  -13.8241    1.0000 </r>
       <r>  -13.3560    1.0000 </r>
       <r>  -13.3560    1.0000 </r>
       <r>  -13.1518    1.0000 </r>
       <r>  -13.1518    1.0000 </r>
       <r>  -13.0738    1.0000 </r>
       <r>  -13.0738    1.0000 </r>
       <r>  -12.6428    1.0000 </r>
       <r>  -12.6428    1.0000 </r>
       <r>  -12.6117    1.0000 </r>
       <r>  -12.6117    1.0000 </r>
       <r>  -12.5524    1.0000 </r>
       <r>  -12.5524    1.0000 </r>
       <r>  -12.5045    1.0000 </r>
       <r>  -12.5045    1.0000 </r>
       <r>  -12.3017    1.0000 </r>
       <r>  -12.3017    1.0000 </r>
       <r>  -12.2877    1.0000 </r>
       <r>  -12.2877    1.0000 </r>
       <r>   -2.5916    1.0000 </r>
       <r>   -2.5916    1.0000 </r>
       <r>   -2.4715    1.0000 </r>
       <r>   -2.4715    1.0000 </r>
       <r>   -1.9948    1.0000 </r>
       <r>   -1.9948    1.0000 </r>
       <r>   -1.8675    1.0000 </r>
       <r>   -1.8675    1.0000 </r>
       <r>   -1.8506    1.0000 </r>
       <r>   -1.8506    1.0000 </r>
       <r>   -1.7845    1.0000 </r>
       <r>   -1.7845    1.0000 </r>
       <r>   -1.7809    1.0000 </r>
       <r>   -1.7809    1.0000 </r>
       <r>   -1.6424    1.0000 </r>
       <r>   -1.6424    1.0000 </r>
       <r>   -1.6001    1.0000 </r>
       <r>   -1.6001    1.0000 </r>
       <r>   -1.4796    1.0000 </r>
       <r>   -1.4796    1.0000 </r>
       <r>   -1.3686    1.0000 </r>
       <r>   -1.3686    1.0000 </r>
       <r>   -1.2934    1.0000 </r>
       <r>   -1.2934    1.0000 </r>
       <r>   -1.2460    1.0000 </r>
       <r>   -1.2460    1.0000 </r>
       <r>   -1.1641    1.0000 </r>
       <r>   -1.1641    1.0000 </r>
       <r>   -1.1064    1.0000 </r>
       <r>   -1.1064    1.0000 </r>
       <r>   -0.9455    1.0000 </r>
       <r>   -0.9455    1.0000 </r>
       <r>   -0.1018    1.0000 </r>
       <r>   -0.1018    1.0000 </r>
       <r>   -0.1004    1.0000 </r>
       <r>   -0.1004    1.0000 </r>
       <r>    0.2901    1.0000 </r>
       <r>    0.2901    1.0000 </r>
       <r>    0.4813    1.0000 </r>
       <r>    0.4813    1.0000 </r>
       <r>    0.7273    1.0000 </r>
       <r>    0.7273    1.0000 </r>
       <r>    0.7777    1.0000 </r>
       <r>    0.7777    1.0000 </r>
       <r>    0.8503    1.0000 </r>
       <r>    0.8503    1.0000 </r>
       <r>    0.9942    1.0000 </r>
       <r>    0.9942    1.0000 </r>
       <r>    1.0279    1.0000 </r>
       <r>    1.0279    1.0000 </r>
       <r>    1.1164    1.0000 </r>
       <r>    1.1164    1.0000 </r>
       <r>    1.2715    1.0000 </r>
       <r>    1.2715    1.0000 </r>
       <r>    1.3406    1.0000 </r>
       <r>    1.3406    1.0000 </r>
       <r>    1.4198    1.0000 </r>
       <r>    1.4198    1.0000 </r>
       <r>    1.5271    1.0000 </r>
       <r>    1.5271    1.0000 </r>
       <r>    1.6305    1.0000 </r>
       <r>    1.6305    1.0000 </r>
       <r>    1.8198    1.0000 </r>
       <r>    1.8198    1.0000 </r>
       <r>    2.1250    1.0000 </r>
       <r>    2.1250    1.0000 </r>
       <r>    2.1480    1.0000 </r>
       <r>    2.1480    1.0000 </r>
       <r>    2.8065    0.0000 </r>
       <r>    2.8065    0.0000 </r>
       <r>    2.9659    0.0000 </r>
       <r>    2.9659    0.0000 </r>
       <r>    4.8700    0.0000 </r>
       <r>    4.8700    0.0000 </r>
       <r>    6.4869    0.0000 </r>
       <r>    6.4869    0.0000 </r>
       <r>    7.6351    0.0000 </r>
       <r>    7.6351    0.0000 </r>
       <r>    8.1977    0.0000 </r>
       <r>    8.1977    0.0000 </r>
       <r>    8.6213    0.0000 </r>
       <r>    8.6213    0.0000 </r>
       <r>    8.7770    0.0000 </r>
       <r>    8.7770    0.0000 </r>
       <r>    8.8016    0.0000 </r>
       <r>    8.8016    0.0000 </r>
       <r>    9.5643    0.0000 </r>
       <r>    9.5643    0.0000 </r>
       <r>    9.5754    0.0000 </r>
       <r>    9.5754    0.0000 </r>
       <r>    9.8460    0.0000 </r>
       <r>    9.8460    0.0000 </r>
       <r>    9.9288    0.0000 </r>
       <r>    9.9288    0.0000 </r>
       <r>   10.2040    0.0000 </r>
       <r>   10.2040    0.0000 </r>
       <r>   10.3159    0.0000 </r>
       <r>   10.3159    0.0000 </r>
       <r>   10.6911    0.0000 </r>
       <r>   10.6918    0.0000 </r>
       <r>   10.9333    0.0000 </r>
       <r>   10.9634    0.0000 </r>
      </set>
      <set comment="kpoint 9">
       <r>  -31.4107    1.0000 </r>
       <r>  -31.4107    1.0000 </r>
       <r>  -30.6740    1.0000 </r>
       <r>  -30.6740    1.0000 </r>
       <r>  -30.6738    1.0000 </r>
       <r>  -30.6738    1.0000 </r>
       <r>  -14.6948    1.0000 </r>
       <r>  -14.6948    1.0000 </r>
       <r>  -14.5180    1.0000 </r>
       <r>  -14.5180    1.0000 </r>
       <r>  -14.4686    1.0000 </r>
       <r>  -14.4686    1.0000 </r>
       <r>  -14.2553    1.0000 </r>
       <r>  -14.2553    1.0000 </r>
       <r>  -14.2205    1.0000 </r>
       <r>  -14.2205    1.0000 </r>
       <r>  -14.0517    1.0000 </r>
       <r>  -14.0517    1.0000 </r>
       <r>  -13.9017    1.0000 </r>
       <r>  -13.9017    1.0000 </r>
       <r>  -13.3129    1.0000 </r>
       <r>  -13.3129    1.0000 </r>
       <r>  -13.2095    1.0000 </r>
       <r>  -13.2095    1.0000 </r>
       <r>  -13.0632    1.0000 </r>
       <r>  -13.0632    1.0000 </r>
       <r>  -12.6496    1.0000 </r>
       <r>  -12.6496    1.0000 </r>
       <r>  -12.5453    1.0000 </r>
       <r>  -12.5453    1.0000 </r>
       <r>  -12.4977    1.0000 </r>
       <r>  -12.4977    1.0000 </r>
       <r>  -12.4801    1.0000 </r>
       <r>  -12.4801    1.0000 </r>
       <r>  -12.3641    1.0000 </r>
       <r>  -12.3641    1.0000 </r>
       <r>  -12.3545    1.0000 </r>
       <r>  -12.3545    1.0000 </r>
       <r>   -3.0510    1.0000 </r>
       <r>   -3.0510    1.0000 </r>
       <r>   -2.8469    1.0000 </r>
       <r>   -2.8469    1.0000 </r>
       <r>   -2.8091    1.0000 </r>
       <r>   -2.8091    1.0000 </r>
       <r>   -2.3204    1.0000 </r>
       <r>   -2.3204    1.0000 </r>
       <r>   -2.2734    1.0000 </r>
       <r>   -2.2734    1.0000 </r>
       <r>   -2.1430    1.0000 </r>
       <r>   -2.1430    1.0000 </r>
       <r>   -2.1118    1.0000 </r>
       <r>   -2.1118    1.0000 </r>
       <r>   -1.7418    1.0000 </r>
       <r>   -1.7418    1.0000 </r>
       <r>   -1.6936    1.0000 </r>
       <r>   -1.6936    1.0000 </r>
       <r>   -1.6805    1.0000 </r>
       <r>   -1.6805    1.0000 </r>
       <r>   -1.5438    1.0000 </r>
       <r>   -1.5438    1.0000 </r>
       <r>   -1.4838    1.0000 </r>
       <r>   -1.4838    1.0000 </r>
       <r>   -1.4461    1.0000 </r>
       <r>   -1.4461    1.0000 </r>
       <r>   -1.4302    1.0000 </r>
       <r>   -1.4302    1.0000 </r>
       <r>   -1.3745    1.0000 </r>
       <r>   -1.3745    1.0000 </r>
       <r>   -0.9487    1.0000 </r>
       <r>   -0.9487    1.0000 </r>
       <r>    0.0479    1.0000 </r>
       <r>    0.0479    1.0000 </r>
       <r>    0.3203    1.0000 </r>
       <r>    0.3203    1.0000 </r>
       <r>    0.6560    1.0000 </r>
       <r>    0.6560    1.0000 </r>
       <r>    0.8166    1.0000 </r>
       <r>    0.8166    1.0000 </r>
       <r>    0.8965    1.0000 </r>
       <r>    0.8965    1.0000 </r>
       <r>    1.0095    1.0000 </r>
       <r>    1.0095    1.0000 </r>
       <r>    1.0500    1.0000 </r>
       <r>    1.0500    1.0000 </r>
       <r>    1.1557    1.0000 </r>
       <r>    1.1557    1.0000 </r>
       <r>    1.2340    1.0000 </r>
       <r>    1.2340    1.0000 </r>
       <r>    1.2909    1.0000 </r>
       <r>    1.2909    1.0000 </r>
       <r>    1.3868    1.0000 </r>
       <r>    1.3868    1.0000 </r>
       <r>    1.4319    1.0000 </r>
       <r>    1.4319    1.0000 </r>
       <r>    1.5219    1.0000 </r>
       <r>    1.5219    1.0000 </r>
       <r>    1.6712    1.0000 </r>
       <r>    1.6712    1.0000 </r>
       <r>    1.9216    1.0000 </r>
       <r>    1.9216    1.0000 </r>
       <r>    1.9926    1.0000 </r>
       <r>    1.9926    1.0000 </r>
       <r>    2.1522    1.0000 </r>
       <r>    2.1522    1.0000 </r>
       <r>    2.1878    1.0000 </r>
       <r>    2.1878    1.0000 </r>
       <r>    3.5765    0.0000 </r>
       <r>    3.5765    0.0000 </r>
       <r>    3.6522    0.0000 </r>
       <r>    3.6522    0.0000 </r>
       <r>    5.3388    0.0000 </r>
       <r>    5.3388    0.0000 </r>
       <r>    6.6552    0.0000 </r>
       <r>    6.6552    0.0000 </r>
       <r>    8.3746    0.0000 </r>
       <r>    8.3746    0.0000 </r>
       <r>    8.4039    0.0000 </r>
       <r>    8.4039    0.0000 </r>
       <r>    8.4782    0.0000 </r>
       <r>    8.4782    0.0000 </r>
       <r>    8.7531    0.0000 </r>
       <r>    8.7531    0.0000 </r>
       <r>    9.1612    0.0000 </r>
       <r>    9.1612    0.0000 </r>
       <r>    9.8998    0.0000 </r>
       <r>    9.8998    0.0000 </r>
       <r>   10.0641    0.0000 </r>
       <r>   10.0641    0.0000 </r>
       <r>   10.2753    0.0000 </r>
       <r>   10.2753    0.0000 </r>
       <r>   10.3606    0.0000 </r>
       <r>   10.3606    0.0000 </r>
       <r>   10.7700    0.0000 </r>
       <r>   10.7700    0.0000 </r>
       <r>   10.9324    0.0000 </r>
       <r>   10.9328    0.0000 </r>
       <r>   10.9345    0.0000 </r>
       <r>   10.9376    0.0000 </r>
       <r>   11.0566    0.0000 </r>
       <r>   11.2296    0.0000 </r>
      </set>
     </set>
     <set comment="spin 2">
      <set comment="kpoint 1">
       <r>  -31.4251    1.0000 </r>
       <r>  -31.4251    1.0000 </r>
       <r>  -30.6962    1.0000 </r>
       <r>  -30.6961    1.0000 </r>
       <r>  -30.6824    1.0000 </r>
       <r>  -30.6824    1.0000 </r>
       <r>  -14.7016    1.0000 </r>
       <r>  -14.6306    1.0000 </r>
       <r>  -14.6030    1.0000 </r>
       <r>  -14.5217    1.0000 </r>
       <r>  -14.4938    1.0000 </r>
       <r>  -14.0580    1.0000 </r>
       <r>  -14.0409    1.0000 </r>
       <r>  -13.9282    1.0000 </r>
       <r>  -13.8684    1.0000 </r>
       <r>  -13.8478    1.0000 </r>
       <r>  -13.6667    1.0000 </r>
       <r>  -13.5301    1.0000 </r>
       <r>  -13.5234    1.0000 </r>
       <r>  -13.5119    1.0000 </r>
       <r>  -13.4309    1.0000 </r>
       <r>  -13.4309    1.0000 </r>
       <r>  -13.1458    1.0000 </r>
       <r>  -13.1083    1.0000 </r>
       <r>  -13.0843    1.0000 </r>
       <r>  -13.0110    1.0000 </r>
       <r>  -12.6655    1.0000 </r>
       <r>  -12.6651    1.0000 </r>
       <r>  -12.6610    1.0000 </r>
       <r>  -12.6408    1.0000 </r>
       <r>  -12.6299    1.0000 </r>
       <r>  -12.6295    1.0000 </r>
       <r>  -12.5813    1.0000 </r>
       <r>  -12.4941    1.0000 </r>
       <r>  -12.3077    1.0000 </r>
       <r>  -12.2993    1.0000 </r>
       <r>  -12.2883    1.0000 </r>
       <r>  -12.2746    1.0000 </r>
       <r>   -2.4379    1.0000 </r>
       <r>   -2.3840    1.0000 </r>
       <r>   -2.2595    1.0000 </r>
       <r>   -2.2111    1.0000 </r>
       <r>   -1.9069    1.0000 </r>
       <r>   -1.7748    1.0000 </r>
       <r>   -1.4446    1.0000 </r>
       <r>   -1.4421    1.0000 </r>
       <r>   -1.4416    1.0000 </r>
       <r>   -1.4333    1.0000 </r>
       <r>   -1.4229    1.0000 </r>
       <r>   -1.4193    1.0000 </r>
       <r>   -1.4192    1.0000 </r>
       <r>   -1.4120    1.0000 </r>
       <r>   -1.3350    1.0000 </r>
       <r>   -1.0817    1.0000 </r>
       <r>   -1.0616    1.0000 </r>
       <r>   -1.0492    1.0000 </r>
       <r>   -0.9981    1.0000 </r>
       <r>   -0.9872    1.0000 </r>
       <r>   -0.8258    1.0000 </r>
       <r>   -0.7940    1.0000 </r>
       <r>   -0.7847    1.0000 </r>
       <r>   -0.7332    1.0000 </r>
       <r>   -0.6971    1.0000 </r>
       <r>   -0.6757    1.0000 </r>
       <r>   -0.5418    1.0000 </r>
       <r>   -0.5241    1.0000 </r>
[...]
       <r>     4.4475     1.4355   110.4993 </r>
       <r>     4.6039     1.8476   110.7882 </r>
       <r>     4.7603     1.1650   110.9704 </r>
       <r>     4.9167     1.3487   111.1814 </r>
       <r>     5.0731     0.4031   111.2444 </r>
       <r>     5.2295     1.7979   111.5256 </r>
       <r>     5.3859     2.9129   111.9812 </r>
       <r>     5.5423     0.3505   112.0360 </r>
       <r>     5.6987     0.3760   112.0948 </r>
       <r>     5.8551     1.9743   112.4036 </r>
       <r>     6.0115     1.4608   112.6321 </r>
       <r>     6.1679     3.9916   113.2563 </r>
       <r>     6.3243     1.5059   113.4919 </r>
       <r>     6.4807     1.2167   113.6822 </r>
       <r>     6.6371     1.1433   113.8610 </r>
       <r>     6.7935     0.8888   114.0000 </r>
       <r>     6.9499     0.0015   114.0002 </r>
       <r>     7.1063     0.6025   114.0944 </r>
       <r>     7.2627     0.6358   114.1939 </r>
       <r>     7.4191     0.2663   114.2355 </r>
       <r>     7.5755     0.9519   114.3844 </r>
       <r>     7.7319     3.7446   114.9701 </r>
       <r>     7.8883     3.0458   115.4464 </r>
       <r>     8.0447     4.2452   116.1104 </r>
       <r>     8.2011     7.0160   117.2077 </r>
       <r>     8.3575     8.1888   118.4884 </r>
       <r>     8.5139     6.2282   119.4625 </r>
       <r>     8.6703     6.0983   120.4163 </r>
       <r>     8.8267     6.4058   121.4182 </r>
       <r>     8.9831     5.9386   122.3470 </r>
       <r>     9.1395     8.1626   123.6236 </r>
       <r>     9.2959     8.5035   124.9536 </r>
       <r>     9.4523     4.9324   125.7250 </r>
       <r>     9.6087     7.1969   126.8506 </r>
       <r>     9.7651     4.7498   127.5935 </r>
       <r>     9.9215     9.4774   129.0757 </r>
       <r>    10.0779    10.5226   130.7215 </r>
       <r>    10.2343     9.9597   132.2792 </r>
       <r>    10.3907    12.8419   134.2877 </r>
       <r>    10.5471    11.1491   136.0314 </r>
       <r>    10.7035     9.0965   137.4541 </r>
       <r>    10.8599     5.1299   138.2564 </r>
       <r>    11.0163     8.2162   139.5414 </r>
       <r>    11.1727     2.3249   139.9050 </r>
       <r>    11.3291     0.6056   139.9998 </r>
       <r>    11.4855     0.0016   140.0000 </r>
       <r>    11.6419     0.0000   140.0000 </r>
       <r>    11.7983     0.0000   140.0000 </r>
       <r>    11.9547     0.0000   140.0000 </r>
       <r>    12.1111     0.0000   140.0000 </r>
       <r>    12.2675     0.0000   140.0000 </r>
       <r>    12.4239     0.0000   140.0000 </r>
       <r>    12.5803     0.0000   140.0000 </r>
       <r>    12.7367     0.0000   140.0000 </r>
       <r>    12.8931     0.0000   140.0000 </r>
       <r>    13.0495     0.0000   140.0000 </r>
       <r>    13.2059     0.0000   140.0000 </r>
       <r>    13.3623     0.0000   140.0000 </r>
      </set>
      <set comment="spin 2">
       <r>   -33.5578     0.0000     0.0000 </r>
       <r>   -33.4014     0.0000     0.0000 </r>
       <r>   -33.2450     0.0000     0.0000 </r>
       <r>   -33.0886     0.0000     0.0000 </r>
       <r>   -32.9322     0.0000     0.0000 </r>
       <r>   -32.7758     0.0000     0.0000 </r>
       <r>   -32.6194     0.0000     0.0000 </r>
       <r>   -32.4630     0.0000     0.0000 </r>
       <r>   -32.3066     0.0000     0.0000 </r>
       <r>   -32.1502     0.0000     0.0000 </r>
       <r>   -31.9938     0.0000     0.0000 </r>
       <r>   -31.8374     0.0000     0.0000 </r>
       <r>   -31.6810     0.0000     0.0000 </r>
       <r>   -31.5246     0.0186     0.0029 </r>
       <r>   -31.3682    11.7565     1.8416 </r>
       <r>   -31.2118     1.0126     2.0000 </r>
       <r>   -31.0554     0.0000     2.0000 </r>
       <r>   -30.8990     0.0000     2.0000 </r>
       <r>   -30.7426     1.2107     2.1894 </r>
       <r>   -30.5862    24.2700     5.9852 </r>
       <r>   -30.4298     0.0947     6.0000 </r>
       <r>   -30.2734     0.0000     6.0000 </r>
       <r>   -30.1170     0.0000     6.0000 </r>
       <r>   -29.9606     0.0000     6.0000 </r>
       <r>   -29.8042     0.0000     6.0000 </r>
       <r>   -29.6478     0.0000     6.0000 </r>
       <r>   -29.4914     0.0000     6.0000 </r>
       <r>   -29.3350     0.0000     6.0000 </r>
       <r>   -29.1786     0.0000     6.0000 </r>
       <r>   -29.0222     0.0000     6.0000 </r>
       <r>   -28.8658     0.0000     6.0000 </r>
       <r>   -28.7094     0.0000     6.0000 </r>
       <r>   -28.5530     0.0000     6.0000 </r>
       <r>   -28.3966     0.0000     6.0000 </r>
       <r>   -28.2402     0.0000     6.0000 </r>
       <r>   -28.0838     0.0000     6.0000 </r>
       <r>   -27.9274     0.0000     6.0000 </r>
       <r>   -27.7710     0.0000     6.0000 </r>
       <r>   -27.6146     0.0000     6.0000 </r>
       <r>   -27.4582     0.0000     6.0000 </r>
       <r>   -27.3018     0.0000     6.0000 </r>
       <r>   -27.1454     0.0000     6.0000 </r>
       <r>   -26.9890     0.0000     6.0000 </r>
       <r>   -26.8326     0.0000     6.0000 </r>
       <r>   -26.6762     0.0000     6.0000 </r>
       <r>   -26.5198     0.0000     6.0000 </r>
       <r>   -26.3634     0.0000     6.0000 </r>
       <r>   -26.2070     0.0000     6.0000 </r>
       <r>   -26.0506     0.0000     6.0000 </r>
       <r>   -25.8942     0.0000     6.0000 </r>
       <r>   -25.7378     0.0000     6.0000 </r>
       <r>   -25.5814     0.0000     6.0000 </r>
       <r>   -25.4250     0.0000     6.0000 </r>
       <r>   -25.2686     0.0000     6.0000 </r>
       <r>   -25.1122     0.0000     6.0000 </r>
       <r>   -24.9558     0.0000     6.0000 </r>
       <r>   -24.7994     0.0000     6.0000 </r>
       <r>   -24.6430     0.0000     6.0000 </r>
       <r>   -24.4866     0.0000     6.0000 </r>
       <r>   -24.3302     0.0000     6.0000 </r>
       <r>   -24.1738     0.0000     6.0000 </r>
       <r>   -24.0174     0.0000     6.0000 </r>
       <r>   -23.8610     0.0000     6.0000 </r>
       <r>   -23.7046     0.0000     6.0000 </r>
       <r>   -23.5482     0.0000     6.0000 </r>
       <r>   -23.3918     0.0000     6.0000 </r>
       <r>   -23.2354     0.0000     6.0000 </r>
       <r>   -23.0790     0.0000     6.0000 </r>
       <r>   -22.9226     0.0000     6.0000 </r>
       <r>   -22.7662     0.0000     6.0000 </r>
       <r>   -22.6098     0.0000     6.0000 </r>
       <r>   -22.4534     0.0000     6.0000 </r>
       <r>   -22.2970     0.0000     6.0000 </r>
       <r>   -22.1406     0.0000     6.0000 </r>
       <r>   -21.9842     0.0000     6.0000 </r>
       <r>   -21.8278     0.0000     6.0000 </r>
       <r>   -21.6714     0.0000     6.0000 </r>
       <r>   -21.5150     0.0000     6.0000 </r>
       <r>   -21.3586     0.0000     6.0000 </r>
       <r>   -21.2022     0.0000     6.0000 </r>
       <r>   -21.0458     0.0000     6.0000 </r>
       <r>   -20.8894     0.0000     6.0000 </r>
       <r>   -20.7330     0.0000     6.0000 </r>
       <r>   -20.5766     0.0000     6.0000 </r>
       <r>   -20.4202     0.0000     6.0000 </r>
       <r>   -20.2638     0.0000     6.0000 </r>
       <r>   -20.1074     0.0000     6.0000 </r>
       <r>   -19.9510     0.0000     6.0000 </r>
       <r>   -19.7946     0.0000     6.0000 </r>
       <r>   -19.6382     0.0000     6.0000 </r>
       <r>   -19.4818     0.0000     6.0000 </r>
       <r>   -19.3254     0.0000     6.0000 </r>
       <r>   -19.1690     0.0000     6.0000 </r>
       <r>   -19.0126     0.0000     6.0000 </r>
       <r>   -18.8562     0.0000     6.0000 </r>
       <r>   -18.6998     0.0000     6.0000 </r>
       <r>   -18.5434     0.0000     6.0000 </r>
       <r>   -18.3870     0.0000     6.0000 </r>
       <r>   -18.2306     0.0000     6.0000 </r>
       <r>   -18.0742     0.0000     6.0000 </r>
       <r>   -17.9178     0.0000     6.0000 </r>
       <r>   -17.7614     0.0000     6.0000 </r>
       <r>   -17.6050     0.0000     6.0000 </r>
       <r>   -17.4486     0.0000     6.0000 </r>
       <r>   -17.2922     0.0000     6.0000 </r>
       <r>   -17.1358     0.0000     6.0000 </r>
       <r>   -16.9794     0.0000     6.0000 </r>
       <r>   -16.8230     0.0000     6.0000 </r>
       <r>   -16.6666     0.0000     6.0000 </r>
       <r>   -16.5102     0.0000     6.0000 </r>
       <r>   -16.3538     0.0000     6.0000 </r>
       <r>   -16.1974     0.0000     6.0000 </r>
       <r>   -16.0410     0.0000     6.0000 </r>
       <r>   -15.8846     0.0000     6.0000 </r>
       <r>   -15.7282     0.0000     6.0000 </r>
       <r>   -15.5718     0.0000     6.0000 </r>
       <r>   -15.4154     0.0000     6.0000 </r>
       <r>   -15.2590     0.0000     6.0000 </r>
       <r>   -15.1026     0.0000     6.0000 </r>
       <r>   -14.9462     0.0048     6.0008 </r>
       <r>   -14.7898     1.3207     6.2073 </r>
       <r>   -14.6334     8.0906     7.4727 </r>
       <r>   -14.4770    10.8177     9.1646 </r>
       <r>   -14.3205     9.2771    10.6155 </r>
       <r>   -14.1641     6.5587    11.6413 </r>
       <r>   -14.0077     7.8250    12.8651 </r>
       <r>   -13.8513    13.1897    14.9280 </r>
       <r>   -13.6949    10.5810    16.5829 </r>
       <r>   -13.5385    14.2434    18.8106 </r>
       <r>   -13.3821    12.7969    20.8120 </r>
       <r>   -13.2257     7.0318    21.9118 </r>
       <r>   -13.0693    19.0821    24.8962 </r>
       <r>   -12.9129     7.0554    25.9997 </r>
       <r>   -12.7565     0.3969    26.0618 </r>
       <r>   -12.6001    23.6592    29.7621 </r>
       <r>   -12.4437    24.4563    33.5871 </r>
       <r>   -12.2873    19.9706    36.7105 </r>
       <r>   -12.1309     8.2291    37.9975 </r>
       <r>   -11.9745     0.0160    38.0000 </r>
       <r>   -11.8181     0.0000    38.0000 </r>
       <r>   -11.6617     0.0000    38.0000 </r>
       <r>   -11.5053     0.0000    38.0000 </r>
       <r>   -11.3489     0.0000    38.0000 </r>
       <r>   -11.1925     0.0000    38.0000 </r>
       <r>   -11.0361     0.0000    38.0000 </r>
       <r>   -10.8797     0.0000    38.0000 </r>
       <r>   -10.7233     0.0000    38.0000 </r>
       <r>   -10.5669     0.0000    38.0000 </r>
       <r>   -10.4105     0.0000    38.0000 </r>
       <r>   -10.2541     0.0000    38.0000 </r>
       <r>   -10.0977     0.0000    38.0000 </r>
       <r>    -9.9413     0.0000    38.0000 </r>
       <r>    -9.7849     0.0000    38.0000 </r>
       <r>    -9.6285     0.0000    38.0000 </r>
       <r>    -9.4721     0.0000    38.0000 </r>
       <r>    -9.3157     0.0000    38.0000 </r>
       <r>    -9.1593     0.0000    38.0000 </r>
       <r>    -9.0029     0.0000    38.0000 </r>
       <r>    -8.8465     0.0000    38.0000 </r>
       <r>    -8.6901     0.0000    38.0000 </r>
       <r>    -8.5337     0.0000    38.0000 </r>
       <r>    -8.3773     0.0000    38.0000 </r>
       <r>    -8.2209     0.0000    38.0000 </r>
       <r>    -8.0645     0.0000    38.0000 </r>
       <r>    -7.9081     0.0000    38.0000 </r>
       <r>    -7.7517     0.0000    38.0000 </r>
       <r>    -7.5953     0.0000    38.0000 </r>
       <r>    -7.4389     0.0000    38.0000 </r>
       <r>    -7.2825     0.0000    38.0000 </r>
       <r>    -7.1261     0.0000    38.0000 </r>
       <r>    -6.9697     0.0000    38.0000 </r>
       <r>    -6.8133     0.0000    38.0000 </r>
       <r>    -6.6569     0.0000    38.0000 </r>
       <r>    -6.5005     0.0000    38.0000 </r>
       <r>    -6.3441     0.0000    38.0000 </r>
       <r>    -6.1877     0.0000    38.0000 </r>
       <r>    -6.0313     0.0000    38.0000 </r>
       <r>    -5.8749     0.0000    38.0000 </r>
       <r>    -5.7185     0.0000    38.0000 </r>
       <r>    -5.5621     0.0000    38.0000 </r>
       <r>    -5.4057     0.0000    38.0000 </r>
       <r>    -5.2493     0.0000    38.0000 </r>
       <r>    -5.0929     0.0000    38.0000 </r>
       <r>    -4.9365     0.0000    38.0000 </r>
       <r>    -4.7801     0.0000    38.0000 </r>
       <r>    -4.6237     0.0000    38.0000 </r>
       <r>    -4.4673     0.0000    38.0000 </r>
       <r>    -4.3109     0.0000    38.0000 </r>
       <r>    -4.1545     0.0000    38.0000 </r>
       <r>    -3.9981     0.0000    38.0000 </r>
       <r>    -3.8417     0.0000    38.0000 </r>
       <r>    -3.6853     0.0000    38.0000 </r>
       <r>    -3.5289     0.0000    38.0000 </r>
       <r>    -3.3725     0.0000    38.0000 </r>
       <r>    -3.2161     0.0000    38.0000 </r>
       <r>    -3.0597     0.0000    38.0000 </r>
       <r>    -2.9033     0.6264    38.0980 </r>
       <r>    -2.7469     4.7770    38.8451 </r>
       <r>    -2.5905     4.6880    39.5783 </r>
       <r>    -2.4341     7.7206    40.7858 </r>
       <r>    -2.2777     8.4438    42.1064 </r>
       <r>    -2.1213    10.6990    43.7798 </r>
       <r>    -1.9649     8.5325    45.1143 </r>
       <r>    -1.8085    10.5342    46.7618 </r>
       <r>    -1.6521    13.6787    48.9012 </r>
       <r>    -1.4957    21.2137    52.2190 </r>
       <r>    -1.3393    31.8322    57.1976 </r>
       <r>    -1.1829    29.1008    61.7490 </r>
       <r>    -1.0265    14.7190    64.0510 </r>
       <r>    -0.8701    11.9093    65.9136 </r>
       <r>    -0.7137    14.0092    68.1047 </r>
       <r>    -0.5573     4.8864    68.8689 </r>
       <r>    -0.4009     4.8232    69.6233 </r>
       <r>    -0.2445     3.6370    70.1921 </r>
       <r>    -0.0881     4.0156    70.8202 </r>
       <r>     0.0683     3.2191    71.3236 </r>
       <r>     0.2247     8.8054    72.7008 </r>
       <r>     0.3811     6.6869    73.7466 </r>
       <r>     0.5375     8.7705    75.1183 </r>
       <r>     0.6939     6.0864    76.0702 </r>
       <r>     0.8503    11.6574    77.8935 </r>
       <r>     1.0067    15.3158    80.2889 </r>
       <r>     1.1631    20.4016    83.4797 </r>
       <r>     1.3195    22.6062    87.0153 </r>
       <r>     1.4759    18.7753    89.9518 </r>
       <r>     1.6323    17.8676    92.7463 </r>
       <r>     1.7887    19.4690    95.7912 </r>
       <r>     1.9451    20.9043    99.0607 </r>
       <r>     2.1015    12.0091   100.9389 </r>
       <r>     2.2579     5.5689   101.8099 </r>
       <r>     2.4143    10.6159   103.4702 </r>
       <r>     2.5707    10.1145   105.0521 </r>
       <r>     2.7271     6.9839   106.1444 </r>
       <r>     2.8835     5.3658   106.9836 </r>
       <r>     3.0399     2.6196   107.3933 </r>
       <r>     3.1963     3.1634   107.8881 </r>
       <r>     3.3527     2.3487   108.2554 </r>
       <r>     3.5091     1.1222   108.4310 </r>
       <r>     3.6655     2.9486   108.8921 </r>
       <r>     3.8219     6.7540   109.9484 </r>
       <r>     3.9783     0.7763   110.0698 </r>
       <r>     4.1347     0.1969   110.1006 </r>
       <r>     4.2911     0.6197   110.1976 </r>
       <r>     4.4475     0.6203   110.2946 </r>
       <r>     4.6039     1.1619   110.4763 </r>
       <r>     4.7603     1.6792   110.7389 </r>
       <r>     4.9167     1.6523   110.9974 </r>
       <r>     5.0731     1.2597   111.1944 </r>
       <r>     5.2295     0.0360   111.2000 </r>
       <r>     5.3859     0.2446   111.2383 </r>
       <r>     5.5423     2.0586   111.5602 </r>
       <r>     5.6987     3.1933   112.0597 </r>
       <r>     5.8551     1.6079   112.3111 </r>
       <r>     6.0115     1.5860   112.5592 </r>
       <r>     6.1679     3.0051   113.0292 </r>
       <r>     6.3243     2.1301   113.3623 </r>
       <r>     6.4807     1.0880   113.5325 </r>
       <r>     6.6371     1.6829   113.7957 </r>
       <r>     6.7935     1.2060   113.9843 </r>
       <r>     6.9499     0.1002   114.0000 </r>
       <r>     7.1063     0.4415   114.0691 </r>
       <r>     7.2627     0.7041   114.1792 </r>
       <r>     7.4191     0.2997   114.2260 </r>
       <r>     7.5755     0.7878   114.3493 </r>
       <r>     7.7319     3.4465   114.8883 </r>
       <r>     7.8883     2.9105   115.3435 </r>
       <r>     8.0447     4.6909   116.0772 </r>
       <r>     8.2011     5.3563   116.9149 </r>
       <r>     8.3575     8.0394   118.1722 </r>
       <r>     8.5139     7.4568   119.3385 </r>
       <r>     8.6703     6.2759   120.3201 </r>
       <r>     8.8267     6.3370   121.3112 </r>
       <r>     8.9831     5.7828   122.2156 </r>
       <r>     9.1395     7.4365   123.3787 </r>
       <r>     9.2959     9.2668   124.8280 </r>
       <r>     9.4523     3.8281   125.4267 </r>
       <r>     9.6087     8.0568   126.6868 </r>
       <r>     9.7651     4.8437   127.4444 </r>
       <r>     9.9215     8.6111   128.7911 </r>
       <r>    10.0779    10.8071   130.4814 </r>
       <r>    10.2343     9.9922   132.0442 </r>
       <r>    10.3907    12.2851   133.9656 </r>
       <r>    10.5471    11.5597   135.7735 </r>
       <r>    10.7035     8.9128   137.1675 </r>
       <r>    10.8599     5.8919   138.0890 </r>
       <r>    11.0163     8.5815   139.4311 </r>
       <r>    11.1727     3.4157   139.9653 </r>
       <r>    11.3291     0.2216   140.0000 </r>
       <r>    11.4855     0.0000   140.0000 </r>
       <r>    11.6419     0.0000   140.0000 </r>
       <r>    11.7983     0.0000   140.0000 </r>
       <r>    11.9547     0.0000   140.0000 </r>
       <r>    12.1111     0.0000   140.0000 </r>
       <r>    12.2675     0.0000   140.0000 </r>
       <r>    12.4239     0.0000   140.0000 </r>
       <r>    12.5803     0.0000   140.0000 </r>
       <r>    12.7367     0.0000   140.0000 </r>
       <r>    12.8931     0.0000   140.0000 </r>
       <r>    13.0495     0.0000   140.0000 </r>
       <r>    13.2059     0.0000   140.0000 </r>
       <r>    13.3623     0.0000   140.0000 </r>
      </set>
     </set>
    </array>
   </total>
  </dos>
 </calculation>
 <structure name="finalpos" >
  <crystal>
   <varray name="basis" >
    <v>       4.00000000       0.00000000       0.00000000 </v>
    <v>       0.00000000      16.97056275       0.00000000 </v>
    <v>       0.00000000       0.00000000       5.65685425 </v>
   </varray>
   <i name="volume">    384.00000000 </i>
   <varray name="rec_basis" >
    <v>       0.25000000       0.00000000       0.00000000 </v>
    <v>       0.00000000       0.05892557       0.00000000 </v>
    <v>       0.00000000       0.00000000       0.17677670 </v>
   </varray>
  </crystal>
  <varray name="positions" >
   <v>       0.00000000       0.00000000       0.00000000 </v>
   <v>       0.00000000       0.16666667       0.50000000 </v>
   <v>       0.00000000       0.33333333       0.00000000 </v>
   <v>       0.00000000       0.50000000       0.50000000 </v>
   <v>       0.00000000       0.66666667       0.00000000 </v>
   <v>       0.00000000       0.83333333       0.50000000 </v>
   <v>       0.50000000       0.00000000       0.50000000 </v>
   <v>       0.50000000       0.16666667       0.00000000 </v>
   <v>       0.50000000       0.33333333       0.50000000 </v>
   <v>       0.50000000       0.50000000       0.00000000 </v>
   <v>       0.50000000       0.66666667       0.50000000 </v>
   <v>       0.50000000       0.83333333       0.00000000 </v>
   <v>       0.50000000       0.08333333       0.25000000 </v>
   <v>       0.50000000       0.25000000       0.75000000 </v>
   <v>       0.00000000       0.00000000       0.50000000 </v>
   <v>       0.00000000       0.16666667       0.00000000 </v>
   <v>       0.00000000       0.33333333       0.50000000 </v>
   <v>       0.50000000       0.25000000       0.25000000 </v>
   <v>       0.50000000       0.41666667       0.75000000 </v>
   <v>       0.50000000       0.58333333       0.75000000 </v>
   <v>       0.50000000       0.75000000       0.25000000 </v>
   <v>       0.00000000       0.50000000       0.00000000 </v>
   <v>       0.00000000       0.66666667       0.50000000 </v>
   <v>       0.00000000       0.83333333       0.00000000 </v>
   <v>       0.50000000       0.75000000       0.75000000 </v>
   <v>       0.50000000       0.91666667       0.25000000 </v>
  </varray>
 </structure>
</modeling>
