<?xml version="1.0" encoding="ISO-8859-1"?>
<modeling>
 <generator>
  <i name="program" type="string">vasp </i>
  <i name="version" type="string">5.3.5  </i>
  <i name="subversion" type="string">31Mar14 (build Jun 20 2014 13:15:13) complex                          parallel </i>
  <i name="platform" type="string">LinuxIFC </i>
  <i name="date" type="string">2025 12 12 </i>
  <i name="time" type="string">13:31:34 </i>
 </generator>
 <incar>
  <i type="string" name="PREC">accurate</i>
  <i type="int" name="IALGO">    38</i>
  <i type="logical" name="ADDGRID"> T  </i>
  <i type="int" name="ISPIN">     2</i>
  <i type="int" name="NELM">   100</i>
  <i type="int" name="NELMIN">     4</i>
  <i name="EDIFF">      0.00000100</i>
  <i name="ENCUT">    500.00000000</i>
  <i type="logical" name="LREAL"> F  </i>
  <i type="int" name="ISMEAR">     0</i>
  <i name="SIGMA">      0.05000000</i>
  <i type="logical" name="LWAVE"> F  </i>
  <i type="logical" name="LCHARG"> F  </i>
  <i type="int" name="NELM">   100</i>
  <i type="logical" name="LDAU"> T  </i>
  <v name="LDAUU">      0.00000000      4.00000000      0.00000000</v>
  <v name="LDAUJ">      0.00000000      0.00000000      0.00000000</v>
 </incar>
 <kpoints>
  <generation param="Auto">
   <i name="subdivisionlength">     20.00000000 </i>
   <v type="int" name="divisions">       5        3        3 </v>
   <v name="usershift">      0.00000000       0.00000000       0.00000000 </v>
   <v name="genvec1">      0.20000000       0.00000000       0.00000000 </v>
   <v name="genvec2">      0.00000000       0.33333333       0.00000000 </v>
   <v name="genvec3">      0.00000000       0.00000000       0.33333333 </v>
   <v name="shift">      0.00000000       0.00000000       0.00000000 </v>
  </generation>
  <varray name="kpointlist" >
   <v>       0.00000000       0.00000000       0.00000000 </v>
   <v>       0.20000000       0.00000000       0.00000000 </v>
   <v>       0.40000000       0.00000000       0.00000000 </v>
   <v>       0.00000000       0.33333333       0.00000000 </v>
   <v>       0.20000000       0.33333333       0.00000000 </v>
   <v>       0.40000000       0.33333333       0.00000000 </v>
   <v>       0.00000000       0.00000000       0.33333333 </v>
   <v>       0.20000000       0.00000000       0.33333333 </v>
   <v>       0.40000000       0.00000000       0.33333333 </v>
   <v>       0.00000000       0.33333333       0.33333333 </v>
   <v>       0.20000000       0.33333333       0.33333333 </v>
   <v>       0.40000000       0.33333333       0.33333333 </v>
  </varray>
  <varray name="weights" >
   <v>       0.02222222 </v>
   <v>       0.04444444 </v>
   <v>       0.04444444 </v>
   <v>       0.04444444 </v>
   <v>       0.08888889 </v>
   <v>       0.08888889 </v>
   <v>       0.04444444 </v>
   <v>       0.08888889 </v>
   <v>       0.08888889 </v>
   <v>       0.08888889 </v>
   <v>       0.17777778 </v>
   <v>       0.17777778 </v>
  </varray>
 </kpoints>
 <parameters>
  <separator name="general" >
   <i type="string" name="SYSTEM">unknown system</i>
   <i type="logical" name="LCOMPAT"> F  </i>
  </separator>
  <separator name="electronic" >
   <i type="string" name="PREC">accura</i>
   <i name="ENMAX">    500.00000000</i>
   <i name="ENAUG">    586.98000000</i>
   <i name="EDIFF">      0.00000100</i>
   <i type="int" name="IALGO">    38</i>
   <i type="int" name="IWAVPR">    10</i>
   <i type="int" name="NBANDS">    92</i>
   <i name="NELECT">    138.00000000</i>
   <i type="int" name="TURBO">     0</i>
   <i type="int" name="IRESTART">     0</i>
   <i type="int" name="NREBOOT">     0</i>
   <i type="int" name="NMIN">     0</i>
   <i name="EREF">      0.00000000</i>
   <separator name="electronic smearing" >
    <i type="int" name="ISMEAR">     0</i>
    <i name="SIGMA">      0.05000000</i>
    <i name="KSPACING">      0.50000000</i>
    <i type="logical" name="KGAMMA"> T  </i>
   </separator>
   <separator name="electronic projectors" >
    <i type="logical" name="LREAL"> F  </i>
    <v name="ROPT">      0.00000000      0.00000000      0.00000000</v>
    <i type="int" name="LMAXPAW">  -100</i>
    <i type="int" name="LMAXMIX">     2</i>
    <i type="logical" name="NLSPLINE"> F  </i>
   </separator>
   <separator name="electronic startup" >
    <i type="int" name="ISTART">     0</i>
    <i type="int" name="ICHARG">     2</i>
    <i type="int" name="INIWAV">     1</i>
   </separator>
   <separator name="electronic spin" >
    <i type="int" name="ISPIN">     2</i>
    <i type="logical" name="LNONCOLLINEAR"> F  </i>
    <v name="MAGMOM">      1.00000000      1.00000000      1.00000000      1.00000000      1.00000000      1.00000000      1.00000000      1.00000000      1.00000000      1.00000000      1.00000000      1.00000000      1.00000000      1.00000000      1.00000000      1.00000000      1.00000000</v>
    <i name="NUPDOWN">     -1.00000000</i>
    <i type="logical" name="LSORBIT"> F  </i>
    <v name="SAXIS">      0.00000000      0.00000000      1.00000000</v>
    <i type="logical" name="LSPIRAL"> F  </i>
    <v name="QSPIRAL">      0.00000000      0.00000000      0.00000000</v>
    <i type="logical" name="LZEROZ"> F  </i>
   </separator>
   <separator name="electronic exchange-correlation" >
    <i type="logical" name="LASPH"> F  </i>
    <i type="logical" name="LMETAGGA"> F  </i>
   </separator>
   <separator name="electronic convergence" >
    <i type="int" name="NELM">   100</i>
    <i type="int" name="NELMDL">    -5</i>
    <i type="int" name="NELMIN">     4</i>
    <i name="ENINI">    500.00000000</i>
    <separator name="electronic convergence detail" >
     <i type="logical" name="LDIAG"> T  </i>
     <i type="logical" name="LSUBROT"> F  </i>
     <i name="WEIMIN">      0.00000000</i>
     <i name="EBREAK">      0.00000000</i>
     <i name="DEPER">      0.30000000</i>
     <i type="int" name="NRMM">     4</i>
     <i name="TIME">      0.40000000</i>
    </separator>
   </separator>
   <separator name="electronic mixer" >
    <i name="AMIX">      0.40000000</i>
    <i name="BMIX">      1.00000000</i>
    <i name="AMIN">      0.10000000</i>
    <i name="AMIX_MAG">      1.60000000</i>
    <i name="BMIX_MAG">      1.00000000</i>
    <separator name="electronic mixer details" >
     <i type="int" name="IMIX">     4</i>
     <i type="int" name="MAXMIX">   -45</i>
     <i name="WC">    100.00000000</i>
     <i type="int" name="INIMIX">     1</i>
     <i type="int" name="MIXPRE">     1</i>
     <i type="int" name="MREMOVE">     5</i>
    </separator>
   </separator>
   <separator name="electronic dipolcorrection" >
    <i type="logical" name="LDIPOL"> F  </i>
    <i type="logical" name="LMONO"> F  </i>
    <i type="int" name="IDIPOL">     0</i>
    <i name="EPSILON">      1.00000000</i>
    <v name="DIPOL">   -100.00000000   -100.00000000   -100.00000000</v>
    <i name="EFIELD">      0.00000000</i>
   </separator>
  </separator>
  <separator name="grids" >
   <i type="int" name="NGX">    30</i>
   <i type="int" name="NGY">    60</i>
   <i type="int" name="NGZ">    60</i>
   <i type="int" name="NGXF">    60</i>
   <i type="int" name="NGYF">   120</i>
   <i type="int" name="NGZF">   120</i>
   <i type="logical" name="ADDGRID"> T  </i>
  </separator>
  <separator name="ionic" >
   <i type="int" name="NSW">     0</i>
   <i type="int" name="IBRION">    -1</i>
   <i type="int" name="ISIF">     2</i>
   <i name="PSTRESS">      0.00000000</i>
   <i name="EDIFFG">      0.00001000</i>
   <i type="int" name="NFREE">     0</i>
   <i name="POTIM">      0.50000000</i>
   <i name="SMASS">     -3.00000000</i>
   <i name="SCALEE">      1.00000000</i>
  </separator>
  <separator name="ionic md" >
   <i name="TEBEG">      0.00010000</i>
   <i name="TEEND">      0.00010000</i>
   <i type="int" name="NBLOCK">     1</i>
   <i type="int" name="KBLOCK">     1</i>
   <i type="int" name="NPACO">   256</i>
   <i name="APACO">     16.00000000</i>
  </separator>
  <separator name="symmetry" >
   <i type="int" name="ISYM">     2</i>
   <i name="SYMPREC">      0.00001000</i>
  </separator>
  <separator name="dos" >
   <i type="logical" name="LORBIT"> F  </i>
   <v name="RWIGS">     -1.00000000     -1.00000000     -1.00000000</v>
   <i type="int" name="NEDOS">   301</i>
   <i name="EMIN">     10.00000000</i>
   <i name="EMAX">    -10.00000000</i>
   <i name="EFERMI">      0.00000000</i>
  </separator>
  <separator name="writing" >
   <i type="int" name="NWRITE">     2</i>
   <i type="logical" name="LWAVE"> F  </i>
   <i type="logical" name="LCHARG"> F  </i>
   <i type="logical" name="LPARD"> F  </i>
   <i type="logical" name="LVTOT"> F  </i>
   <i type="logical" name="LVHAR"> F  </i>
   <i type="logical" name="LELF"> F  </i>
   <i type="logical" name="LOPTICS"> F  </i>
   <v name="STM">      0.00000000      0.00000000      0.00000000      0.00000000      0.00000000      0.00000000      0.00000000</v>
  </separator>
  <separator name="performance" >
   <i type="int" name="NPAR">     4</i>
   <i type="int" name="NSIM">     4</i>
   <i type="int" name="NBLK">    -1</i>
   <i type="logical" name="LPLANE"> T  </i>
   <i type="logical" name="LSCALAPACK"> T  </i>
   <i type="logical" name="LSCAAWARE"> F  </i>
   <i type="logical" name="LSCALU"> F  </i>
   <i type="logical" name="LASYNC"> F  </i>
   <i type="logical" name="LORBITALREAL"> F  </i>
  </separator>
  <separator name="miscellaneous" >
   <i type="int" name="IDIOT">     3</i>
   <i type="logical" name="LMUSIC"> F  </i>
   <v name="POMASS">     87.62000000     63.54600000     16.00000000</v>
   <v name="DARWINR">      0.00000000      0.00000000      0.00000000</v>
   <v name="DARWINV">      1.00000000      1.00000000      1.00000000</v>
   <i type="logical" name="LCORR"> T  </i>
  </separator>
  <i type="logical" name="GGA_COMPAT"> T  </i>
  <i type="logical" name="LBERRY"> F  </i>
  <i type="int" name="ICORELEVEL">     0</i>
  <i type="logical" name="LDAU"> T  </i>
  <v type="int" name="LDAUTYPE">     2</v>
  <v type="int" name="LDAUL">     2</v>
  <v name="LDAUU">      0.00000000</v>
  <v name="LDAUJ">      0.00000000</v>
  <i type="int" name="LDAUPRINT">     0</i>
  <i type="int" name="I_CONSTRAINED_M">     0</i>
  <separator name="electronic exchange-correlation" >
   <i type="string" name="GGA">--</i>
   <i type="int" name="VOSKOWN">     0</i>
   <i type="logical" name="LHFCALC"> F  </i>
   <i type="string" name="PRECFOCK"></i>
   <i type="logical" name="LSYMGRAD"> F  </i>
   <i type="logical" name="LHFONE"> F  </i>
   <i type="logical" name="LRHFCALC"> F  </i>
   <i type="logical" name="LTHOMAS"> F  </i>
   <i type="logical" name="LMODELHF"> F  </i>
   <i name="ENCUT4O">     -1.00000000</i>
   <i type="int" name="EXXOEP">     0</i>
   <i type="int" name="FOURORBIT">     0</i>
   <i name="AEXX">      0.00000000</i>
   <i name="HFALPHA">      0.00000000</i>
   <i name="MCALPHA">      0.00000000</i>
   <i name="ALDAX">      1.00000000</i>
   <i name="AGGAX">      1.00000000</i>
   <i name="ALDAC">      1.00000000</i>
   <i name="AGGAC">      1.00000000</i>
   <i type="int" name="NKREDX">     1</i>
   <i type="int" name="NKREDY">     1</i>
   <i type="int" name="NKREDZ">     1</i>
   <i type="logical" name="SHIFTRED"> F  </i>
   <i type="logical" name="ODDONLY"> F  </i>
   <i type="logical" name="EVENONLY"> F  </i>
   <i type="int" name="LMAXFOCK">     0</i>
   <i type="int" name="NMAXFOCKAE">     0</i>
   <i type="logical" name="LFOCKAEDFT"> F  </i>
   <i name="HFSCREEN">      0.00000000</i>
   <i name="HFSCREENC">      0.00000000</i>
   <i type="int" name="NBANDSGWLOW">     0</i>
  </separator>
  <separator name="vdW DFT" >
   <i type="logical" name="LUSE_VDW"> F  </i>
   <i name="Zab_VDW">     -0.84910000</i>
   <i name="PARAM1">      0.12340000</i>
   <i name="PARAM2">      1.00000000</i>
   <i name="PARAM3">      0.00000000</i>
  </separator>
  <separator name="model GW" >
   <i type="int" name="MODEL_GW">     0</i>
   <i name="MODEL_EPS0">      9.03529412</i>
   <i name="MODEL_ALPHA">      1.00000000</i>
  </separator>
  <separator name="linear response parameters" >
   <i type="logical" name="LEPSILON"> F  </i>
   <i type="logical" name="LRPA"> F  </i>
   <i type="logical" name="LNABLA"> F  </i>
   <i type="logical" name="LVEL"> F  </i>
   <i type="int" name="KINTER">     0</i>
   <i name="CSHIFT">      0.10000000</i>
   <i name="OMEGAMAX">     -1.00000000</i>
   <i name="DEG_THRESHOLD">      0.00200000</i>
  </separator>
  <separator name="orbital magnetization" >
   <i type="logical" name="NUCIND"> F  </i>
   <v name="MAGPOS">      0.00000000      0.00000000      0.00000000</v>
   <i type="logical" name="LNICSALL"> T  </i>
   <i type="logical" name="ORBITALMAG"> F  </i>
   <i type="logical" name="LMAGBLOCH"> F  </i>
   <i type="logical" name="LCHIMAG"> F  </i>
   <i type="logical" name="LGAUGE"> T  </i>
   <i type="int" name="MAGATOM">     0</i>
   <v name="MAGDIPOL">      0.00000000      0.00000000      0.00000000</v>
   <v name="AVECCONST">      0.00000000      0.00000000      0.00000000</v>
  </separator>
  <separator name="response functions" >
   <i type="logical" name="LADDER"> F  </i>
   <i type="logical" name="LFXC"> F  </i>
   <i type="logical" name="LHARTREE"> T  </i>
   <i type="int" name="IBSE">     0</i>
   <i type="logical" name="LTCTE"> F  </i>
   <i type="logical" name="LTETE"> F  </i>
   <i type="logical" name="LTRIPLET"> F  </i>
   <i type="logical" name="LFXCEPS"> F  </i>
   <i type="logical" name="LFXHEG"> F  </i>
   <i type="logical" name="L2ORDER"> F  </i>
   <i type="logical" name="LUSEW"> F  </i>
   <i name="ENCUTGW">     -2.00000000</i>
   <i name="ENCUTGWSOFT">     -2.00000000</i>
   <i name="ENCUTLF">     -1.00000000</i>
   <i type="int" name="LMAXMP2">    -1</i>
   <i name="SCISSOR">      0.00000000</i>
   <i type="int" name="NOMEGA">     0</i>
   <i type="int" name="NOMEGAR">     0</i>
   <i type="int" name="NBANDSGW">    -1</i>
   <i type="int" name="NBANDSO">    -1</i>
   <i type="int" name="NBANDSV">    -1</i>
   <i type="int" name="NELM">   100</i>
   <i type="int" name="DIM">     3</i>
   <i type="int" name="ANTIRES">     0</i>
   <i name="OMEGAMAX">    -30.00000000</i>
   <i name="OMEGAMIN">    -30.00000000</i>
   <i name="OMEGATL">   -200.00000000</i>
   <i type="int" name="OMEGAGRID">     0</i>
   <i name="CSHIFT">     -0.10000000</i>
   <i type="logical" name="SELFENERGY"> F  </i>
   <i type="logical" name="LSPECTRAL"> F  </i>
   <i type="logical" name="ODDONLYGW"> F  </i>
   <i type="logical" name="EVENONLYGW"> F  </i>
   <i type="int" name="NKREDLFX">     1</i>
   <i type="int" name="NKREDLFY">     1</i>
   <i type="int" name="NKREDLFZ">     1</i>
   <i type="int" name="MAXMEM">  1800</i>
   <i type="int" name="TELESCOPE">     0</i>
   <i type="int" name="TAUPAR">     1</i>
  </separator>
  <separator name="External order field" >
   <i name="OFIELD_KAPPA">      0.00000000</i>
   <v name="OFIELD_K">      0.00000000      0.00000000      0.00000000</v>
   <i name="OFIELD_Q6_NEAR">      0.00000000</i>
   <i name="OFIELD_Q6_FAR">      0.00000000</i>
   <i name="OFIELD_A">      0.00000000</i>
  </separator>
 </parameters>
 <atominfo>
  <atoms>      17 </atoms>
  <types>       3 </types>
  <array name="atoms" >
   <dimension dim="1">ion</dimension>
   <field type="string">element</field>
   <field type="int">atomtype</field>
   <set>
    <rc><c>Sr</c><c>   1</c></rc>
    <rc><c>Sr</c><c>   1</c></rc>
    <rc><c>Sr</c><c>   1</c></rc>
    <rc><c>Sr</c><c>   1</c></rc>
    <rc><c>Cu</c><c>   2</c></rc>
    <rc><c>Cu</c><c>   2</c></rc>
    <rc><c>Cu</c><c>   2</c></rc>
    <rc><c>Cu</c><c>   2</c></rc>
    <rc><c>O </c><c>   3</c></rc>
    <rc><c>O </c><c>   3</c></rc>
    <rc><c>O </c><c>   3</c></rc>
    <rc><c>O </c><c>   3</c></rc>
    <rc><c>O </c><c>   3</c></rc>
    <rc><c>O </c><c>   3</c></rc>
    <rc><c>O </c><c>   3</c></rc>
    <rc><c>O </c><c>   3</c></rc>
    <rc><c>O </c><c>   3</c></rc>
   </set>
  </array>
  <array name="atomtypes" >
   <dimension dim="1">type</dimension>
   <field type="int">atomspertype</field>
   <field type="string">element</field>
   <field>mass</field>
   <field>valence</field>
   <field type="string">pseudopotential</field>
   <set>
    <rc><c>   4</c><c>Sr</c><c>     87.62000000</c><c>     10.00000000</c><c>  PAW_PBE Sr_sv 07Sep2000               </c></rc>
    <rc><c>   4</c><c>Cu</c><c>     63.54600000</c><c>     11.00000000</c><c>  PAW_PBE Cu 22Jun2005                  </c></rc>
    <rc><c>   9</c><c>O </c><c>     16.00000000</c><c>      6.00000000</c><c>  PAW_PBE O_s 07Sep2000                 </c></rc>
   </set>
  </array>
 </atominfo>
 <structure name="initialpos" >
  <crystal>
   <varray name="basis" >
    <v>       4.00000000       0.00000000       0.00000000 </v>
    <v>       0.00000000       8.00000000       0.00000000 </v>
    <v>       0.00000000       0.00000000       8.00000000 </v>
   </varray>
   <i name="volume">    256.00000000 </i>
   <varray name="rec_basis" >
    <v>       0.25000000       0.00000000       0.00000000 </v>
    <v>       0.00000000       0.12500000       0.00000000 </v>
    <v>       0.00000000       0.00000000       0.12500000 </v>
   </varray>
  </crystal>
  <varray name="positions" >
   <v>       0.00000000       0.75000000       0.75000000 </v>
   <v>       0.00000000       0.25000000       0.75000000 </v>
   <v>       0.00000000       0.75000000       0.25000000 </v>
   <v>       0.00000000       0.25000000       0.25000000 </v>
   <v>       0.50000000       0.00000000       0.00000000 </v>
   <v>       0.50000000       0.50000000       0.00000000 </v>
   <v>       0.50000000       0.00000000       0.50000000 </v>
   <v>       0.50000000       0.50000000       0.50000000 </v>
   <v>       0.50000000       0.50000000       0.75000000 </v>
   <v>       0.50000000       0.50000000       0.25000000 </v>
   <v>       0.00000000       0.50000000       0.00000000 </v>
   <v>       0.00000000       0.00000000       0.50000000 </v>
   <v>       0.00000000       0.50000000       0.50000000 </v>
   <v>       0.50000000       0.75000000       0.00000000 </v>
   <v>       0.50000000       0.25000000       0.00000000 </v>
   <v>       0.50000000       0.75000000       0.50000000 </v>
   <v>       0.50000000       0.25000000       0.50000000 </v>
  </varray>
 </structure>
 <calculation>
  <scstep>
   <time name="dav">    2.27    2.27</time>
   <time name="total">    2.48    2.49</time>
   <energy>
    <i name="alphaZ">    635.64916683 </i>
    <i name="ewald">  -8945.53431673 </i>
    <i name="hartreedc">  -3990.56379236 </i>
    <i name="XCdc">    571.24399397 </i>
    <i name="pawpsdc">  10532.98817047 </i>
    <i name="pawaedc"> -10865.93268589 </i>
    <i name="eentropy">     -0.00356735 </i>
    <i name="bandstr">    984.40604434 </i>
    <i name="atom">  12827.37956309 </i>
    <i name="e_fr_energy">   1749.63257637 </i>
    <i name="e_wo_entrp">   1749.63614372 </i>
    <i name="e_0_energy">   1749.63436004 </i>
   </energy>
  </scstep>
  <scstep>
   <time name="dav">    2.38    2.38</time>
   <time name="total">    2.38    2.40</time>
   <energy>
    <i name="e_fr_energy">    157.13328077 </i>
    <i name="e_wo_entrp">    157.14300072 </i>
    <i name="e_0_energy">    157.13814074 </i>
   </energy>
  </scstep>
  <scstep>
   <time name="dav">    2.63    2.63</time>
   <time name="total">    2.64    2.65</time>
   <energy>
    <i name="e_fr_energy">    -87.22929739 </i>
    <i name="e_wo_entrp">    -87.21247319 </i>
    <i name="e_0_energy">    -87.22088529 </i>
   </energy>
  </scstep>
  <scstep>
   <time name="dav">    3.18    3.18</time>
   <time name="total">    3.18    3.20</time>
   <energy>
    <i name="e_fr_energy">   -105.99505654 </i>
    <i name="e_wo_entrp">   -105.97587612 </i>
    <i name="e_0_energy">   -105.98546633 </i>
   </energy>
  </scstep>
  <scstep>
   <time name="dav">    4.04    4.04</time>
   <time name="total">    4.35    4.37</time>
   <energy>
    <i name="e_fr_energy">   -107.09316325 </i>
    <i name="e_wo_entrp">   -107.07396383 </i>
    <i name="e_0_energy">   -107.08356354 </i>
   </energy>
  </scstep>
  <scstep>
   <time name="dav">    3.26    3.26</time>
   <time name="total">    3.77    3.79</time>
   <energy>
    <i name="e_fr_energy">    -98.03516961 </i>
    <i name="e_wo_entrp">    -98.01464973 </i>
    <i name="e_0_energy">    -98.02490967 </i>
   </energy>
  </scstep>
  <scstep>
   <time name="dav">    3.09    3.09</time>
   <time name="total">    3.80    3.82</time>
   <energy>
    <i name="e_fr_energy">    -85.77485734 </i>
    <i name="e_wo_entrp">    -85.75617837 </i>
    <i name="e_0_energy">    -85.76551786 </i>
   </energy>
  </scstep>
  <scstep>
   <time name="dav">    3.32    3.32</time>
   <time name="total">    3.83    3.84</time>
   <energy>
    <i name="e_fr_energy">    -87.15183041 </i>
    <i name="e_wo_entrp">    -87.14093963 </i>
    <i name="e_0_energy">    -87.14638502 </i>
   </energy>
  </scstep>
  <scstep>
   <time name="dav">    3.57    3.57</time>
   <time name="total">    4.08    4.10</time>
   <energy>
    <i name="e_fr_energy">    -90.96221644 </i>
    <i name="e_wo_entrp">    -90.94618321 </i>
    <i name="e_0_energy">    -90.95419982 </i>
   </energy>
  </scstep>
  <scstep>
   <time name="dav">    3.18    3.18</time>
   <time name="total">    3.69    3.71</time>
   <energy>
    <i name="e_fr_energy">    -85.76615158 </i>
    <i name="e_wo_entrp">    -85.75780400 </i>
    <i name="e_0_energy">    -85.76197779 </i>
   </energy>
  </scstep>
  <scstep>
   <time name="dav">    3.38    3.38</time>
   <time name="total">    3.88    3.90</time>
   <energy>
    <i name="e_fr_energy">    -84.34260975 </i>
    <i name="e_wo_entrp">    -84.33247527 </i>
    <i name="e_0_energy">    -84.33754251 </i>
   </energy>
  </scstep>
  <scstep>
   <time name="dav">    3.22    3.22</time>
   <time name="total">    3.72    3.74</time>
   <energy>
    <i name="e_fr_energy">    -84.35170322 </i>
    <i name="e_wo_entrp">    -84.34213303 </i>
    <i name="e_0_energy">    -84.34691813 </i>
   </energy>
  </scstep>
  <scstep>
   <time name="dav">    3.42    3.42</time>
   <time name="total">    3.93    3.94</time>
   <energy>
    <i name="e_fr_energy">    -84.35128693 </i>
    <i name="e_wo_entrp">    -84.34172535 </i>
    <i name="e_0_energy">    -84.34650614 </i>
   </energy>
  </scstep>
  <scstep>
   <time name="dav">    3.35    3.35</time>
   <time name="total">    3.85    3.87</time>
   <energy>
    <i name="e_fr_energy">    -84.33720955 </i>
    <i name="e_wo_entrp">    -84.32379804 </i>
    <i name="e_0_energy">    -84.33050380 </i>
   </energy>
  </scstep>
  <scstep>
   <time name="dav">    3.44    3.44</time>
   <time name="total">    3.94    3.96</time>
   <energy>
    <i name="e_fr_energy">    -84.33335663 </i>
    <i name="e_wo_entrp">    -84.31887141 </i>
    <i name="e_0_energy">    -84.32611402 </i>
   </energy>
  </scstep>
  <scstep>
   <time name="dav">    3.11    3.11</time>
   <time name="total">    3.62    3.63</time>
   <energy>
    <i name="e_fr_energy">    -84.33255858 </i>
    <i name="e_wo_entrp">    -84.31948998 </i>
    <i name="e_0_energy">    -84.32602428 </i>
   </energy>
  </scstep>
  <scstep>
   <time name="dav">    3.56    3.57</time>
   <time name="total">    4.30    4.33</time>
   <energy>
    <i name="e_fr_energy">    -84.32895761 </i>
    <i name="e_wo_entrp">    -84.31680540 </i>
    <i name="e_0_energy">    -84.32288150 </i>
   </energy>
  </scstep>
  <scstep>
   <time name="dav">    3.22    3.22</time>
   <time name="total">    3.73    3.75</time>
   <energy>
    <i name="e_fr_energy">    -84.33236289 </i>
    <i name="e_wo_entrp">    -84.32077197 </i>
    <i name="e_0_energy">    -84.32656743 </i>
   </energy>
  </scstep>
  <scstep>
   <time name="dav">    3.47    3.47</time>
   <time name="total">    3.97    3.99</time>
   <energy>
    <i name="e_fr_energy">    -84.33345286 </i>
    <i name="e_wo_entrp">    -84.32197399 </i>
    <i name="e_0_energy">    -84.32771343 </i>
   </energy>
  </scstep>
  <scstep>
   <time name="dav">    3.32    3.32</time>
   <time name="total">    3.83    3.85</time>
   <energy>
    <i name="e_fr_energy">    -84.33290348 </i>
    <i name="e_wo_entrp">    -84.32201171 </i>
    <i name="e_0_energy">    -84.32745760 </i>
   </energy>
  </scstep>
  <scstep>
   <time name="dav">    3.01    3.01</time>
   <time name="total">    3.52    3.54</time>
   <energy>
    <i name="e_fr_energy">    -84.33231244 </i>
    <i name="e_wo_entrp">    -84.32240711 </i>
    <i name="e_0_energy">    -84.32735977 </i>
   </energy>
  </scstep>
  <scstep>
   <time name="dav">    3.46    3.46</time>
   <time name="total">    3.97    3.98</time>
   <energy>
    <i name="e_fr_energy">    -84.32879933 </i>
    <i name="e_wo_entrp">    -84.31998042 </i>
    <i name="e_0_energy">    -84.32438988 </i>
   </energy>
  </scstep>
  <scstep>
   <time name="dav">    3.51    3.51</time>
   <time name="total">    4.02    4.04</time>
   <energy>
    <i name="e_fr_energy">    -84.32471775 </i>
    <i name="e_wo_entrp">    -84.31576697 </i>
    <i name="e_0_energy">    -84.32024236 </i>
   </energy>
  </scstep>
  <scstep>
   <time name="dav">    3.53    3.53</time>
   <time name="total">    4.04    4.05</time>
   <energy>
    <i name="e_fr_energy">    -84.32607593 </i>
    <i name="e_wo_entrp">    -84.31695459 </i>
    <i name="e_0_energy">    -84.32151526 </i>
   </energy>
  </scstep>
  <scstep>
   <time name="dav">    3.52    3.52</time>
   <time name="total">    4.04    4.05</time>
   <energy>
    <i name="e_fr_energy">    -84.32739350 </i>
    <i name="e_wo_entrp">    -84.31808726 </i>
    <i name="e_0_energy">    -84.32274038 </i>
   </energy>
  </scstep>
  <scstep>
   <time name="dav">    3.33    3.33</time>
   <time name="total">    3.84    3.86</time>
   <energy>
    <i name="e_fr_energy">    -84.32746593 </i>
    <i name="e_wo_entrp">    -84.31806805 </i>
    <i name="e_0_energy">    -84.32276699 </i>
   </energy>
  </scstep>
  <scstep>
   <time name="dav">    3.37    3.37</time>
   <time name="total">    3.88    3.90</time>
   <energy>
    <i name="e_fr_energy">    -84.32623837 </i>
    <i name="e_wo_entrp">    -84.31649594 </i>
    <i name="e_0_energy">    -84.32136715 </i>
   </energy>
  </scstep>
  <scstep>
   <time name="dav">    3.57    3.58</time>
   <time name="total">    4.08    4.10</time>
   <energy>
    <i name="e_fr_energy">    -84.32815815 </i>
    <i name="e_wo_entrp">    -84.31693434 </i>
    <i name="e_0_energy">    -84.32254624 </i>
   </energy>
  </scstep>
  <scstep>
   <time name="dav">    3.67    3.67</time>
   <time name="total">    4.18    4.20</time>
   <energy>
    <i name="e_fr_energy">    -84.33275697 </i>
    <i name="e_wo_entrp">    -84.32110173 </i>
    <i name="e_0_energy">    -84.32692935 </i>
   </energy>
  </scstep>
  <scstep>
   <time name="dav">    3.28    3.28</time>
   <time name="total">    4.02    4.04</time>
   <energy>
    <i name="e_fr_energy">    -84.33957493 </i>
    <i name="e_wo_entrp">    -84.32814730 </i>
    <i name="e_0_energy">    -84.33386111 </i>
   </energy>
  </scstep>
  <scstep>
   <time name="dav">    3.34    3.34</time>
   <time name="total">    3.85    3.87</time>
   <energy>
    <i name="e_fr_energy">    -84.35221226 </i>
    <i name="e_wo_entrp">    -84.34222969 </i>
    <i name="e_0_energy">    -84.34722098 </i>
   </energy>
  </scstep>
  <scstep>
   <time name="dav">    3.53    3.54</time>
   <time name="total">    4.04    4.06</time>
   <energy>
    <i name="e_fr_energy">    -84.35443952 </i>
    <i name="e_wo_entrp">    -84.34504836 </i>
    <i name="e_0_energy">    -84.34974394 </i>
   </energy>
  </scstep>
  <scstep>
   <time name="dav">    3.46    3.46</time>
   <time name="total">    3.97    3.99</time>
   <energy>
    <i name="e_fr_energy">    -84.35206073 </i>
    <i name="e_wo_entrp">    -84.34261395 </i>
    <i name="e_0_energy">    -84.34733734 </i>
   </energy>
  </scstep>
  <scstep>
   <time name="dav">    3.46    3.46</time>
   <time name="total">    3.97    3.99</time>
   <energy>
    <i name="e_fr_energy">    -84.34468476 </i>
    <i name="e_wo_entrp">    -84.33468555 </i>
    <i name="e_0_energy">    -84.33968515 </i>
   </energy>
  </scstep>
  <scstep>
   <time name="dav">    3.03    3.03</time>
   <time name="total">    3.54    3.55</time>
   <energy>
    <i name="e_fr_energy">    -84.32542382 </i>
    <i name="e_wo_entrp">    -84.31379234 </i>
    <i name="e_0_energy">    -84.31960808 </i>
   </energy>
  </scstep>
  <scstep>
   <time name="dav">    3.40    3.40</time>
   <time name="total">    3.91    3.93</time>
   <energy>
    <i name="e_fr_energy">    -84.31590646 </i>
    <i name="e_wo_entrp">    -84.30401963 </i>
    <i name="e_0_energy">    -84.30996304 </i>
   </energy>
  </scstep>
  <scstep>
   <time name="dav">    3.31    3.31</time>
   <time name="total">    3.82    3.84</time>
   <energy>
    <i name="e_fr_energy">    -84.32285008 </i>
    <i name="e_wo_entrp">    -84.31209180 </i>
    <i name="e_0_energy">    -84.31747094 </i>
   </energy>
  </scstep>
  <scstep>
   <time name="dav">    3.49    3.49</time>
   <time name="total">    3.99    4.01</time>
   <energy>
    <i name="e_fr_energy">    -84.32505362 </i>
    <i name="e_wo_entrp">    -84.31529328 </i>
    <i name="e_0_energy">    -84.32017345 </i>
   </energy>
  </scstep>
  <scstep>
   <time name="dav">    3.15    3.15</time>
   <time name="total">    3.66    3.68</time>
   <energy>
    <i name="e_fr_energy">    -84.32588324 </i>
    <i name="e_wo_entrp">    -84.31649556 </i>
    <i name="e_0_energy">    -84.32118940 </i>
   </energy>
  </scstep>
  <scstep>
   <time name="dav">    3.22    3.23</time>
   <time name="total">    3.96    3.98</time>
   <energy>
    <i name="e_fr_energy">    -84.32582965 </i>
    <i name="e_wo_entrp">    -84.31659219 </i>
    <i name="e_0_energy">    -84.32121092 </i>
   </energy>
  </scstep>
  <scstep>
   <time name="dav">    3.50    3.51</time>
   <time name="total">    4.02    4.03</time>
   <energy>
    <i name="e_fr_energy">    -84.32530194 </i>
    <i name="e_wo_entrp">    -84.31612054 </i>
    <i name="e_0_energy">    -84.32071124 </i>
   </energy>
  </scstep>
  <scstep>
   <time name="dav">    3.50    3.50</time>
   <time name="total">    4.01    4.03</time>
   <energy>
    <i name="e_fr_energy">    -84.32502650 </i>
    <i name="e_wo_entrp">    -84.31592861 </i>
    <i name="e_0_energy">    -84.32047755 </i>
   </energy>
  </scstep>
  <scstep>
   <time name="dav">    3.41    3.41</time>
   <time name="total">    3.92    3.93</time>
   <energy>
    <i name="e_fr_energy">    -84.32537485 </i>
    <i name="e_wo_entrp">    -84.31651434 </i>
    <i name="e_0_energy">    -84.32094459 </i>
   </energy>
  </scstep>
  <scstep>
   <time name="dav">    3.19    3.19</time>
   <time name="total">    3.70    3.71</time>
   <energy>
    <i name="e_fr_energy">    -84.32498528 </i>
    <i name="e_wo_entrp">    -84.31644676 </i>
    <i name="e_0_energy">    -84.32071602 </i>
   </energy>
  </scstep>
  <scstep>
   <time name="dav">    3.57    3.57</time>
   <time name="total">    4.08    4.09</time>
   <energy>
    <i name="e_fr_energy">    -84.32542265 </i>
    <i name="e_wo_entrp">    -84.31706786 </i>
    <i name="e_0_energy">    -84.32124526 </i>
   </energy>
  </scstep>
  <scstep>
   <time name="dav">    3.61    3.61</time>
   <time name="total">    4.12    4.13</time>
   <energy>
    <i name="e_fr_energy">    -84.32739246 </i>
    <i name="e_wo_entrp">    -84.31906730 </i>
    <i name="e_0_energy">    -84.32322988 </i>
   </energy>
  </scstep>
  <scstep>
   <time name="dav">    3.67    3.67</time>
   <time name="total">    4.19    4.20</time>
   <energy>
    <i name="e_fr_energy">    -84.32803373 </i>
    <i name="e_wo_entrp">    -84.31968590 </i>
    <i name="e_0_energy">    -84.32385981 </i>
   </energy>
  </scstep>
  <scstep>
   <time name="dav">    3.34    3.34</time>
   <time name="total">    3.85    3.87</time>
   <energy>
    <i name="e_fr_energy">    -84.32822354 </i>
    <i name="e_wo_entrp">    -84.31984498 </i>
    <i name="e_0_energy">    -84.32403426 </i>
   </energy>
  </scstep>
  <scstep>
   <time name="dav">    3.23    3.23</time>
   <time name="total">    3.75    3.76</time>
   <energy>
    <i name="e_fr_energy">    -84.32881643 </i>
    <i name="e_wo_entrp">    -84.32032436 </i>
    <i name="e_0_energy">    -84.32457039 </i>
   </energy>
  </scstep>
  <scstep>
   <time name="dav">    3.20    3.20</time>
   <time name="total">    3.72    3.73</time>
   <energy>
    <i name="e_fr_energy">    -84.32896250 </i>
    <i name="e_wo_entrp">    -84.31925217 </i>
    <i name="e_0_energy">    -84.32410734 </i>
   </energy>
  </scstep>
  <scstep>
   <time name="dav">    3.66    3.66</time>
   <time name="total">    4.17    4.19</time>
   <energy>
    <i name="e_fr_energy">    -84.33151178 </i>
    <i name="e_wo_entrp">    -84.32111255 </i>
    <i name="e_0_energy">    -84.32631217 </i>
   </energy>
  </scstep>
  <scstep>
   <time name="dav">    3.62    3.84</time>
   <time name="total">    4.14    4.37</time>
   <energy>
    <i name="e_fr_energy">    -84.33296920 </i>
    <i name="e_wo_entrp">    -84.32214291 </i>
    <i name="e_0_energy">    -84.32755606 </i>
   </energy>
  </scstep>
  <scstep>
   <time name="dav">    3.58    3.58</time>
   <time name="total">    4.10    4.11</time>
   <energy>
    <i name="e_fr_energy">    -84.33344289 </i>
    <i name="e_wo_entrp">    -84.32254744 </i>
    <i name="e_0_energy">    -84.32799517 </i>
   </energy>
  </scstep>
  <scstep>
   <time name="dav">    3.09    3.09</time>
   <time name="total">    3.61    3.62</time>
   <energy>
    <i name="e_fr_energy">    -84.33376794 </i>
    <i name="e_wo_entrp">    -84.32276870 </i>
    <i name="e_0_energy">    -84.32826832 </i>
   </energy>
  </scstep>
  <scstep>
   <time name="dav">    3.38    3.38</time>
   <time name="total">    3.90    3.91</time>
   <energy>
    <i name="e_fr_energy">    -84.33450878 </i>
    <i name="e_wo_entrp">    -84.32334505 </i>
    <i name="e_0_energy">    -84.32892692 </i>
   </energy>
  </scstep>
  <scstep>
   <time name="dav">    3.24    3.24</time>
   <time name="total">    3.76    3.77</time>
   <energy>
    <i name="e_fr_energy">    -84.33422769 </i>
    <i name="e_wo_entrp">    -84.32311416 </i>
    <i name="e_0_energy">    -84.32867093 </i>
   </energy>
  </scstep>
  <scstep>
   <time name="dav">    3.00    3.00</time>
   <time name="total">    3.52    3.54</time>
   <energy>
    <i name="e_fr_energy">    -84.33448464 </i>
    <i name="e_wo_entrp">    -84.32331252 </i>
    <i name="e_0_energy">    -84.32889858 </i>
   </energy>
  </scstep>
  <scstep>
   <time name="dav">    2.56    2.56</time>
   <time name="total">    3.07    3.09</time>
   <energy>
    <i name="e_fr_energy">    -84.33435267 </i>
    <i name="e_wo_entrp">    -84.32318368 </i>
    <i name="e_0_energy">    -84.32876817 </i>
   </energy>
  </scstep>
  <scstep>
   <time name="dav">    3.25    3.25</time>
   <time name="total">    3.77    3.78</time>
   <energy>
    <i name="e_fr_energy">    -84.33473736 </i>
    <i name="e_wo_entrp">    -84.32354232 </i>
    <i name="e_0_energy">    -84.32913984 </i>
   </energy>
  </scstep>
  <scstep>
   <time name="dav">    3.46    3.46</time>
   <time name="total">    3.98    4.00</time>
   <energy>
    <i name="e_fr_energy">    -84.33561304 </i>
    <i name="e_wo_entrp">    -84.32439338 </i>
    <i name="e_0_energy">    -84.33000321 </i>
   </energy>
  </scstep>
  <scstep>
   <time name="dav">    3.15    3.15</time>
   <time name="total">    3.90    3.91</time>
   <energy>
    <i name="e_fr_energy">    -84.33460919 </i>
    <i name="e_wo_entrp">    -84.32372285 </i>
    <i name="e_0_energy">    -84.32916602 </i>
   </energy>
  </scstep>
  <scstep>
   <time name="dav">    3.19    3.19</time>
   <time name="total">    3.71    3.72</time>
   <energy>
    <i name="e_fr_energy">    -84.33674186 </i>
    <i name="e_wo_entrp">    -84.32586675 </i>
    <i name="e_0_energy">    -84.33130431 </i>
   </energy>
  </scstep>
  <scstep>
   <time name="dav">    3.30    3.30</time>
   <time name="total">    3.82    3.84</time>
   <energy>
    <i name="e_fr_energy">    -84.33707209 </i>
    <i name="e_wo_entrp">    -84.32622171 </i>
    <i name="e_0_energy">    -84.33164690 </i>
   </energy>
  </scstep>
  <scstep>
   <time name="dav">    3.46    3.46</time>
   <time name="total">    3.98    3.99</time>
   <energy>
    <i name="e_fr_energy">    -84.33736420 </i>
    <i name="e_wo_entrp">    -84.32651542 </i>
    <i name="e_0_energy">    -84.33193981 </i>
   </energy>
  </scstep>
  <scstep>
   <time name="dav">    3.12    3.12</time>
   <time name="total">    3.64    3.66</time>
   <energy>
    <i name="e_fr_energy">    -84.33704175 </i>
    <i name="e_wo_entrp">    -84.32621053 </i>
    <i name="e_0_energy">    -84.33162614 </i>
   </energy>
  </scstep>
  <scstep>
   <time name="dav">    2.99    2.99</time>
   <time name="total">    3.51    3.53</time>
   <energy>
    <i name="e_fr_energy">    -84.33678274 </i>
    <i name="e_wo_entrp">    -84.32596247 </i>
    <i name="e_0_energy">    -84.33137261 </i>
   </energy>
  </scstep>
  <scstep>
   <time name="dav">    3.47    3.47</time>
   <time name="total">    3.99    4.01</time>
   <energy>
    <i name="e_fr_energy">    -84.33736618 </i>
    <i name="e_wo_entrp">    -84.32646699 </i>
    <i name="e_0_energy">    -84.33191659 </i>
   </energy>
  </scstep>
  <scstep>
   <time name="dav">    3.46    3.46</time>
   <time name="total">    3.98    4.00</time>
   <energy>
    <i name="e_fr_energy">    -84.33737539 </i>
    <i name="e_wo_entrp">    -84.32642645 </i>
    <i name="e_0_energy">    -84.33190092 </i>
   </energy>
  </scstep>
  <scstep>
   <time name="dav">    3.41    3.41</time>
   <time name="total">    3.93    3.95</time>
   <energy>
    <i name="e_fr_energy">    -84.33731248 </i>
    <i name="e_wo_entrp">    -84.32634258 </i>
    <i name="e_0_energy">    -84.33182753 </i>
   </energy>
  </scstep>
  <scstep>
   <time name="dav">    3.16    3.16</time>
   <time name="total">    3.68    3.70</time>
   <energy>
    <i name="e_fr_energy">    -84.33804330 </i>
    <i name="e_wo_entrp">    -84.32696779 </i>
    <i name="e_0_energy">    -84.33250555 </i>
   </energy>
  </scstep>
  <scstep>
   <time name="dav">    3.39    3.39</time>
   <time name="total">    3.91    3.92</time>
   <energy>
    <i name="e_fr_energy">    -84.34215071 </i>
    <i name="e_wo_entrp">    -84.33088270 </i>
    <i name="e_0_energy">    -84.33651671 </i>
   </energy>
  </scstep>
  <scstep>
   <time name="dav">    3.50    3.50</time>
   <time name="total">    4.02    4.04</time>
   <energy>
    <i name="e_fr_energy">    -84.34305804 </i>
    <i name="e_wo_entrp">    -84.33188332 </i>
    <i name="e_0_energy">    -84.33747068 </i>
   </energy>
  </scstep>
  <scstep>
   <time name="dav">    3.30    3.53</time>
   <time name="total">    3.82    4.06</time>
   <energy>
    <i name="e_fr_energy">    -84.34324108 </i>
    <i name="e_wo_entrp">    -84.33209428 </i>
    <i name="e_0_energy">    -84.33766768 </i>
   </energy>
  </scstep>
  <scstep>
   <time name="dav">    3.06    3.06</time>
   <time name="total">    3.58    3.60</time>
   <energy>
    <i name="e_fr_energy">    -84.34313156 </i>
    <i name="e_wo_entrp">    -84.33199057 </i>
    <i name="e_0_energy">    -84.33756106 </i>
   </energy>
  </scstep>
  <scstep>
   <time name="dav">    2.77    2.77</time>
   <time name="total">    3.29    3.31</time>
   <energy>
    <i name="e_fr_energy">    -84.34288273 </i>
    <i name="e_wo_entrp">    -84.33171638 </i>
    <i name="e_0_energy">    -84.33729956 </i>
   </energy>
  </scstep>
  <scstep>
   <time name="dav">    3.27    3.27</time>
   <time name="total">    3.80    3.81</time>
   <energy>
    <i name="e_fr_energy">    -84.34058428 </i>
    <i name="e_wo_entrp">    -84.32898658 </i>
    <i name="e_0_energy">    -84.33478543 </i>
   </energy>
  </scstep>
  <scstep>
   <time name="dav">    3.28    3.28</time>
   <time name="total">    3.81    3.82</time>
   <energy>
    <i name="e_fr_energy">    -84.34102995 </i>
    <i name="e_wo_entrp">    -84.32941277 </i>
    <i name="e_0_energy">    -84.33522136 </i>
   </energy>
  </scstep>
  <scstep>
   <time name="dav">    3.08    3.08</time>
   <time name="total">    3.61    3.62</time>
   <energy>
    <i name="e_fr_energy">    -84.34109467 </i>
    <i name="e_wo_entrp">    -84.32948351 </i>
    <i name="e_0_energy">    -84.33528909 </i>
   </energy>
  </scstep>
  <scstep>
   <time name="dav">    2.27    2.27</time>
   <time name="total">    2.79    2.81</time>
   <energy>
    <i name="e_fr_energy">    -84.34113381 </i>
    <i name="e_wo_entrp">    -84.32951897 </i>
    <i name="e_0_energy">    -84.33532639 </i>
   </energy>
  </scstep>
  <scstep>
   <time name="dav">    3.46    3.46</time>
   <time name="total">    3.98    3.99</time>
   <energy>
    <i name="e_fr_energy">    -84.34090573 </i>
    <i name="e_wo_entrp">    -84.32931855 </i>
    <i name="e_0_energy">    -84.33511214 </i>
   </energy>
  </scstep>
  <scstep>
   <time name="dav">    3.39    3.39</time>
   <time name="total">    3.91    3.93</time>
   <energy>
    <i name="e_fr_energy">    -84.34182343 </i>
    <i name="e_wo_entrp">    -84.33028220 </i>
    <i name="e_0_energy">    -84.33605282 </i>
   </energy>
  </scstep>
  <scstep>
   <time name="dav">    3.26    3.26</time>
   <time name="total">    3.78    3.80</time>
   <energy>
    <i name="e_fr_energy">    -84.34145945 </i>
    <i name="e_wo_entrp">    -84.32997653 </i>
    <i name="e_0_energy">    -84.33571799 </i>
   </energy>
  </scstep>
  <scstep>
   <time name="dav">    3.22    3.23</time>
   <time name="total">    3.75    3.76</time>
   <energy>
    <i name="e_fr_energy">    -84.34125714 </i>
    <i name="e_wo_entrp">    -84.32984379 </i>
    <i name="e_0_energy">    -84.33555046 </i>
   </energy>
  </scstep>
  <scstep>
   <time name="dav">    3.40    3.40</time>
   <time name="total">    3.92    3.94</time>
   <energy>
    <i name="e_fr_energy">    -84.33997079 </i>
    <i name="e_wo_entrp">    -84.32870230 </i>
    <i name="e_0_energy">    -84.33433654 </i>
   </energy>
  </scstep>
  <scstep>
   <time name="dav">    3.56    3.56</time>
   <time name="total">    4.08    4.10</time>
   <energy>
    <i name="e_fr_energy">    -84.33820820 </i>
    <i name="e_wo_entrp">    -84.32696998 </i>
    <i name="e_0_energy">    -84.33258909 </i>
   </energy>
  </scstep>
  <scstep>
   <time name="dav">    3.50    3.50</time>
   <time name="total">    4.02    4.03</time>
   <energy>
    <i name="e_fr_energy">    -84.33798668 </i>
    <i name="e_wo_entrp">    -84.32669291 </i>
    <i name="e_0_energy">    -84.33233980 </i>
   </energy>
  </scstep>
  <scstep>
   <time name="dav">    3.12    3.12</time>
   <time name="total">    3.64    3.66</time>
   <energy>
    <i name="e_fr_energy">    -84.33855800 </i>
    <i name="e_wo_entrp">    -84.32717810 </i>
    <i name="e_0_energy">    -84.33286805 </i>
   </energy>
  </scstep>
  <scstep>
   <time name="dav">    3.46    3.46</time>
   <time name="total">    3.98    4.00</time>
   <energy>
    <i name="e_fr_energy">    -84.33893709 </i>
    <i name="e_wo_entrp">    -84.32748118 </i>
    <i name="e_0_energy">    -84.33320914 </i>
   </energy>
  </scstep>
  <scstep>
   <time name="dav">    3.41    3.41</time>
   <time name="total">    3.93    3.95</time>
   <energy>
    <i name="e_fr_energy">    -84.33951257 </i>
    <i name="e_wo_entrp">    -84.32789691 </i>
    <i name="e_0_energy">    -84.33370474 </i>
   </energy>
  </scstep>
  <scstep>
   <time name="dav">    3.57    3.57</time>
   <time name="total">    4.09    4.10</time>
   <energy>
    <i name="e_fr_energy">    -84.33986196 </i>
    <i name="e_wo_entrp">    -84.32807758 </i>
    <i name="e_0_energy">    -84.33396977 </i>
   </energy>
  </scstep>
  <scstep>
   <time name="dav">    3.74    3.74</time>
   <time name="total">    4.26    4.28</time>
   <energy>
    <i name="e_fr_energy">    -84.34004522 </i>
    <i name="e_wo_entrp">    -84.32815525 </i>
    <i name="e_0_energy">    -84.33410024 </i>
   </energy>
  </scstep>
  <scstep>
   <time name="dav">    3.00    3.00</time>
   <time name="total">    3.52    3.53</time>
   <energy>
    <i name="e_fr_energy">    -84.33995685 </i>
    <i name="e_wo_entrp">    -84.32808869 </i>
    <i name="e_0_energy">    -84.33402277 </i>
   </energy>
  </scstep>
  <scstep>
   <time name="dav">    2.37    2.37</time>
   <time name="total">    2.89    2.91</time>
   <energy>
    <i name="e_fr_energy">    -84.33994530 </i>
    <i name="e_wo_entrp">    -84.32808563 </i>
    <i name="e_0_energy">    -84.33401547 </i>
   </energy>
  </scstep>
  <scstep>
   <time name="dav">    1.65    1.65</time>
   <time name="total">    2.17    2.18</time>
   <energy>
    <i name="e_fr_energy">    -84.33993367 </i>
    <i name="e_wo_entrp">    -84.32807713 </i>
    <i name="e_0_energy">    -84.33400540 </i>
   </energy>
  </scstep>
  <scstep>
   <time name="dav">    1.89    1.89</time>
   <time name="total">    2.42    2.43</time>
   <energy>
    <i name="e_fr_energy">    -84.33989849 </i>
    <i name="e_wo_entrp">    -84.32805500 </i>
    <i name="e_0_energy">    -84.33397675 </i>
   </energy>
  </scstep>
  <scstep>
   <time name="dav">    3.49    3.49</time>
   <time name="total">    4.02    4.03</time>
   <energy>
    <i name="e_fr_energy">    -84.33945443 </i>
    <i name="e_wo_entrp">    -84.32772367 </i>
    <i name="e_0_energy">    -84.33358905 </i>
   </energy>
  </scstep>
  <scstep>
   <time name="dav">    3.24    3.25</time>
   <time name="total">    3.77    3.78</time>
   <energy>
    <i name="e_fr_energy">    -84.33979896 </i>
    <i name="e_wo_entrp">    -84.32798247 </i>
    <i name="e_0_energy">    -84.33389071 </i>
   </energy>
  </scstep>
  <scstep>
   <time name="dav">    3.29    3.29</time>
   <time name="total">    3.81    3.83</time>
   <energy>
    <i name="e_fr_energy">    -84.33970689 </i>
    <i name="e_wo_entrp">    -84.32793377 </i>
    <i name="e_0_energy">    -84.33382033 </i>
   </energy>
  </scstep>
  <scstep>
   <time name="dav">    2.86    2.86</time>
   <time name="total">    3.38    3.40</time>
   <energy>
    <i name="e_fr_energy">    -84.33971962 </i>
    <i name="e_wo_entrp">    -84.32794945 </i>
    <i name="e_0_energy">    -84.33383453 </i>
   </energy>
  </scstep>
  <scstep>
   <time name="dav">    1.73    1.73</time>
   <time name="total">    1.94    1.95</time>
   <energy>
    <i name="alphaZ">    635.64916683 </i>
    <i name="ewald">  -8945.53431673 </i>
    <i name="hartreedc">  -3978.56076371 </i>
    <i name="XCdc">    571.08975528 </i>
    <i name="pawpsdc">  16277.00226534 </i>
    <i name="pawaedc"> -16647.89058895 </i>
    <i name="eentropy">     -0.01176630 </i>
    <i name="bandstr">   -823.46303762 </i>
    <i name="atom">  12827.37956309 </i>
    <i name="e_fr_energy">    -84.33972277 </i>
    <i name="e_wo_entrp">    -84.32795647 </i>
    <i name="e_0_energy">    -84.33383962 </i>
   </energy>
  </scstep>
  <structure>
   <crystal>
    <varray name="basis" >
     <v>       4.00000000       0.00000000       0.00000000 </v>
     <v>       0.00000000       8.00000000       0.00000000 </v>
     <v>       0.00000000       0.00000000       8.00000000 </v>
    </varray>
    <i name="volume">    256.00000000 </i>
    <varray name="rec_basis" >
     <v>       0.25000000       0.00000000       0.00000000 </v>
     <v>       0.00000000       0.12500000       0.00000000 </v>
     <v>       0.00000000       0.00000000       0.12500000 </v>
    </varray>
   </crystal>
   <varray name="positions" >
    <v>       0.00000000       0.75000000       0.75000000 </v>
    <v>       0.00000000       0.25000000       0.75000000 </v>
    <v>       0.00000000       0.75000000       0.25000000 </v>
    <v>       0.00000000       0.25000000       0.25000000 </v>
    <v>       0.50000000       0.00000000       0.00000000 </v>
    <v>       0.50000000       0.50000000       0.00000000 </v>
    <v>       0.50000000       0.00000000       0.50000000 </v>
    <v>       0.50000000       0.50000000       0.50000000 </v>
    <v>       0.50000000       0.50000000       0.75000000 </v>
    <v>       0.50000000       0.50000000       0.25000000 </v>
    <v>       0.00000000       0.50000000       0.00000000 </v>
    <v>       0.00000000       0.00000000       0.50000000 </v>
    <v>       0.00000000       0.50000000       0.50000000 </v>
    <v>       0.50000000       0.75000000       0.00000000 </v>
    <v>       0.50000000       0.25000000       0.00000000 </v>
    <v>       0.50000000       0.75000000       0.50000000 </v>
    <v>       0.50000000       0.25000000       0.50000000 </v>
   </varray>
  </structure>
  <varray name="forces" >
   <v>       0.00000000      -1.91448700      -0.64532528 </v>
   <v>       0.00000000       1.91448700      -0.64532528 </v>
   <v>       0.00000000      -1.91448700       0.64532528 </v>
   <v>       0.00000000       1.91448700       0.64532528 </v>
   <v>       0.00000000       0.00000000       0.00000000 </v>
   <v>       0.00000000       0.00000000       0.00000000 </v>
   <v>       0.00000000       0.00000000       0.00000000 </v>
   <v>       0.00000000       0.00000000       0.00000000 </v>
   <v>       0.00000000       0.00000000      -0.08550611 </v>
   <v>       0.00000000       0.00000000       0.08550611 </v>
   <v>       0.00000000       0.00000000       0.00000000 </v>
   <v>       0.00000000       0.00000000       0.00000000 </v>
   <v>       0.00000000       0.00000000       0.00000000 </v>
   <v>       0.00000000       2.97755684       0.00000000 </v>
   <v>       0.00000000      -2.97755684       0.00000000 </v>
   <v>       0.00000000       1.23115695       0.00000000 </v>
   <v>       0.00000000      -1.23115695       0.00000000 </v>
  </varray>
  <varray name="stress" >
   <v>     -99.63970238       0.00000000       0.00000000 </v>
   <v>       0.00000000    -102.58056923       0.00000000 </v>
   <v>       0.00000000       0.00000000    -114.23390663 </v>
  </varray>
  <energy>
   <i name="e_fr_energy">    -84.33972277 </i>
   <i name="e_wo_entrp">    -84.33383962 </i>
   <i name="e_0_energy">     -0.01176630 </i>
  </energy>
  <time name="totalsc">  381.37  383.37</time>
  <eigenvalues>
   <array>
    <dimension dim="1">band</dimension>
    <dimension dim="2">kpoint</dimension>
    <dimension dim="3">spin</dimension>
    <field>eigene</field>
    <field>occ</field>
    <set>
     <set comment="spin 1">
      <set comment="kpoint 1">
       <r>  -31.0638    1.0000 </r>
       <r>  -31.0497    1.0000 </r>
       <r>  -31.0496    1.0000 </r>
       <r>  -31.0367    1.0000 </r>
       <r>  -15.0018    1.0000 </r>
       <r>  -14.8653    1.0000 </r>
       <r>  -14.4830    1.0000 </r>
       <r>  -14.3722    1.0000 </r>
       <r>  -14.0248    1.0000 </r>
       <r>  -13.8644    1.0000 </r>
       <r>  -13.8256    1.0000 </r>
       <r>  -13.5336    1.0000 </r>
       <r>  -13.3974    1.0000 </r>
       <r>  -13.0744    1.0000 </r>
       <r>  -13.0605    1.0000 </r>
       <r>  -12.9858    1.0000 </r>
       <r>  -12.9575    1.0000 </r>
       <r>  -12.9498    1.0000 </r>
       <r>  -12.9465    1.0000 </r>
       <r>  -12.9221    1.0000 </r>
       <r>  -12.8788    1.0000 </r>
       <r>  -12.8132    1.0000 </r>
       <r>  -12.7375    1.0000 </r>
       <r>  -12.5077    1.0000 </r>
       <r>  -12.3959    1.0000 </r>
       <r>   -3.0385    1.0000 </r>
       <r>   -2.8138    1.0000 </r>
       <r>   -2.5072    1.0000 </r>
       <r>   -2.1137    1.0000 </r>
       <r>   -1.6316    1.0000 </r>
       <r>   -1.5714    1.0000 </r>
       <r>   -1.4664    1.0000 </r>
       <r>   -1.4196    1.0000 </r>
       <r>   -1.2133    1.0000 </r>
       <r>   -1.0146    1.0000 </r>
       <r>   -0.9894    1.0000 </r>
       <r>   -0.9640    1.0000 </r>
       <r>   -0.8815    1.0000 </r>
       <r>   -0.8617    1.0000 </r>
       <r>   -0.8567    1.0000 </r>
       <r>   -0.8353    1.0000 </r>
       <r>   -0.8020    1.0000 </r>
       <r>   -0.7226    1.0000 </r>
       <r>   -0.6975    1.0000 </r>
       <r>   -0.6514    1.0000 </r>
       <r>   -0.4984    1.0000 </r>
       <r>   -0.4575    1.0000 </r>
       <r>   -0.4488    1.0000 </r>
       <r>   -0.3902    1.0000 </r>
       <r>   -0.1688    1.0000 </r>
       <r>   -0.0143    1.0000 </r>
       <r>    0.1838    1.0000 </r>
       <r>    0.3839    1.0000 </r>
       <r>    0.4327    1.0000 </r>
       <r>    0.6296    1.0000 </r>
       <r>    0.9946    1.0000 </r>
       <r>    1.0032    1.0000 </r>
       <r>    1.0787    1.0000 </r>
       <r>    1.3662    1.0000 </r>
       <r>    1.3761    1.0000 </r>
       <r>    1.4000    1.0000 </r>
       <r>    1.5093    1.0000 </r>
       <r>    1.5222    1.0000 </r>
       <r>    1.7212    1.0000 </r>
       <r>    1.7749    1.0000 </r>
       <r>    1.7924    1.0000 </r>
       <r>    1.8562    1.0000 </r>
       <r>    1.8819    1.0000 </r>
       <r>    1.9787    1.0000 </r>
       <r>    2.0033    1.0000 </r>
       <r>    2.3790    0.9999 </r>
       <r>    3.0435    0.0000 </r>
       <r>    4.1761    0.0000 </r>
       <r>    4.7911    0.0000 </r>
       <r>    6.1921    0.0000 </r>
       <r>    7.4695    0.0000 </r>
       <r>    7.8145    0.0000 </r>
       <r>    7.8927    0.0000 </r>
       <r>    8.1058    0.0000 </r>
       <r>    8.3343    0.0000 </r>
       <r>    8.4302    0.0000 </r>
       <r>    9.1555    0.0000 </r>
       <r>    9.3063    0.0000 </r>
       <r>    9.6536    0.0000 </r>
       <r>    9.8481    0.0000 </r>
       <r>    9.8534    0.0000 </r>
       <r>    9.9001    0.0000 </r>
       <r>    9.9947    0.0000 </r>
       <r>   10.0055    0.0000 </r>
       <r>   10.1396    0.0000 </r>
       <r>   10.1505    0.0000 </r>
       <r>   10.2375    0.0000 </r>
      </set>
      <set comment="kpoint 2">
       <r>  -31.0589    1.0000 </r>
       <r>  -31.0452    1.0000 </r>
       <r>  -31.0452    1.0000 </r>
       <r>  -31.0326    1.0000 </r>
       <r>  -14.8750    1.0000 </r>
       <r>  -14.7947    1.0000 </r>
       <r>  -14.4354    1.0000 </r>
       <r>  -14.2885    1.0000 </r>
       <r>  -14.0156    1.0000 </r>
       <r>  -13.9986    1.0000 </r>
       <r>  -13.8663    1.0000 </r>
       <r>  -13.6586    1.0000 </r>
       <r>  -13.4576    1.0000 </r>
       <r>  -13.1388    1.0000 </r>
       <r>  -13.0666    1.0000 </r>
       <r>  -13.0512    1.0000 </r>
       <r>  -13.0057    1.0000 </r>
       <r>  -12.9169    1.0000 </r>
       <r>  -12.8668    1.0000 </r>
       <r>  -12.8091    1.0000 </r>
       <r>  -12.7914    1.0000 </r>
       <r>  -12.7400    1.0000 </r>
       <r>  -12.7335    1.0000 </r>
       <r>  -12.6636    1.0000 </r>
       <r>  -12.4592    1.0000 </r>
       <r>   -3.0294    1.0000 </r>
       <r>   -2.8571    1.0000 </r>
       <r>   -2.5283    1.0000 </r>
       <r>   -2.0166    1.0000 </r>
       <r>   -1.8972    1.0000 </r>
       <r>   -1.8864    1.0000 </r>
       <r>   -1.8703    1.0000 </r>
       <r>   -1.8052    1.0000 </r>
       <r>   -1.7251    1.0000 </r>
       <r>   -1.6676    1.0000 </r>
       <r>   -1.4537    1.0000 </r>
       <r>   -1.4215    1.0000 </r>
       <r>   -1.2937    1.0000 </r>
       <r>   -1.1827    1.0000 </r>
       <r>   -0.9643    1.0000 </r>
       <r>   -0.7864    1.0000 </r>
       <r>   -0.7277    1.0000 </r>
       <r>   -0.7246    1.0000 </r>
       <r>   -0.6781    1.0000 </r>
       <r>   -0.5916    1.0000 </r>
       <r>   -0.5205    1.0000 </r>
       <r>   -0.4181    1.0000 </r>
       <r>   -0.4151    1.0000 </r>
       <r>   -0.0096    1.0000 </r>
       <r>    0.0258    1.0000 </r>
       <r>    0.2548    1.0000 </r>
       <r>    0.6187    1.0000 </r>
       <r>    0.6819    1.0000 </r>
       <r>    0.6842    1.0000 </r>
       <r>    0.8146    1.0000 </r>
       <r>    1.0534    1.0000 </r>
       <r>    1.0954    1.0000 </r>
       <r>    1.1307    1.0000 </r>
       <r>    1.3420    1.0000 </r>
       <r>    1.3441    1.0000 </r>
       <r>    1.4316    1.0000 </r>
       <r>    1.6381    1.0000 </r>
       <r>    1.7377    1.0000 </r>
       <r>    1.7397    1.0000 </r>
       <r>    1.8339    1.0000 </r>
       <r>    1.8917    1.0000 </r>
       <r>    1.9078    1.0000 </r>
       <r>    2.0526    1.0000 </r>
       <r>    2.0615    1.0000 </r>
       <r>    2.3374    1.0000 </r>
       <r>    2.7688    0.0000 </r>
       <r>    3.5674    0.0000 </r>
       <r>    4.4666    0.0000 </r>
       <r>    4.8928    0.0000 </r>
       <r>    6.1862    0.0000 </r>
       <r>    7.2279    0.0000 </r>
       <r>    7.7954    0.0000 </r>
       <r>    8.1268    0.0000 </r>
       <r>    8.3544    0.0000 </r>
       <r>    8.4388    0.0000 </r>
       <r>    8.4751    0.0000 </r>
       <r>    9.1356    0.0000 </r>
       <r>    9.3406    0.0000 </r>
       <r>    9.5430    0.0000 </r>
       <r>    9.7437    0.0000 </r>
       <r>    9.9167    0.0000 </r>
       <r>   10.1011    0.0000 </r>
       <r>   10.1934    0.0000 </r>
       <r>   10.3097    0.0000 </r>
       <r>   10.3684    0.0000 </r>
       <r>   10.4881    0.0000 </r>
       <r>   10.4951    0.0000 </r>
      </set>
      <set comment="kpoint 3">
       <r>  -31.0511    1.0000 </r>
       <r>  -31.0382    1.0000 </r>
       <r>  -31.0379    1.0000 </r>
       <r>  -31.0259    1.0000 </r>
       <r>  -14.8066    1.0000 </r>
       <r>  -14.5215    1.0000 </r>
       <r>  -14.3544    1.0000 </r>
       <r>  -14.2662    1.0000 </r>
       <r>  -13.9815    1.0000 </r>
       <r>  -13.9373    1.0000 </r>
       <r>  -13.9000    1.0000 </r>
       <r>  -13.8471    1.0000 </r>
       <r>  -13.5587    1.0000 </r>
       <r>  -13.2492    1.0000 </r>
       <r>  -13.1373    1.0000 </r>
       <r>  -13.0859    1.0000 </r>
       <r>  -13.0351    1.0000 </r>
       <r>  -12.9831    1.0000 </r>
       <r>  -12.8934    1.0000 </r>
       <r>  -12.8636    1.0000 </r>
       <r>  -12.8471    1.0000 </r>
       <r>  -12.7490    1.0000 </r>
       <r>  -12.5799    1.0000 </r>
       <r>  -12.5548    1.0000 </r>
       <r>  -12.5190    1.0000 </r>
       <r>   -3.1606    1.0000 </r>
       <r>   -3.0442    1.0000 </r>
       <r>   -2.8644    1.0000 </r>
       <r>   -2.7098    1.0000 </r>
       <r>   -2.4695    1.0000 </r>
       <r>   -2.4147    1.0000 </r>
       <r>   -2.2232    1.0000 </r>
       <r>   -2.2023    1.0000 </r>
       <r>   -1.9168    1.0000 </r>
       <r>   -1.8861    1.0000 </r>
       <r>   -1.6201    1.0000 </r>
       <r>   -1.5134    1.0000 </r>
       <r>   -1.4980    1.0000 </r>
       <r>   -1.4748    1.0000 </r>
       <r>   -0.9621    1.0000 </r>
       <r>   -0.8043    1.0000 </r>
       <r>   -0.7264    1.0000 </r>
       <r>   -0.7020    1.0000 </r>
       <r>   -0.5777    1.0000 </r>
       <r>   -0.5677    1.0000 </r>
       <r>   -0.4583    1.0000 </r>
       <r>   -0.2903    1.0000 </r>
       <r>   -0.2564    1.0000 </r>
       <r>    0.0366    1.0000 </r>
       <r>    0.1632    1.0000 </r>
       <r>    0.5753    1.0000 </r>
       <r>    0.5933    1.0000 </r>
       <r>    0.8899    1.0000 </r>
       <r>    0.9198    1.0000 </r>
       <r>    0.9357    1.0000 </r>
       <r>    1.1319    1.0000 </r>
       <r>    1.1474    1.0000 </r>
       <r>    1.3270    1.0000 </r>
       <r>    1.3467    1.0000 </r>
       <r>    1.3654    1.0000 </r>
       <r>    1.5473    1.0000 </r>
       <r>    1.5756    1.0000 </r>
       <r>    1.6614    1.0000 </r>
       <r>    1.6621    1.0000 </r>
       <r>    1.7806    1.0000 </r>
       <r>    2.2187    1.0000 </r>
       <r>    2.2415    1.0000 </r>
       <r>    2.2820    1.0000 </r>
       <r>    2.4447    0.9758 </r>
       <r>    2.5507    0.1528 </r>
       <r>    4.0984    0.0000 </r>
       <r>    4.2246    0.0000 </r>
       <r>    4.3324    0.0000 </r>
       <r>    4.8094    0.0000 </r>
       <r>    5.7313    0.0000 </r>
       <r>    7.3162    0.0000 </r>
       <r>    7.6527    0.0000 </r>
       <r>    8.5697    0.0000 </r>
       <r>    8.8129    0.0000 </r>
       <r>    8.9265    0.0000 </r>
       <r>    9.1433    0.0000 </r>
       <r>    9.2736    0.0000 </r>
       <r>    9.3207    0.0000 </r>
       <r>    9.8896    0.0000 </r>
       <r>   10.0159    0.0000 </r>
       <r>   10.0289    0.0000 </r>
       <r>   10.4813    0.0000 </r>
       <r>   10.4841    0.0000 </r>
       <r>   10.5489    0.0000 </r>
       <r>   10.6002    0.0000 </r>
       <r>   10.8887    0.0000 </r>
       <r>   11.1049    0.0000 </r>
      </set>
      <set comment="kpoint 4">
       <r>  -31.0603    1.0000 </r>
       <r>  -31.0533    1.0000 </r>
       <r>  -31.0464    1.0000 </r>
       <r>  -31.0399    1.0000 </r>
       <r>  -14.9123    1.0000 </r>
       <r>  -14.8482    1.0000 </r>
       <r>  -14.6663    1.0000 </r>
       <r>  -14.3199    1.0000 </r>
       <r>  -14.0011    1.0000 </r>
       <r>  -13.8607    1.0000 </r>
       <r>  -13.7868    1.0000 </r>
       <r>  -13.5905    1.0000 </r>
       <r>  -13.4012    1.0000 </r>
       <r>  -13.1497    1.0000 </r>
       <r>  -13.0423    1.0000 </r>
       <r>  -12.9791    1.0000 </r>
       <r>  -12.9643    1.0000 </r>
       <r>  -12.9432    1.0000 </r>
       <r>  -12.9327    1.0000 </r>
       <r>  -12.9287    1.0000 </r>
       <r>  -12.8998    1.0000 </r>
       <r>  -12.7415    1.0000 </r>
       <r>  -12.7032    1.0000 </r>
       <r>  -12.5001    1.0000 </r>
       <r>  -12.4320    1.0000 </r>
       <r>   -2.7391    1.0000 </r>
       <r>   -2.6749    1.0000 </r>
       <r>   -2.2759    1.0000 </r>
       <r>   -2.0749    1.0000 </r>
       <r>   -1.6701    1.0000 </r>
       <r>   -1.6307    1.0000 </r>
       <r>   -1.5139    1.0000 </r>
       <r>   -1.5011    1.0000 </r>
       <r>   -1.4193    1.0000 </r>
       <r>   -1.3667    1.0000 </r>
       <r>   -1.2321    1.0000 </r>
       <r>   -1.2133    1.0000 </r>
       <r>   -1.1649    1.0000 </r>
       <r>   -1.0357    1.0000 </r>
       <r>   -1.0025    1.0000 </r>
       <r>   -0.8021    1.0000 </r>
       <r>   -0.7920    1.0000 </r>
       <r>   -0.6909    1.0000 </r>
       <r>   -0.6672    1.0000 </r>
       <r>   -0.6321    1.0000 </r>
       <r>   -0.4963    1.0000 </r>
       <r>   -0.3901    1.0000 </r>
       <r>   -0.3544    1.0000 </r>
       <r>   -0.2410    1.0000 </r>
       <r>   -0.0331    1.0000 </r>
       <r>    0.0332    1.0000 </r>
       <r>    0.4609    1.0000 </r>
       <r>    0.5638    1.0000 </r>
       <r>    0.5643    1.0000 </r>
       <r>    0.7880    1.0000 </r>
       <r>    0.8321    1.0000 </r>
       <r>    1.0230    1.0000 </r>
       <r>    1.1235    1.0000 </r>
       <r>    1.1415    1.0000 </r>
       <r>    1.3797    1.0000 </r>
       <r>    1.4265    1.0000 </r>
       <r>    1.5727    1.0000 </r>
       <r>    1.6679    1.0000 </r>
       <r>    1.7091    1.0000 </r>
       <r>    1.7202    1.0000 </r>
       <r>    1.7541    1.0000 </r>
       <r>    1.7768    1.0000 </r>
       <r>    1.8235    1.0000 </r>
       <r>    2.0407    1.0000 </r>
       <r>    2.0542    1.0000 </r>
       <r>    2.2624    1.0000 </r>
       <r>    3.3173    0.0000 </r>
       <r>    4.3375    0.0000 </r>
       <r>    4.8142    0.0000 </r>
       <r>    6.2900    0.0000 </r>
       <r>    7.2031    0.0000 </r>
       <r>    7.5425    0.0000 </r>
       <r>    7.9667    0.0000 </r>
       <r>    8.1200    0.0000 </r>
       <r>    8.4102    0.0000 </r>
       <r>    8.4190    0.0000 </r>
       <r>    8.9002    0.0000 </r>
       <r>    9.0097    0.0000 </r>
       <r>    9.0726    0.0000 </r>
       <r>    9.5990    0.0000 </r>
       <r>    9.9406    0.0000 </r>
       <r>   10.0351    0.0000 </r>
       <r>   10.0376    0.0000 </r>
       <r>   10.2076    0.0000 </r>
       <r>   10.2984    0.0000 </r>
       <r>   10.3448    0.0000 </r>
       <r>   10.4825    0.0000 </r>
      </set>
      <set comment="kpoint 5">
       <r>  -31.0555    1.0000 </r>
       <r>  -31.0487    1.0000 </r>
       <r>  -31.0421    1.0000 </r>
       <r>  -31.0357    1.0000 </r>
       <r>  -14.8169    1.0000 </r>
       <r>  -14.7492    1.0000 </r>
       <r>  -14.5454    1.0000 </r>
       <r>  -14.3274    1.0000 </r>
       <r>  -13.9916    1.0000 </r>
       <r>  -13.9818    1.0000 </r>
       <r>  -13.8740    1.0000 </r>
       <r>  -13.6530    1.0000 </r>
       <r>  -13.4620    1.0000 </r>
       <r>  -13.1552    1.0000 </r>
       <r>  -13.0726    1.0000 </r>
       <r>  -13.0565    1.0000 </r>
       <r>  -13.0152    1.0000 </r>
       <r>  -12.9075    1.0000 </r>
       <r>  -12.8842    1.0000 </r>
       <r>  -12.8014    1.0000 </r>
       <r>  -12.7676    1.0000 </r>
       <r>  -12.7295    1.0000 </r>
       <r>  -12.6967    1.0000 </r>
       <r>  -12.6351    1.0000 </r>
       <r>  -12.5177    1.0000 </r>
       <r>   -2.7651    1.0000 </r>
       <r>   -2.6658    1.0000 </r>
       <r>   -2.2996    1.0000 </r>
       <r>   -1.9817    1.0000 </r>
       <r>   -1.9153    1.0000 </r>
       <r>   -1.8890    1.0000 </r>
       <r>   -1.8757    1.0000 </r>
       <r>   -1.7582    1.0000 </r>
       <r>   -1.7316    1.0000 </r>
       <r>   -1.5835    1.0000 </r>
       <r>   -1.5473    1.0000 </r>
       <r>   -1.5244    1.0000 </r>
       <r>   -1.4220    1.0000 </r>
       <r>   -1.3914    1.0000 </r>
       <r>   -1.1917    1.0000 </r>
       <r>   -1.1770    1.0000 </r>
       <r>   -1.1116    1.0000 </r>
       <r>   -0.9634    1.0000 </r>
       <r>   -0.8453    1.0000 </r>
       <r>   -0.5484    1.0000 </r>
       <r>   -0.5035    1.0000 </r>
       <r>   -0.4160    1.0000 </r>
       <r>   -0.3792    1.0000 </r>
       <r>    0.1714    1.0000 </r>
       <r>    0.2156    1.0000 </r>
       <r>    0.4158    1.0000 </r>
       <r>    0.7098    1.0000 </r>
       <r>    0.7673    1.0000 </r>
       <r>    0.9095    1.0000 </r>
       <r>    0.9478    1.0000 </r>
       <r>    0.9712    1.0000 </r>
       <r>    1.1557    1.0000 </r>
       <r>    1.2164    1.0000 </r>
       <r>    1.2967    1.0000 </r>
       <r>    1.3399    1.0000 </r>
       <r>    1.3651    1.0000 </r>
       <r>    1.4598    1.0000 </r>
       <r>    1.6395    1.0000 </r>
       <r>    1.6559    1.0000 </r>
       <r>    1.8573    1.0000 </r>
       <r>    1.9694    1.0000 </r>
       <r>    2.0594    1.0000 </r>
       <r>    2.1367    1.0000 </r>
       <r>    2.1860    1.0000 </r>
       <r>    2.4738    0.8750 </r>
       <r>    2.8080    0.0000 </r>
       <r>    3.5457    0.0000 </r>
       <r>    4.3755    0.0000 </r>
       <r>    4.8857    0.0000 </r>
       <r>    6.2135    0.0000 </r>
       <r>    7.3693    0.0000 </r>
       <r>    7.8085    0.0000 </r>
       <r>    7.8424    0.0000 </r>
       <r>    8.0338    0.0000 </r>
       <r>    8.6793    0.0000 </r>
       <r>    8.9381    0.0000 </r>
       <r>    9.2257    0.0000 </r>
       <r>    9.3924    0.0000 </r>
       <r>    9.4261    0.0000 </r>
       <r>    9.7485    0.0000 </r>
       <r>    9.8045    0.0000 </r>
       <r>   10.0471    0.0000 </r>
       <r>   10.1332    0.0000 </r>
       <r>   10.2299    0.0000 </r>
       <r>   10.2726    0.0000 </r>
       <r>   10.3255    0.0000 </r>
       <r>   10.3994    0.0000 </r>
      </set>
      <set comment="kpoint 6">
       <r>  -31.0478    1.0000 </r>
       <r>  -31.0412    1.0000 </r>
       <r>  -31.0352    1.0000 </r>
       <r>  -31.0290    1.0000 </r>
       <r>  -14.7670    1.0000 </r>
       <r>  -14.4703    1.0000 </r>
       <r>  -14.4205    1.0000 </r>
       <r>  -14.2464    1.0000 </r>
       <r>  -14.0263    1.0000 </r>
       <r>  -13.9769    1.0000 </r>
       <r>  -13.9376    1.0000 </r>
       <r>  -13.8274    1.0000 </r>
       <r>  -13.5280    1.0000 </r>
       <r>  -13.1982    1.0000 </r>
       <r>  -13.1487    1.0000 </r>
       <r>  -13.1419    1.0000 </r>
       <r>  -13.0913    1.0000 </r>
       <r>  -12.8838    1.0000 </r>
       <r>  -12.8618    1.0000 </r>
       <r>  -12.8485    1.0000 </r>
       <r>  -12.8176    1.0000 </r>
       <r>  -12.7347    1.0000 </r>
       <r>  -12.6214    1.0000 </r>
       <r>  -12.6019    1.0000 </r>
       <r>  -12.5307    1.0000 </r>
       <r>   -3.0241    1.0000 </r>
       <r>   -2.8785    1.0000 </r>
       <r>   -2.7146    1.0000 </r>
       <r>   -2.6420    1.0000 </r>
       <r>   -2.4613    1.0000 </r>
       <r>   -2.2174    1.0000 </r>
       <r>   -2.1805    1.0000 </r>
       <r>   -2.0843    1.0000 </r>
       <r>   -1.8822    1.0000 </r>
       <r>   -1.8562    1.0000 </r>
       <r>   -1.7045    1.0000 </r>
       <r>   -1.6128    1.0000 </r>
       <r>   -1.5576    1.0000 </r>
       <r>   -1.4859    1.0000 </r>
       <r>   -1.4412    1.0000 </r>
       <r>   -1.2808    1.0000 </r>
       <r>   -1.1074    1.0000 </r>
       <r>   -0.9570    1.0000 </r>
       <r>   -0.9510    1.0000 </r>
       <r>   -0.5339    1.0000 </r>
       <r>   -0.4588    1.0000 </r>
       <r>   -0.3226    1.0000 </r>
       <r>   -0.2457    1.0000 </r>
       <r>    0.3118    1.0000 </r>
       <r>    0.5438    1.0000 </r>
       <r>    0.7273    1.0000 </r>
       <r>    0.7540    1.0000 </r>
       <r>    0.8779    1.0000 </r>
       <r>    0.9713    1.0000 </r>
       <r>    1.0663    1.0000 </r>
       <r>    1.0909    1.0000 </r>
       <r>    1.1506    1.0000 </r>
       <r>    1.2957    1.0000 </r>
       <r>    1.3256    1.0000 </r>
       <r>    1.3664    1.0000 </r>
       <r>    1.3793    1.0000 </r>
       <r>    1.6182    1.0000 </r>
       <r>    1.7166    1.0000 </r>
       <r>    1.7919    1.0000 </r>
       <r>    2.0359    1.0000 </r>
       <r>    2.0517    1.0000 </r>
       <r>    2.2207    1.0000 </r>
       <r>    2.5560    0.1199 </r>
       <r>    2.5584    0.1072 </r>
       <r>    2.7966    0.0000 </r>
       <r>    3.7771    0.0000 </r>
       <r>    4.1507    0.0000 </r>
       <r>    4.3175    0.0000 </r>
       <r>    4.9787    0.0000 </r>
       <r>    5.6017    0.0000 </r>
       <r>    7.3135    0.0000 </r>
       <r>    7.6867    0.0000 </r>
       <r>    8.4880    0.0000 </r>
       <r>    8.7143    0.0000 </r>
       <r>    8.8216    0.0000 </r>
       <r>    8.8875    0.0000 </r>
       <r>    9.4010    0.0000 </r>
       <r>    9.4445    0.0000 </r>
       <r>    9.8275    0.0000 </r>
       <r>    9.8454    0.0000 </r>
       <r>   10.2133    0.0000 </r>
       <r>   10.2569    0.0000 </r>
       <r>   10.5047    0.0000 </r>
       <r>   10.5398    0.0000 </r>
       <r>   10.6137    0.0000 </r>
       <r>   10.7254    0.0000 </r>
       <r>   11.0086    0.0000 </r>
      </set>
      <set comment="kpoint 7">
       <r>  -31.0602    1.0000 </r>
       <r>  -31.0531    1.0000 </r>
       <r>  -31.0465    1.0000 </r>
       <r>  -31.0400    1.0000 </r>
       <r>  -14.9277    1.0000 </r>
       <r>  -14.8441    1.0000 </r>
       <r>  -14.5993    1.0000 </r>
       <r>  -14.3033    1.0000 </r>
       <r>  -14.1172    1.0000 </r>
       <r>  -13.9788    1.0000 </r>
       <r>  -13.6850    1.0000 </r>
       <r>  -13.5326    1.0000 </r>
       <r>  -13.4903    1.0000 </r>
       <r>  -13.0676    1.0000 </r>
       <r>  -13.0573    1.0000 </r>
       <r>  -12.9769    1.0000 </r>
       <r>  -12.9589    1.0000 </r>
       <r>  -12.9487    1.0000 </r>
       <r>  -12.9310    1.0000 </r>
       <r>  -12.8475    1.0000 </r>
       <r>  -12.7791    1.0000 </r>
       <r>  -12.7701    1.0000 </r>
       <r>  -12.7228    1.0000 </r>
       <r>  -12.5823    1.0000 </r>
       <r>  -12.4807    1.0000 </r>
       <r>   -3.0323    1.0000 </r>
       <r>   -2.6826    1.0000 </r>
       <r>   -2.3503    1.0000 </r>
       <r>   -1.9691    1.0000 </r>
       <r>   -1.6328    1.0000 </r>
       <r>   -1.5650    1.0000 </r>
       <r>   -1.5515    1.0000 </r>
       <r>   -1.5456    1.0000 </r>
       <r>   -1.4890    1.0000 </r>
       <r>   -1.3724    1.0000 </r>
       <r>   -1.0148    1.0000 </r>
       <r>   -0.9617    1.0000 </r>
       <r>   -0.9594    1.0000 </r>
       <r>   -0.8325    1.0000 </r>
       <r>   -0.8114    1.0000 </r>
       <r>   -0.8012    1.0000 </r>
       <r>   -0.7501    1.0000 </r>
       <r>   -0.7317    1.0000 </r>
       <r>   -0.6980    1.0000 </r>
       <r>   -0.6153    1.0000 </r>
       <r>   -0.5058    1.0000 </r>
       <r>   -0.4981    1.0000 </r>
       <r>   -0.4843    1.0000 </r>
       <r>   -0.3806    1.0000 </r>
       <r>   -0.1115    1.0000 </r>
       <r>    0.1736    1.0000 </r>
       <r>    0.2056    1.0000 </r>
       <r>    0.4096    1.0000 </r>
       <r>    0.6626    1.0000 </r>
       <r>    0.7121    1.0000 </r>
       <r>    1.0071    1.0000 </r>
       <r>    1.0537    1.0000 </r>
       <r>    1.0751    1.0000 </r>
       <r>    1.2026    1.0000 </r>
       <r>    1.2572    1.0000 </r>
       <r>    1.4699    1.0000 </r>
       <r>    1.4754    1.0000 </r>
       <r>    1.5796    1.0000 </r>
       <r>    1.6806    1.0000 </r>
       <r>    1.7366    1.0000 </r>
       <r>    1.8094    1.0000 </r>
       <r>    1.8497    1.0000 </r>
       <r>    1.9166    1.0000 </r>
       <r>    1.9639    1.0000 </r>
       <r>    2.0434    1.0000 </r>
       <r>    2.2837    1.0000 </r>
       <r>    2.8047    0.0000 </r>
       <r>    4.3759    0.0000 </r>
       <r>    4.7504    0.0000 </r>
       <r>    6.5642    0.0000 </r>
       <r>    7.6162    0.0000 </r>
       <r>    8.0751    0.0000 </r>
       <r>    8.1047    0.0000 </r>
       <r>    8.2001    0.0000 </r>
       <r>    8.3034    0.0000 </r>
       <r>    8.3921    0.0000 </r>
       <r>    8.7853    0.0000 </r>
       <r>    9.1397    0.0000 </r>
       <r>    9.3545    0.0000 </r>
       <r>    9.7988    0.0000 </r>
       <r>    9.8952    0.0000 </r>
       <r>    9.9897    0.0000 </r>
       <r>   10.0419    0.0000 </r>
       <r>   10.1677    0.0000 </r>
       <r>   10.2310    0.0000 </r>
       <r>   10.3688    0.0000 </r>
       <r>   10.3728    0.0000 </r>
      </set>
      <set comment="kpoint 8">
       <r>  -31.0555    1.0000 </r>
       <r>  -31.0487    1.0000 </r>
       <r>  -31.0421    1.0000 </r>
       <r>  -31.0358    1.0000 </r>
       <r>  -14.8126    1.0000 </r>
       <r>  -14.7801    1.0000 </r>
       <r>  -14.5185    1.0000 </r>
       <r>  -14.2709    1.0000 </r>
       <r>  -14.0529    1.0000 </r>
       <r>  -14.0197    1.0000 </r>
       <r>  -13.7493    1.0000 </r>
       <r>  -13.7170    1.0000 </r>
       <r>  -13.5582    1.0000 </r>
       <r>  -13.0694    1.0000 </r>
       <r>  -13.0626    1.0000 </r>
       <r>  -13.0359    1.0000 </r>
       <r>  -13.0120    1.0000 </r>
       <r>  -12.9648    1.0000 </r>
       <r>  -12.8771    1.0000 </r>
       <r>  -12.8350    1.0000 </r>
       <r>  -12.7122    1.0000 </r>
       <r>  -12.7070    1.0000 </r>
       <r>  -12.7019    1.0000 </r>
       <r>  -12.6433    1.0000 </r>
       <r>  -12.5343    1.0000 </r>
       <r>   -3.0227    1.0000 </r>
       <r>   -2.7250    1.0000 </r>
       <r>   -2.3611    1.0000 </r>
       <r>   -1.9296    1.0000 </r>
       <r>   -1.9253    1.0000 </r>
       <r>   -1.8808    1.0000 </r>
       <r>   -1.8123    1.0000 </r>
       <r>   -1.8080    1.0000 </r>
       <r>   -1.7169    1.0000 </r>
       <r>   -1.6288    1.0000 </r>
       <r>   -1.6098    1.0000 </r>
       <r>   -1.5961    1.0000 </r>
       <r>   -1.3299    1.0000 </r>
       <r>   -1.2913    1.0000 </r>
       <r>   -1.1833    1.0000 </r>
       <r>   -0.9674    1.0000 </r>
       <r>   -0.7705    1.0000 </r>
       <r>   -0.7440    1.0000 </r>
       <r>   -0.6609    1.0000 </r>
       <r>   -0.5329    1.0000 </r>
       <r>   -0.5316    1.0000 </r>
       <r>   -0.4312    1.0000 </r>
       <r>   -0.4186    1.0000 </r>
       <r>   -0.2143    1.0000 </r>
       <r>    0.2889    1.0000 </r>
       <r>    0.5267    1.0000 </r>
       <r>    0.6252    1.0000 </r>
       <r>    0.7069    1.0000 </r>
       <r>    0.8553    1.0000 </r>
       <r>    0.8637    1.0000 </r>
       <r>    1.0923    1.0000 </r>
       <r>    1.1570    1.0000 </r>
       <r>    1.1578    1.0000 </r>
       <r>    1.3033    1.0000 </r>
       <r>    1.3254    1.0000 </r>
       <r>    1.3597    1.0000 </r>
       <r>    1.3601    1.0000 </r>
       <r>    1.6449    1.0000 </r>
       <r>    1.6628    1.0000 </r>
       <r>    1.8173    1.0000 </r>
       <r>    1.8983    1.0000 </r>
       <r>    1.9301    1.0000 </r>
       <r>    2.0835    1.0000 </r>
       <r>    2.2532    1.0000 </r>
       <r>    2.5390    0.2439 </r>
       <r>    2.8127    0.0000 </r>
       <r>    3.3325    0.0000 </r>
       <r>    4.5692    0.0000 </r>
       <r>    4.9086    0.0000 </r>
       <r>    6.2290    0.0000 </r>
       <r>    7.5396    0.0000 </r>
       <r>    7.6763    0.0000 </r>
       <r>    8.3101    0.0000 </r>
       <r>    8.4014    0.0000 </r>
       <r>    8.4467    0.0000 </r>
       <r>    8.7592    0.0000 </r>
       <r>    8.8015    0.0000 </r>
       <r>    9.0568    0.0000 </r>
       <r>    9.2225    0.0000 </r>
       <r>    9.6442    0.0000 </r>
       <r>    9.9468    0.0000 </r>
       <r>   10.0494    0.0000 </r>
       <r>   10.1252    0.0000 </r>
       <r>   10.1740    0.0000 </r>
       <r>   10.3373    0.0000 </r>
       <r>   10.5323    0.0000 </r>
       <r>   10.6490    0.0000 </r>
      </set>
      <set comment="kpoint 9">
       <r>  -31.0479    1.0000 </r>
       <r>  -31.0414    1.0000 </r>
       <r>  -31.0349    1.0000 </r>
       <r>  -31.0289    1.0000 </r>
       <r>  -14.7255    1.0000 </r>
       <r>  -14.5176    1.0000 </r>
       <r>  -14.3785    1.0000 </r>
       <r>  -14.3023    1.0000 </r>
       <r>  -14.0552    1.0000 </r>
       <r>  -14.0001    1.0000 </r>
       <r>  -13.9587    1.0000 </r>
       <r>  -13.7700    1.0000 </r>
       <r>  -13.5731    1.0000 </r>
       <r>  -13.1706    1.0000 </r>
       <r>  -13.1072    1.0000 </r>
       <r>  -13.0506    1.0000 </r>
       <r>  -13.0176    1.0000 </r>
       <r>  -12.9157    1.0000 </r>
       <r>  -12.9099    1.0000 </r>
       <r>  -12.8721    1.0000 </r>
       <r>  -12.7666    1.0000 </r>
       <r>  -12.7170    1.0000 </r>
       <r>  -12.6602    1.0000 </r>
       <r>  -12.6175    1.0000 </r>
       <r>  -12.5924    1.0000 </r>
       <r>   -3.0675    1.0000 </r>
       <r>   -3.0293    1.0000 </r>
       <r>   -2.8189    1.0000 </r>
       <r>   -2.6938    1.0000 </r>
       <r>   -2.4156    1.0000 </r>
       <r>   -2.2999    1.0000 </r>
       <r>   -2.1570    1.0000 </r>
       <r>   -2.0653    1.0000 </r>
       <r>   -1.9775    1.0000 </r>
       <r>   -1.8035    1.0000 </r>
       <r>   -1.7889    1.0000 </r>
       <r>   -1.6238    1.0000 </r>
       <r>   -1.4984    1.0000 </r>
       <r>   -1.4907    1.0000 </r>
       <r>   -1.3943    1.0000 </r>
       <r>   -0.9791    1.0000 </r>
       <r>   -0.8036    1.0000 </r>
       <r>   -0.7586    1.0000 </r>
       <r>   -0.5796    1.0000 </r>
       <r>   -0.5033    1.0000 </r>
       <r>   -0.4627    1.0000 </r>
       <r>   -0.3413    1.0000 </r>
       <r>   -0.2962    1.0000 </r>
       <r>    0.0260    1.0000 </r>
       <r>    0.3322    1.0000 </r>
       <r>    0.5269    1.0000 </r>
       <r>    0.7916    1.0000 </r>
       <r>    0.8789    1.0000 </r>
       <r>    0.9741    1.0000 </r>
       <r>    1.0052    1.0000 </r>
       <r>    1.1205    1.0000 </r>
       <r>    1.2118    1.0000 </r>
       <r>    1.2137    1.0000 </r>
       <r>    1.3351    1.0000 </r>
       <r>    1.3659    1.0000 </r>
       <r>    1.4365    1.0000 </r>
       <r>    1.6245    1.0000 </r>
       <r>    1.6743    1.0000 </r>
       <r>    1.8550    1.0000 </r>
       <r>    1.8818    1.0000 </r>
       <r>    2.1401    1.0000 </r>
       <r>    2.2367    1.0000 </r>
       <r>    2.3153    1.0000 </r>
       <r>    2.4544    0.9553 </r>
       <r>    2.8132    0.0000 </r>
[...]
       <r>     2.5609     4.9901    69.5748 </r>
       <r>     2.7156     1.7764    69.8496 </r>
       <r>     2.8703     3.7440    70.4288 </r>
       <r>     3.0250     1.1311    70.6038 </r>
       <r>     3.1796     0.9745    70.7545 </r>
       <r>     3.3343     1.5242    70.9903 </r>
       <r>     3.4890     0.5287    71.0721 </r>
       <r>     3.6437     0.8376    71.2017 </r>
       <r>     3.7984     2.3728    71.5687 </r>
       <r>     3.9531     1.0638    71.7333 </r>
       <r>     4.1078     0.2684    71.7748 </r>
       <r>     4.2625     1.6087    72.0237 </r>
       <r>     4.4172     4.2560    72.6821 </r>
       <r>     4.5719     1.7937    72.9596 </r>
       <r>     4.7266     0.9201    73.1019 </r>
       <r>     4.8813     2.5247    73.4924 </r>
       <r>     5.0360     1.5400    73.7307 </r>
       <r>     5.1907     1.6461    73.9853 </r>
       <r>     5.3454     0.0949    74.0000 </r>
       <r>     5.5001     0.3444    74.0533 </r>
       <r>     5.6548     1.8659    74.3419 </r>
       <r>     5.8095     0.3716    74.3994 </r>
       <r>     5.9642     0.0039    74.4000 </r>
       <r>     6.1189     0.0660    74.4102 </r>
       <r>     6.2736     2.6627    74.8221 </r>
       <r>     6.4282     0.2881    74.8667 </r>
       <r>     6.5829     0.2020    74.8979 </r>
       <r>     6.7376     0.5736    74.9866 </r>
       <r>     6.8923     0.1749    75.0137 </r>
       <r>     7.0470     1.2838    75.2123 </r>
       <r>     7.2017     0.5574    75.2985 </r>
       <r>     7.3564     1.3346    75.5050 </r>
       <r>     7.5111     0.7751    75.6249 </r>
       <r>     7.6658     2.1124    75.9517 </r>
       <r>     7.8205     3.7692    76.5348 </r>
       <r>     7.9752     2.7260    76.9565 </r>
       <r>     8.1299     4.2422    77.6127 </r>
       <r>     8.2846     2.3730    77.9798 </r>
       <r>     8.4393     3.9769    78.5950 </r>
       <r>     8.5940     3.5828    79.1492 </r>
       <r>     8.7487     2.9117    79.5997 </r>
       <r>     8.9034     7.3270    80.7331 </r>
       <r>     9.0581     4.0233    81.3555 </r>
       <r>     9.2128     4.5688    82.0623 </r>
       <r>     9.3675     4.7736    82.8007 </r>
       <r>     9.5222     3.8176    83.3913 </r>
       <r>     9.6768     4.3659    84.0667 </r>
       <r>     9.8315     6.4691    85.0674 </r>
       <r>     9.9862     7.5583    86.2367 </r>
       <r>    10.1409     7.2591    87.3596 </r>
       <r>    10.2956     8.7263    88.7095 </r>
       <r>    10.4503     6.7768    89.7579 </r>
       <r>    10.6050     7.7977    90.9641 </r>
       <r>    10.7597     2.9034    91.4133 </r>
       <r>    10.9144     2.5337    91.8052 </r>
       <r>    11.0691     0.9916    91.9586 </r>
       <r>    11.2238     0.2674    92.0000 </r>
       <r>    11.3785     0.0001    92.0000 </r>
       <r>    11.5332     0.0000    92.0000 </r>
       <r>    11.6879     0.0000    92.0000 </r>
       <r>    11.8426     0.0000    92.0000 </r>
       <r>    11.9973     0.0000    92.0000 </r>
       <r>    12.1520     0.0000    92.0000 </r>
       <r>    12.3067     0.0000    92.0000 </r>
       <r>    12.4614     0.0000    92.0000 </r>
       <r>    12.6161     0.0000    92.0000 </r>
       <r>    12.7708     0.0000    92.0000 </r>
       <r>    12.9254     0.0000    92.0000 </r>
       <r>    13.0801     0.0000    92.0000 </r>
       <r>    13.2348     0.0000    92.0000 </r>
      </set>
      <set comment="spin 2">
       <r>   -33.1737     0.0000     0.0000 </r>
       <r>   -33.0190     0.0000     0.0000 </r>
       <r>   -32.8643     0.0000     0.0000 </r>
       <r>   -32.7096     0.0000     0.0000 </r>
       <r>   -32.5549     0.0000     0.0000 </r>
       <r>   -32.4003     0.0000     0.0000 </r>
       <r>   -32.2456     0.0000     0.0000 </r>
       <r>   -32.0909     0.0000     0.0000 </r>
       <r>   -31.9362     0.0000     0.0000 </r>
       <r>   -31.7815     0.0000     0.0000 </r>
       <r>   -31.6268     0.0000     0.0000 </r>
       <r>   -31.4721     0.0000     0.0000 </r>
       <r>   -31.3174     0.0000     0.0000 </r>
       <r>   -31.1627     0.0137     0.0021 </r>
       <r>   -31.0080    21.6992     3.3589 </r>
       <r>   -30.8533     4.1445     4.0000 </r>
       <r>   -30.6986     0.0000     4.0000 </r>
       <r>   -30.5439     0.0000     4.0000 </r>
       <r>   -30.3892     0.0000     4.0000 </r>
       <r>   -30.2345     0.0000     4.0000 </r>
       <r>   -30.0798     0.0000     4.0000 </r>
       <r>   -29.9251     0.0000     4.0000 </r>
       <r>   -29.7704     0.0000     4.0000 </r>
       <r>   -29.6157     0.0000     4.0000 </r>
       <r>   -29.4610     0.0000     4.0000 </r>
       <r>   -29.3063     0.0000     4.0000 </r>
       <r>   -29.1517     0.0000     4.0000 </r>
       <r>   -28.9970     0.0000     4.0000 </r>
       <r>   -28.8423     0.0000     4.0000 </r>
       <r>   -28.6876     0.0000     4.0000 </r>
       <r>   -28.5329     0.0000     4.0000 </r>
       <r>   -28.3782     0.0000     4.0000 </r>
       <r>   -28.2235     0.0000     4.0000 </r>
       <r>   -28.0688     0.0000     4.0000 </r>
       <r>   -27.9141     0.0000     4.0000 </r>
       <r>   -27.7594     0.0000     4.0000 </r>
       <r>   -27.6047     0.0000     4.0000 </r>
       <r>   -27.4500     0.0000     4.0000 </r>
       <r>   -27.2953     0.0000     4.0000 </r>
       <r>   -27.1406     0.0000     4.0000 </r>
       <r>   -26.9859     0.0000     4.0000 </r>
       <r>   -26.8312     0.0000     4.0000 </r>
       <r>   -26.6765     0.0000     4.0000 </r>
       <r>   -26.5218     0.0000     4.0000 </r>
       <r>   -26.3671     0.0000     4.0000 </r>
       <r>   -26.2124     0.0000     4.0000 </r>
       <r>   -26.0577     0.0000     4.0000 </r>
       <r>   -25.9031     0.0000     4.0000 </r>
       <r>   -25.7484     0.0000     4.0000 </r>
       <r>   -25.5937     0.0000     4.0000 </r>
       <r>   -25.4390     0.0000     4.0000 </r>
       <r>   -25.2843     0.0000     4.0000 </r>
       <r>   -25.1296     0.0000     4.0000 </r>
       <r>   -24.9749     0.0000     4.0000 </r>
       <r>   -24.8202     0.0000     4.0000 </r>
       <r>   -24.6655     0.0000     4.0000 </r>
       <r>   -24.5108     0.0000     4.0000 </r>
       <r>   -24.3561     0.0000     4.0000 </r>
       <r>   -24.2014     0.0000     4.0000 </r>
       <r>   -24.0467     0.0000     4.0000 </r>
       <r>   -23.8920     0.0000     4.0000 </r>
       <r>   -23.7373     0.0000     4.0000 </r>
       <r>   -23.5826     0.0000     4.0000 </r>
       <r>   -23.4279     0.0000     4.0000 </r>
       <r>   -23.2732     0.0000     4.0000 </r>
       <r>   -23.1185     0.0000     4.0000 </r>
       <r>   -22.9638     0.0000     4.0000 </r>
       <r>   -22.8091     0.0000     4.0000 </r>
       <r>   -22.6545     0.0000     4.0000 </r>
       <r>   -22.4998     0.0000     4.0000 </r>
       <r>   -22.3451     0.0000     4.0000 </r>
       <r>   -22.1904     0.0000     4.0000 </r>
       <r>   -22.0357     0.0000     4.0000 </r>
       <r>   -21.8810     0.0000     4.0000 </r>
       <r>   -21.7263     0.0000     4.0000 </r>
       <r>   -21.5716     0.0000     4.0000 </r>
       <r>   -21.4169     0.0000     4.0000 </r>
       <r>   -21.2622     0.0000     4.0000 </r>
       <r>   -21.1075     0.0000     4.0000 </r>
       <r>   -20.9528     0.0000     4.0000 </r>
       <r>   -20.7981     0.0000     4.0000 </r>
       <r>   -20.6434     0.0000     4.0000 </r>
       <r>   -20.4887     0.0000     4.0000 </r>
       <r>   -20.3340     0.0000     4.0000 </r>
       <r>   -20.1793     0.0000     4.0000 </r>
       <r>   -20.0246     0.0000     4.0000 </r>
       <r>   -19.8699     0.0000     4.0000 </r>
       <r>   -19.7152     0.0000     4.0000 </r>
       <r>   -19.5605     0.0000     4.0000 </r>
       <r>   -19.4059     0.0000     4.0000 </r>
       <r>   -19.2512     0.0000     4.0000 </r>
       <r>   -19.0965     0.0000     4.0000 </r>
       <r>   -18.9418     0.0000     4.0000 </r>
       <r>   -18.7871     0.0000     4.0000 </r>
       <r>   -18.6324     0.0000     4.0000 </r>
       <r>   -18.4777     0.0000     4.0000 </r>
       <r>   -18.3230     0.0000     4.0000 </r>
       <r>   -18.1683     0.0000     4.0000 </r>
       <r>   -18.0136     0.0000     4.0000 </r>
       <r>   -17.8589     0.0000     4.0000 </r>
       <r>   -17.7042     0.0000     4.0000 </r>
       <r>   -17.5495     0.0000     4.0000 </r>
       <r>   -17.3948     0.0000     4.0000 </r>
       <r>   -17.2401     0.0000     4.0000 </r>
       <r>   -17.0854     0.0000     4.0000 </r>
       <r>   -16.9307     0.0000     4.0000 </r>
       <r>   -16.7760     0.0000     4.0000 </r>
       <r>   -16.6213     0.0000     4.0000 </r>
       <r>   -16.4666     0.0000     4.0000 </r>
       <r>   -16.3119     0.0000     4.0000 </r>
       <r>   -16.1573     0.0000     4.0000 </r>
       <r>   -16.0026     0.0000     4.0000 </r>
       <r>   -15.8479     0.0000     4.0000 </r>
       <r>   -15.6932     0.0000     4.0000 </r>
       <r>   -15.5385     0.0000     4.0000 </r>
       <r>   -15.3838     0.0000     4.0000 </r>
       <r>   -15.2291     0.0000     4.0000 </r>
       <r>   -15.0744     0.0000     4.0000 </r>
       <r>   -14.9197     0.1780     4.0275 </r>
       <r>   -14.7650     3.7377     4.6057 </r>
       <r>   -14.6103     6.9038     5.6737 </r>
       <r>   -14.4556     3.7495     6.2537 </r>
       <r>   -14.3009     5.8078     7.1522 </r>
       <r>   -14.1462     5.4207     7.9907 </r>
       <r>   -13.9915     5.1194     8.7827 </r>
       <r>   -13.8368     9.9453    10.3212 </r>
       <r>   -13.6821     6.9591    11.3977 </r>
       <r>   -13.5274     5.7393    12.2856 </r>
       <r>   -13.3727     4.1147    12.9221 </r>
       <r>   -13.2180     1.1631    13.1020 </r>
       <r>   -13.0633    12.9228    15.1011 </r>
       <r>   -12.9087    19.4671    18.1126 </r>
       <r>   -12.7540    16.3852    20.6473 </r>
       <r>   -12.5993    18.2532    23.4710 </r>
       <r>   -12.4446     9.1113    24.8804 </r>
       <r>   -12.2899     0.7721    24.9999 </r>
       <r>   -12.1352     0.0008    25.0000 </r>
       <r>   -11.9805     0.0000    25.0000 </r>
       <r>   -11.8258     0.0000    25.0000 </r>
       <r>   -11.6711     0.0000    25.0000 </r>
       <r>   -11.5164     0.0000    25.0000 </r>
       <r>   -11.3617     0.0000    25.0000 </r>
       <r>   -11.2070     0.0000    25.0000 </r>
       <r>   -11.0523     0.0000    25.0000 </r>
       <r>   -10.8976     0.0000    25.0000 </r>
       <r>   -10.7429     0.0000    25.0000 </r>
       <r>   -10.5882     0.0000    25.0000 </r>
       <r>   -10.4335     0.0000    25.0000 </r>
       <r>   -10.2788     0.0000    25.0000 </r>
       <r>   -10.1241     0.0000    25.0000 </r>
       <r>    -9.9694     0.0000    25.0000 </r>
       <r>    -9.8147     0.0000    25.0000 </r>
       <r>    -9.6601     0.0000    25.0000 </r>
       <r>    -9.5054     0.0000    25.0000 </r>
       <r>    -9.3507     0.0000    25.0000 </r>
       <r>    -9.1960     0.0000    25.0000 </r>
       <r>    -9.0413     0.0000    25.0000 </r>
       <r>    -8.8866     0.0000    25.0000 </r>
       <r>    -8.7319     0.0000    25.0000 </r>
       <r>    -8.5772     0.0000    25.0000 </r>
       <r>    -8.4225     0.0000    25.0000 </r>
       <r>    -8.2678     0.0000    25.0000 </r>
       <r>    -8.1131     0.0000    25.0000 </r>
       <r>    -7.9584     0.0000    25.0000 </r>
       <r>    -7.8037     0.0000    25.0000 </r>
       <r>    -7.6490     0.0000    25.0000 </r>
       <r>    -7.4943     0.0000    25.0000 </r>
       <r>    -7.3396     0.0000    25.0000 </r>
       <r>    -7.1849     0.0000    25.0000 </r>
       <r>    -7.0302     0.0000    25.0000 </r>
       <r>    -6.8755     0.0000    25.0000 </r>
       <r>    -6.7208     0.0000    25.0000 </r>
       <r>    -6.5662     0.0000    25.0000 </r>
       <r>    -6.4115     0.0000    25.0000 </r>
       <r>    -6.2568     0.0000    25.0000 </r>
       <r>    -6.1021     0.0000    25.0000 </r>
       <r>    -5.9474     0.0000    25.0000 </r>
       <r>    -5.7927     0.0000    25.0000 </r>
       <r>    -5.6380     0.0000    25.0000 </r>
       <r>    -5.4833     0.0000    25.0000 </r>
       <r>    -5.3286     0.0000    25.0000 </r>
       <r>    -5.1739     0.0000    25.0000 </r>
       <r>    -5.0192     0.0000    25.0000 </r>
       <r>    -4.8645     0.0000    25.0000 </r>
       <r>    -4.7098     0.0000    25.0000 </r>
       <r>    -4.5551     0.0000    25.0000 </r>
       <r>    -4.4004     0.0000    25.0000 </r>
       <r>    -4.2457     0.0000    25.0000 </r>
       <r>    -4.0910     0.0000    25.0000 </r>
       <r>    -3.9363     0.0000    25.0000 </r>
       <r>    -3.7816     0.0000    25.0000 </r>
       <r>    -3.6269     0.0000    25.0000 </r>
       <r>    -3.4722     0.0000    25.0000 </r>
       <r>    -3.3176     0.0000    25.0000 </r>
       <r>    -3.1629     0.0478    25.0074 </r>
       <r>    -3.0082     0.9890    25.1604 </r>
       <r>    -2.8535     2.1954    25.5000 </r>
       <r>    -2.6988     5.1096    26.2905 </r>
       <r>    -2.5441     2.8764    26.7354 </r>
       <r>    -2.3894     4.7785    27.4746 </r>
       <r>    -2.2347     5.6767    28.3528 </r>
       <r>    -2.0800     6.9629    29.4299 </r>
       <r>    -1.9253     6.1998    30.3890 </r>
       <r>    -1.7706    12.7244    32.3574 </r>
       <r>    -1.6159     8.8124    33.7206 </r>
       <r>    -1.4612    16.7893    36.3178 </r>
       <r>    -1.3065    12.9966    38.3284 </r>
       <r>    -1.1518     9.1876    39.7496 </r>
       <r>    -0.9971     6.7710    40.7971 </r>
       <r>    -0.8424     8.2252    42.0695 </r>
       <r>    -0.6877    10.1597    43.6411 </r>
       <r>    -0.5330     6.2985    44.6155 </r>
       <r>    -0.3783    15.3941    46.9969 </r>
       <r>    -0.2236     7.0772    48.0917 </r>
       <r>    -0.0690     1.3897    48.3067 </r>
       <r>     0.0857     2.6990    48.7242 </r>
       <r>     0.2404     2.7570    49.1507 </r>
       <r>     0.3951     3.9779    49.7660 </r>
       <r>     0.5498     4.0285    50.3892 </r>
       <r>     0.7045     5.8877    51.3000 </r>
       <r>     0.8592     7.7024    52.4915 </r>
       <r>     1.0139    11.7204    54.3046 </r>
       <r>     1.1686    12.0991    56.1763 </r>
       <r>     1.3233    14.7905    58.4643 </r>
       <r>     1.4780    13.7560    60.5923 </r>
       <r>     1.6327     6.4615    61.5919 </r>
       <r>     1.7874    10.1349    63.1597 </r>
       <r>     1.9421    11.4103    64.9248 </r>
       <r>     2.0968     9.2791    66.3602 </r>
       <r>     2.2515     6.9895    67.4415 </r>
       <r>     2.4062     5.5099    68.2938 </r>
       <r>     2.5609     4.2880    68.9572 </r>
       <r>     2.7156     4.4210    69.6411 </r>
       <r>     2.8703     2.1547    69.9744 </r>
       <r>     3.0250     2.7397    70.3982 </r>
       <r>     3.1796     0.7026    70.5069 </r>
       <r>     3.3343     2.8321    70.9450 </r>
       <r>     3.4890     0.7903    71.0673 </r>
       <r>     3.6437     0.8202    71.1941 </r>
       <r>     3.7984     0.2654    71.2352 </r>
       <r>     3.9531     3.1730    71.7260 </r>
       <r>     4.1078     0.0900    71.7400 </r>
       <r>     4.2625     1.3122    71.9429 </r>
       <r>     4.4172     2.0356    72.2578 </r>
       <r>     4.5719     3.9252    72.8651 </r>
       <r>     4.7266     1.2864    73.0641 </r>
       <r>     4.8813     2.4934    73.4498 </r>
       <r>     5.0360     1.7863    73.7261 </r>
       <r>     5.1907     1.3756    73.9389 </r>
       <r>     5.3454     0.3950    74.0000 </r>
       <r>     5.5001     0.0766    74.0118 </r>
       <r>     5.6548     1.4677    74.2389 </r>
       <r>     5.8095     0.8081    74.3639 </r>
       <r>     5.9642     0.2333    74.4000 </r>
       <r>     6.1189     0.0377    74.4058 </r>
       <r>     6.2736     2.5982    74.8077 </r>
       <r>     6.4282     0.3809    74.8667 </r>
       <r>     6.5829     0.1890    74.8959 </r>
       <r>     6.7376     0.5673    74.9837 </r>
       <r>     6.8923     0.1766    75.0110 </r>
       <r>     7.0470     1.2700    75.2074 </r>
       <r>     7.2017     0.5388    75.2908 </r>
       <r>     7.3564     1.2872    75.4899 </r>
       <r>     7.5111     0.8107    75.6153 </r>
       <r>     7.6658     2.0336    75.9299 </r>
       <r>     7.8205     3.8010    76.5179 </r>
       <r>     7.9752     2.6265    76.9242 </r>
       <r>     8.1299     4.2252    77.5778 </r>
       <r>     8.2846     2.3828    77.9464 </r>
       <r>     8.4393     3.8779    78.5463 </r>
       <r>     8.5940     3.6470    79.1105 </r>
       <r>     8.7487     3.0009    79.5747 </r>
       <r>     8.9034     7.3018    80.7043 </r>
       <r>     9.0581     4.1003    81.3386 </r>
       <r>     9.2128     4.3419    82.0102 </r>
       <r>     9.3675     4.9606    82.7776 </r>
       <r>     9.5222     3.8955    83.3802 </r>
       <r>     9.6768     4.1238    84.0182 </r>
       <r>     9.8315     6.4774    85.0202 </r>
       <r>     9.9862     7.6064    86.1969 </r>
       <r>    10.1409     7.3588    87.3352 </r>
       <r>    10.2956     8.5849    88.6633 </r>
       <r>    10.4503     6.9209    89.7339 </r>
       <r>    10.6050     7.8141    90.9427 </r>
       <r>    10.7597     2.8529    91.3840 </r>
       <r>    10.9144     2.5734    91.7821 </r>
       <r>    11.0691     1.1087    91.9536 </r>
       <r>    11.2238     0.2989    91.9999 </r>
       <r>    11.3785     0.0008    92.0000 </r>
       <r>    11.5332     0.0000    92.0000 </r>
       <r>    11.6879     0.0000    92.0000 </r>
       <r>    11.8426     0.0000    92.0000 </r>
       <r>    11.9973     0.0000    92.0000 </r>
       <r>    12.1520     0.0000    92.0000 </r>
       <r>    12.3067     0.0000    92.0000 </r>
       <r>    12.4614     0.0000    92.0000 </r>
       <r>    12.6161     0.0000    92.0000 </r>
       <r>    12.7708     0.0000    92.0000 </r>
       <r>    12.9254     0.0000    92.0000 </r>
       <r>    13.0801     0.0000    92.0000 </r>
       <r>    13.2348     0.0000    92.0000 </r>
      </set>
     </set>
    </array>
   </total>
  </dos>
 </calculation>
 <structure name="finalpos" >
  <crystal>
   <varray name="basis" >
    <v>       4.00000000       0.00000000       0.00000000 </v>
    <v>       0.00000000       8.00000000       0.00000000 </v>
    <v>       0.00000000       0.00000000       8.00000000 </v>
   </varray>
   <i name="volume">    256.00000000 </i>
   <varray name="rec_basis" >
    <v>       0.25000000       0.00000000       0.00000000 </v>
    <v>       0.00000000       0.12500000       0.00000000 </v>
    <v>       0.00000000       0.00000000       0.12500000 </v>
   </varray>
  </crystal>
  <varray name="positions" >
   <v>       0.00000000       0.75000000       0.75000000 </v>
   <v>       0.00000000       0.25000000       0.75000000 </v>
   <v>       0.00000000       0.75000000       0.25000000 </v>
   <v>       0.00000000       0.25000000       0.25000000 </v>
   <v>       0.50000000       0.00000000       0.00000000 </v>
   <v>       0.50000000       0.50000000       0.00000000 </v>
   <v>       0.50000000       0.00000000       0.50000000 </v>
   <v>       0.50000000       0.50000000       0.50000000 </v>
   <v>       0.50000000       0.50000000       0.75000000 </v>
   <v>       0.50000000       0.50000000       0.25000000 </v>
   <v>       0.00000000       0.50000000       0.00000000 </v>
   <v>       0.00000000       0.00000000       0.50000000 </v>
   <v>       0.00000000       0.50000000       0.50000000 </v>
   <v>       0.50000000       0.75000000       0.00000000 </v>
   <v>       0.50000000       0.25000000       0.00000000 </v>
   <v>       0.50000000       0.75000000       0.50000000 </v>
   <v>       0.50000000       0.25000000       0.50000000 </v>
  </varray>
 </structure>
</modeling>
