<?xml version="1.0" encoding="ISO-8859-1"?>
<modeling>
 <generator>
  <i name="program" type="string">vasp </i>
  <i name="version" type="string">5.3.5  </i>
  <i name="subversion" type="string">31Mar14 (build Jun 20 2014 13:15:13) complex                          parallel </i>
  <i name="platform" type="string">LinuxIFC </i>
  <i name="date" type="string">2025 11 27 </i>
  <i name="time" type="string">07:00:45 </i>
 </generator>
 <incar>
  <i type="string" name="PREC">accurate</i>
  <i type="int" name="IALGO">    68</i>
  <i type="logical" name="ADDGRID"> T  </i>
  <i type="int" name="NELM">   200</i>
  <i type="int" name="NELMIN">     4</i>
  <i type="int" name="IBRION">     2</i>
  <i name="EDIFF">      0.00000100</i>
  <i name="EDIFFG">     -0.02000000</i>
  <i type="int" name="NSW">    30</i>
  <i type="int" name="ISIF">     3</i>
  <i name="ENCUT">    500.00000000</i>
  <i type="logical" name="LREAL"> F  </i>
  <i type="int" name="ISMEAR">     1</i>
  <i name="SIGMA">      0.30000000</i>
  <i type="logical" name="LWAVE"> F  </i>
  <i type="logical" name="LCHARG"> F  </i>
  <i type="int" name="NELM">   200</i>
 </incar>
 <kpoints>
  <generation param="Auto">
   <i name="subdivisionlength">     70.00000000 </i>
   <v type="int" name="divisions">      28       28        5 </v>
   <v name="usershift">      0.00000000       0.00000000       0.00000000 </v>
   <v name="genvec1">      0.03571429       0.00000000       0.00000000 </v>
   <v name="genvec2">      0.00000000       0.03571429       0.00000000 </v>
   <v name="genvec3">      0.00000000       0.00000000       0.20000000 </v>
   <v name="shift">      0.00000000       0.00000000       0.00000000 </v>
  </generation>
  <varray name="kpointlist" >
   <v>       0.00000000       0.00000000       0.00000000 </v>
   <v>       0.03571429       0.00000000       0.00000000 </v>
   <v>       0.07142857       0.00000000       0.00000000 </v>
   <v>       0.10714286       0.00000000       0.00000000 </v>
   <v>       0.14285714       0.00000000       0.00000000 </v>
   <v>       0.17857143       0.00000000       0.00000000 </v>
   <v>       0.21428571       0.00000000       0.00000000 </v>
   <v>       0.25000000       0.00000000       0.00000000 </v>
   <v>       0.28571429       0.00000000       0.00000000 </v>
   <v>       0.32142857       0.00000000       0.00000000 </v>
   <v>       0.35714286       0.00000000       0.00000000 </v>
   <v>       0.39285714       0.00000000       0.00000000 </v>
   <v>       0.42857143       0.00000000       0.00000000 </v>
   <v>       0.46428571       0.00000000       0.00000000 </v>
   <v>       0.50000000       0.00000000       0.00000000 </v>
   <v>       0.03571429       0.03571429       0.00000000 </v>
   <v>       0.07142857       0.03571429       0.00000000 </v>
   <v>       0.10714286       0.03571429       0.00000000 </v>
   <v>       0.14285714       0.03571429       0.00000000 </v>
   <v>       0.17857143       0.03571429       0.00000000 </v>
   <v>       0.21428571       0.03571429       0.00000000 </v>
   <v>       0.25000000       0.03571429       0.00000000 </v>
   <v>       0.28571429       0.03571429       0.00000000 </v>
   <v>       0.32142857       0.03571429       0.00000000 </v>
   <v>       0.35714286       0.03571429       0.00000000 </v>
   <v>       0.39285714       0.03571429       0.00000000 </v>
   <v>       0.42857143       0.03571429       0.00000000 </v>
   <v>       0.46428571       0.03571429       0.00000000 </v>
   <v>       0.07142857       0.07142857       0.00000000 </v>
   <v>       0.10714286       0.07142857       0.00000000 </v>
   <v>       0.14285714       0.07142857       0.00000000 </v>
   <v>       0.17857143       0.07142857       0.00000000 </v>
   <v>       0.21428571       0.07142857       0.00000000 </v>
   <v>       0.25000000       0.07142857       0.00000000 </v>
   <v>       0.28571429       0.07142857       0.00000000 </v>
   <v>       0.32142857       0.07142857       0.00000000 </v>
   <v>       0.35714286       0.07142857       0.00000000 </v>
   <v>       0.39285714       0.07142857       0.00000000 </v>
   <v>       0.42857143       0.07142857       0.00000000 </v>
   <v>       0.46428571       0.07142857       0.00000000 </v>
   <v>       0.10714286       0.10714286       0.00000000 </v>
   <v>       0.14285714       0.10714286       0.00000000 </v>
   <v>       0.17857143       0.10714286       0.00000000 </v>
   <v>       0.21428571       0.10714286       0.00000000 </v>
   <v>       0.25000000       0.10714286       0.00000000 </v>
   <v>       0.28571429       0.10714286       0.00000000 </v>
   <v>       0.32142857       0.10714286       0.00000000 </v>
   <v>       0.35714286       0.10714286       0.00000000 </v>
   <v>       0.39285714       0.10714286       0.00000000 </v>
   <v>       0.42857143       0.10714286       0.00000000 </v>
   <v>       0.14285714       0.14285714       0.00000000 </v>
   <v>       0.17857143       0.14285714       0.00000000 </v>
   <v>       0.21428571       0.14285714       0.00000000 </v>
   <v>       0.25000000       0.14285714       0.00000000 </v>
   <v>       0.28571429       0.14285714       0.00000000 </v>
   <v>       0.32142857       0.14285714       0.00000000 </v>
   <v>       0.35714286       0.14285714       0.00000000 </v>
   <v>       0.39285714       0.14285714       0.00000000 </v>
   <v>       0.42857143       0.14285714       0.00000000 </v>
   <v>       0.17857143       0.17857143       0.00000000 </v>
   <v>       0.21428571       0.17857143       0.00000000 </v>
   <v>       0.25000000       0.17857143       0.00000000 </v>
   <v>       0.28571429       0.17857143       0.00000000 </v>
   <v>       0.32142857       0.17857143       0.00000000 </v>
   <v>       0.35714286       0.17857143       0.00000000 </v>
   <v>       0.39285714       0.17857143       0.00000000 </v>
   <v>       0.21428571       0.21428571       0.00000000 </v>
   <v>       0.25000000       0.21428571       0.00000000 </v>
   <v>       0.28571429       0.21428571       0.00000000 </v>
   <v>       0.32142857       0.21428571       0.00000000 </v>
   <v>       0.35714286       0.21428571       0.00000000 </v>
   <v>       0.39285714       0.21428571       0.00000000 </v>
   <v>       0.25000000       0.25000000       0.00000000 </v>
   <v>       0.28571429       0.25000000       0.00000000 </v>
   <v>       0.32142857       0.25000000       0.00000000 </v>
   <v>       0.35714286       0.25000000       0.00000000 </v>
   <v>       0.28571429       0.28571429       0.00000000 </v>
   <v>       0.32142857       0.28571429       0.00000000 </v>
   <v>       0.35714286       0.28571429       0.00000000 </v>
   <v>       0.32142857       0.32142857       0.00000000 </v>
   <v>       0.00000000       0.00000000       0.20000000 </v>
   <v>       0.03571429       0.00000000       0.20000000 </v>
   <v>       0.07142857       0.00000000       0.20000000 </v>
   <v>       0.10714286       0.00000000       0.20000000 </v>
   <v>       0.14285714       0.00000000       0.20000000 </v>
   <v>       0.17857143       0.00000000       0.20000000 </v>
   <v>       0.21428571       0.00000000       0.20000000 </v>
   <v>       0.25000000       0.00000000       0.20000000 </v>
   <v>       0.28571429       0.00000000       0.20000000 </v>
   <v>       0.32142857       0.00000000       0.20000000 </v>
   <v>       0.35714286       0.00000000       0.20000000 </v>
   <v>       0.39285714       0.00000000       0.20000000 </v>
   <v>       0.42857143       0.00000000       0.20000000 </v>
   <v>       0.46428571       0.00000000       0.20000000 </v>
   <v>       0.50000000       0.00000000       0.20000000 </v>
   <v>      -0.46428571       0.00000000       0.20000000 </v>
   <v>      -0.42857143       0.00000000       0.20000000 </v>
   <v>      -0.39285714       0.00000000       0.20000000 </v>
   <v>      -0.35714286       0.00000000       0.20000000 </v>
   <v>      -0.32142857       0.00000000       0.20000000 </v>
   <v>      -0.28571429       0.00000000       0.20000000 </v>
   <v>      -0.25000000       0.00000000       0.20000000 </v>
   <v>      -0.21428571       0.00000000       0.20000000 </v>
   <v>      -0.17857143       0.00000000       0.20000000 </v>
   <v>      -0.14285714       0.00000000       0.20000000 </v>
   <v>      -0.10714286       0.00000000       0.20000000 </v>
   <v>      -0.07142857       0.00000000       0.20000000 </v>
   <v>      -0.03571429       0.00000000       0.20000000 </v>
   <v>       0.03571429       0.03571429       0.20000000 </v>
   <v>       0.07142857       0.03571429       0.20000000 </v>
   <v>       0.10714286       0.03571429       0.20000000 </v>
   <v>       0.14285714       0.03571429       0.20000000 </v>
   <v>       0.17857143       0.03571429       0.20000000 </v>
   <v>       0.21428571       0.03571429       0.20000000 </v>
   <v>       0.25000000       0.03571429       0.20000000 </v>
   <v>       0.28571429       0.03571429       0.20000000 </v>
   <v>       0.32142857       0.03571429       0.20000000 </v>
   <v>       0.35714286       0.03571429       0.20000000 </v>
   <v>       0.39285714       0.03571429       0.20000000 </v>
   <v>       0.42857143       0.03571429       0.20000000 </v>
   <v>       0.46428571       0.03571429       0.20000000 </v>
   <v>       0.50000000       0.03571429       0.20000000 </v>
   <v>      -0.46428571       0.03571429       0.20000000 </v>
   <v>      -0.42857143       0.03571429       0.20000000 </v>
   <v>      -0.39285714       0.03571429       0.20000000 </v>
   <v>      -0.35714286       0.03571429       0.20000000 </v>
   <v>      -0.32142857       0.03571429       0.20000000 </v>
   <v>      -0.28571429       0.03571429       0.20000000 </v>
   <v>      -0.25000000       0.03571429       0.20000000 </v>
   <v>      -0.21428571       0.03571429       0.20000000 </v>
   <v>      -0.17857143       0.03571429       0.20000000 </v>
   <v>      -0.14285714       0.03571429       0.20000000 </v>
   <v>      -0.10714286       0.03571429       0.20000000 </v>
   <v>       0.07142857       0.07142857       0.20000000 </v>
   <v>       0.10714286       0.07142857       0.20000000 </v>
   <v>       0.14285714       0.07142857       0.20000000 </v>
   <v>       0.17857143       0.07142857       0.20000000 </v>
   <v>       0.21428571       0.07142857       0.20000000 </v>
   <v>       0.25000000       0.07142857       0.20000000 </v>
   <v>       0.28571429       0.07142857       0.20000000 </v>
   <v>       0.32142857       0.07142857       0.20000000 </v>
   <v>       0.35714286       0.07142857       0.20000000 </v>
   <v>       0.39285714       0.07142857       0.20000000 </v>
   <v>       0.42857143       0.07142857       0.20000000 </v>
   <v>       0.46428571       0.07142857       0.20000000 </v>
   <v>       0.50000000       0.07142857       0.20000000 </v>
   <v>      -0.46428571       0.07142857       0.20000000 </v>
   <v>      -0.42857143       0.07142857       0.20000000 </v>
   <v>      -0.39285714       0.07142857       0.20000000 </v>
   <v>      -0.35714286       0.07142857       0.20000000 </v>
   <v>      -0.32142857       0.07142857       0.20000000 </v>
   <v>      -0.28571429       0.07142857       0.20000000 </v>
   <v>      -0.25000000       0.07142857       0.20000000 </v>
   <v>      -0.21428571       0.07142857       0.20000000 </v>
   <v>      -0.17857143       0.07142857       0.20000000 </v>
   <v>       0.10714286       0.10714286       0.20000000 </v>
   <v>       0.14285714       0.10714286       0.20000000 </v>
   <v>       0.17857143       0.10714286       0.20000000 </v>
   <v>       0.21428571       0.10714286       0.20000000 </v>
   <v>       0.25000000       0.10714286       0.20000000 </v>
   <v>       0.28571429       0.10714286       0.20000000 </v>
   <v>       0.32142857       0.10714286       0.20000000 </v>
   <v>       0.35714286       0.10714286       0.20000000 </v>
   <v>       0.39285714       0.10714286       0.20000000 </v>
   <v>       0.42857143       0.10714286       0.20000000 </v>
   <v>       0.46428571       0.10714286       0.20000000 </v>
   <v>       0.50000000       0.10714286       0.20000000 </v>
   <v>      -0.46428571       0.10714286       0.20000000 </v>
   <v>      -0.42857143       0.10714286       0.20000000 </v>
   <v>      -0.39285714       0.10714286       0.20000000 </v>
   <v>      -0.35714286       0.10714286       0.20000000 </v>
   <v>      -0.32142857       0.10714286       0.20000000 </v>
   <v>      -0.28571429       0.10714286       0.20000000 </v>
   <v>      -0.25000000       0.10714286       0.20000000 </v>
   <v>       0.14285714       0.14285714       0.20000000 </v>
   <v>       0.17857143       0.14285714       0.20000000 </v>
   <v>       0.21428571       0.14285714       0.20000000 </v>
   <v>       0.25000000       0.14285714       0.20000000 </v>
   <v>       0.28571429       0.14285714       0.20000000 </v>
   <v>       0.32142857       0.14285714       0.20000000 </v>
   <v>       0.35714286       0.14285714       0.20000000 </v>
   <v>       0.39285714       0.14285714       0.20000000 </v>
   <v>       0.42857143       0.14285714       0.20000000 </v>
   <v>       0.46428571       0.14285714       0.20000000 </v>
   <v>       0.50000000       0.14285714       0.20000000 </v>
   <v>      -0.46428571       0.14285714       0.20000000 </v>
   <v>      -0.42857143       0.14285714       0.20000000 </v>
   <v>      -0.39285714       0.14285714       0.20000000 </v>
   <v>      -0.35714286       0.14285714       0.20000000 </v>
   <v>      -0.32142857       0.14285714       0.20000000 </v>
   <v>       0.17857143       0.17857143       0.20000000 </v>
   <v>       0.21428571       0.17857143       0.20000000 </v>
   <v>       0.25000000       0.17857143       0.20000000 </v>
   <v>       0.28571429       0.17857143       0.20000000 </v>
   <v>       0.32142857       0.17857143       0.20000000 </v>
   <v>       0.35714286       0.17857143       0.20000000 </v>
   <v>       0.39285714       0.17857143       0.20000000 </v>
   <v>       0.42857143       0.17857143       0.20000000 </v>
   <v>       0.46428571       0.17857143       0.20000000 </v>
   <v>       0.50000000       0.17857143       0.20000000 </v>
   <v>      -0.46428571       0.17857143       0.20000000 </v>
   <v>      -0.42857143       0.17857143       0.20000000 </v>
   <v>      -0.39285714       0.17857143       0.20000000 </v>
   <v>       0.21428571       0.21428571       0.20000000 </v>
   <v>       0.25000000       0.21428571       0.20000000 </v>
   <v>       0.28571429       0.21428571       0.20000000 </v>
   <v>       0.32142857       0.21428571       0.20000000 </v>
   <v>       0.35714286       0.21428571       0.20000000 </v>
   <v>       0.39285714       0.21428571       0.20000000 </v>
   <v>       0.42857143       0.21428571       0.20000000 </v>
   <v>       0.46428571       0.21428571       0.20000000 </v>
   <v>       0.50000000       0.21428571       0.20000000 </v>
   <v>      -0.46428571       0.21428571       0.20000000 </v>
   <v>       0.25000000       0.25000000       0.20000000 </v>
   <v>       0.28571429       0.25000000       0.20000000 </v>
   <v>       0.32142857       0.25000000       0.20000000 </v>
   <v>       0.35714286       0.25000000       0.20000000 </v>
   <v>       0.39285714       0.25000000       0.20000000 </v>
   <v>       0.42857143       0.25000000       0.20000000 </v>
   <v>       0.46428571       0.25000000       0.20000000 </v>
   <v>       0.28571429       0.28571429       0.20000000 </v>
   <v>       0.32142857       0.28571429       0.20000000 </v>
   <v>       0.35714286       0.28571429       0.20000000 </v>
   <v>       0.39285714       0.28571429       0.20000000 </v>
   <v>       0.32142857       0.32142857       0.20000000 </v>
   <v>       0.00000000       0.00000000       0.40000000 </v>
   <v>       0.03571429       0.00000000       0.40000000 </v>
   <v>       0.07142857       0.00000000       0.40000000 </v>
   <v>       0.10714286       0.00000000       0.40000000 </v>
   <v>       0.14285714       0.00000000       0.40000000 </v>
   <v>       0.17857143       0.00000000       0.40000000 </v>
   <v>       0.21428571       0.00000000       0.40000000 </v>
   <v>       0.25000000       0.00000000       0.40000000 </v>
   <v>       0.28571429       0.00000000       0.40000000 </v>
   <v>       0.32142857       0.00000000       0.40000000 </v>
   <v>       0.35714286       0.00000000       0.40000000 </v>
   <v>       0.39285714       0.00000000       0.40000000 </v>
   <v>       0.42857143       0.00000000       0.40000000 </v>
   <v>       0.46428571       0.00000000       0.40000000 </v>
   <v>       0.50000000       0.00000000       0.40000000 </v>
   <v>      -0.46428571       0.00000000       0.40000000 </v>
   <v>      -0.42857143       0.00000000       0.40000000 </v>
   <v>      -0.39285714       0.00000000       0.40000000 </v>
   <v>      -0.35714286       0.00000000       0.40000000 </v>
   <v>      -0.32142857       0.00000000       0.40000000 </v>
   <v>      -0.28571429       0.00000000       0.40000000 </v>
   <v>      -0.25000000       0.00000000       0.40000000 </v>
   <v>      -0.21428571       0.00000000       0.40000000 </v>
   <v>      -0.17857143       0.00000000       0.40000000 </v>
   <v>      -0.14285714       0.00000000       0.40000000 </v>
   <v>      -0.10714286       0.00000000       0.40000000 </v>
   <v>      -0.07142857       0.00000000       0.40000000 </v>
   <v>      -0.03571429       0.00000000       0.40000000 </v>
   <v>       0.03571429       0.03571429       0.40000000 </v>
   <v>       0.07142857       0.03571429       0.40000000 </v>
   <v>       0.10714286       0.03571429       0.40000000 </v>
   <v>       0.14285714       0.03571429       0.40000000 </v>
   <v>       0.17857143       0.03571429       0.40000000 </v>
   <v>       0.21428571       0.03571429       0.40000000 </v>
   <v>       0.25000000       0.03571429       0.40000000 </v>
   <v>       0.28571429       0.03571429       0.40000000 </v>
   <v>       0.32142857       0.03571429       0.40000000 </v>
   <v>       0.35714286       0.03571429       0.40000000 </v>
   <v>       0.39285714       0.03571429       0.40000000 </v>
   <v>       0.42857143       0.03571429       0.40000000 </v>
   <v>       0.46428571       0.03571429       0.40000000 </v>
   <v>       0.50000000       0.03571429       0.40000000 </v>
   <v>      -0.46428571       0.03571429       0.40000000 </v>
   <v>      -0.42857143       0.03571429       0.40000000 </v>
   <v>      -0.39285714       0.03571429       0.40000000 </v>
   <v>      -0.35714286       0.03571429       0.40000000 </v>
   <v>      -0.32142857       0.03571429       0.40000000 </v>
   <v>      -0.28571429       0.03571429       0.40000000 </v>
   <v>      -0.25000000       0.03571429       0.40000000 </v>
   <v>      -0.21428571       0.03571429       0.40000000 </v>
   <v>      -0.17857143       0.03571429       0.40000000 </v>
   <v>      -0.14285714       0.03571429       0.40000000 </v>
   <v>      -0.10714286       0.03571429       0.40000000 </v>
   <v>       0.07142857       0.07142857       0.40000000 </v>
   <v>       0.10714286       0.07142857       0.40000000 </v>
   <v>       0.14285714       0.07142857       0.40000000 </v>
   <v>       0.17857143       0.07142857       0.40000000 </v>
   <v>       0.21428571       0.07142857       0.40000000 </v>
   <v>       0.25000000       0.07142857       0.40000000 </v>
   <v>       0.28571429       0.07142857       0.40000000 </v>
   <v>       0.32142857       0.07142857       0.40000000 </v>
   <v>       0.35714286       0.07142857       0.40000000 </v>
   <v>       0.39285714       0.07142857       0.40000000 </v>
   <v>       0.42857143       0.07142857       0.40000000 </v>
   <v>       0.46428571       0.07142857       0.40000000 </v>
   <v>       0.50000000       0.07142857       0.40000000 </v>
   <v>      -0.46428571       0.07142857       0.40000000 </v>
   <v>      -0.42857143       0.07142857       0.40000000 </v>
   <v>      -0.39285714       0.07142857       0.40000000 </v>
   <v>      -0.35714286       0.07142857       0.40000000 </v>
   <v>      -0.32142857       0.07142857       0.40000000 </v>
   <v>      -0.28571429       0.07142857       0.40000000 </v>
   <v>      -0.25000000       0.07142857       0.40000000 </v>
   <v>      -0.21428571       0.07142857       0.40000000 </v>
   <v>      -0.17857143       0.07142857       0.40000000 </v>
   <v>       0.10714286       0.10714286       0.40000000 </v>
   <v>       0.14285714       0.10714286       0.40000000 </v>
   <v>       0.17857143       0.10714286       0.40000000 </v>
   <v>       0.21428571       0.10714286       0.40000000 </v>
   <v>       0.25000000       0.10714286       0.40000000 </v>
   <v>       0.28571429       0.10714286       0.40000000 </v>
   <v>       0.32142857       0.10714286       0.40000000 </v>
   <v>       0.35714286       0.10714286       0.40000000 </v>
   <v>       0.39285714       0.10714286       0.40000000 </v>
   <v>       0.42857143       0.10714286       0.40000000 </v>
   <v>       0.46428571       0.10714286       0.40000000 </v>
   <v>       0.50000000       0.10714286       0.40000000 </v>
   <v>      -0.46428571       0.10714286       0.40000000 </v>
   <v>      -0.42857143       0.10714286       0.40000000 </v>
   <v>      -0.39285714       0.10714286       0.40000000 </v>
   <v>      -0.35714286       0.10714286       0.40000000 </v>
   <v>      -0.32142857       0.10714286       0.40000000 </v>
   <v>      -0.28571429       0.10714286       0.40000000 </v>
   <v>      -0.25000000       0.10714286       0.40000000 </v>
   <v>       0.14285714       0.14285714       0.40000000 </v>
   <v>       0.17857143       0.14285714       0.40000000 </v>
   <v>       0.21428571       0.14285714       0.40000000 </v>
   <v>       0.25000000       0.14285714       0.40000000 </v>
   <v>       0.28571429       0.14285714       0.40000000 </v>
   <v>       0.32142857       0.14285714       0.40000000 </v>
   <v>       0.35714286       0.14285714       0.40000000 </v>
   <v>       0.39285714       0.14285714       0.40000000 </v>
   <v>       0.42857143       0.14285714       0.40000000 </v>
   <v>       0.46428571       0.14285714       0.40000000 </v>
   <v>       0.50000000       0.14285714       0.40000000 </v>
   <v>      -0.46428571       0.14285714       0.40000000 </v>
   <v>      -0.42857143       0.14285714       0.40000000 </v>
   <v>      -0.39285714       0.14285714       0.40000000 </v>
   <v>      -0.35714286       0.14285714       0.40000000 </v>
   <v>      -0.32142857       0.14285714       0.40000000 </v>
   <v>       0.17857143       0.17857143       0.40000000 </v>
   <v>       0.21428571       0.17857143       0.40000000 </v>
   <v>       0.25000000       0.17857143       0.40000000 </v>
   <v>       0.28571429       0.17857143       0.40000000 </v>
   <v>       0.32142857       0.17857143       0.40000000 </v>
   <v>       0.35714286       0.17857143       0.40000000 </v>
   <v>       0.39285714       0.17857143       0.40000000 </v>
   <v>       0.42857143       0.17857143       0.40000000 </v>
   <v>       0.46428571       0.17857143       0.40000000 </v>
   <v>       0.50000000       0.17857143       0.40000000 </v>
   <v>      -0.46428571       0.17857143       0.40000000 </v>
   <v>      -0.42857143       0.17857143       0.40000000 </v>
   <v>      -0.39285714       0.17857143       0.40000000 </v>
   <v>       0.21428571       0.21428571       0.40000000 </v>
   <v>       0.25000000       0.21428571       0.40000000 </v>
   <v>       0.28571429       0.21428571       0.40000000 </v>
   <v>       0.32142857       0.21428571       0.40000000 </v>
   <v>       0.35714286       0.21428571       0.40000000 </v>
   <v>       0.39285714       0.21428571       0.40000000 </v>
   <v>       0.42857143       0.21428571       0.40000000 </v>
   <v>       0.46428571       0.21428571       0.40000000 </v>
   <v>       0.50000000       0.21428571       0.40000000 </v>
   <v>      -0.46428571       0.21428571       0.40000000 </v>
   <v>       0.25000000       0.25000000       0.40000000 </v>
   <v>       0.28571429       0.25000000       0.40000000 </v>
   <v>       0.32142857       0.25000000       0.40000000 </v>
   <v>       0.35714286       0.25000000       0.40000000 </v>
   <v>       0.39285714       0.25000000       0.40000000 </v>
   <v>       0.42857143       0.25000000       0.40000000 </v>
   <v>       0.46428571       0.25000000       0.40000000 </v>
   <v>       0.28571429       0.28571429       0.40000000 </v>
   <v>       0.32142857       0.28571429       0.40000000 </v>
   <v>       0.35714286       0.28571429       0.40000000 </v>
   <v>       0.39285714       0.28571429       0.40000000 </v>
   <v>       0.32142857       0.32142857       0.40000000 </v>
  </varray>
  <varray name="weights" >
   <v>       0.00025510 </v>
   <v>       0.00153061 </v>
   <v>       0.00153061 </v>
   <v>       0.00153061 </v>
   <v>       0.00153061 </v>
   <v>       0.00153061 </v>
   <v>       0.00153061 </v>
   <v>       0.00153061 </v>
   <v>       0.00153061 </v>
   <v>       0.00153061 </v>
   <v>       0.00153061 </v>
   <v>       0.00153061 </v>
   <v>       0.00153061 </v>
   <v>       0.00153061 </v>
   <v>       0.00076531 </v>
   <v>       0.00153061 </v>
   <v>       0.00306122 </v>
   <v>       0.00306122 </v>
   <v>       0.00306122 </v>
   <v>       0.00306122 </v>
   <v>       0.00306122 </v>
   <v>       0.00306122 </v>
   <v>       0.00306122 </v>
   <v>       0.00306122 </v>
   <v>       0.00306122 </v>
   <v>       0.00306122 </v>
   <v>       0.00306122 </v>
   <v>       0.00306122 </v>
   <v>       0.00153061 </v>
   <v>       0.00306122 </v>
   <v>       0.00306122 </v>
   <v>       0.00306122 </v>
   <v>       0.00306122 </v>
   <v>       0.00306122 </v>
   <v>       0.00306122 </v>
   <v>       0.00306122 </v>
   <v>       0.00306122 </v>
   <v>       0.00306122 </v>
   <v>       0.00306122 </v>
   <v>       0.00153061 </v>
   <v>       0.00153061 </v>
   <v>       0.00306122 </v>
   <v>       0.00306122 </v>
   <v>       0.00306122 </v>
   <v>       0.00306122 </v>
   <v>       0.00306122 </v>
   <v>       0.00306122 </v>
   <v>       0.00306122 </v>
   <v>       0.00306122 </v>
   <v>       0.00306122 </v>
   <v>       0.00153061 </v>
   <v>       0.00306122 </v>
   <v>       0.00306122 </v>
   <v>       0.00306122 </v>
   <v>       0.00306122 </v>
   <v>       0.00306122 </v>
   <v>       0.00306122 </v>
   <v>       0.00306122 </v>
   <v>       0.00153061 </v>
   <v>       0.00153061 </v>
   <v>       0.00306122 </v>
   <v>       0.00306122 </v>
   <v>       0.00306122 </v>
   <v>       0.00306122 </v>
   <v>       0.00306122 </v>
   <v>       0.00306122 </v>
   <v>       0.00153061 </v>
   <v>       0.00306122 </v>
   <v>       0.00306122 </v>
   <v>       0.00306122 </v>
   <v>       0.00306122 </v>
   <v>       0.00153061 </v>
   <v>       0.00153061 </v>
   <v>       0.00306122 </v>
   <v>       0.00306122 </v>
   <v>       0.00306122 </v>
   <v>       0.00153061 </v>
   <v>       0.00306122 </v>
   <v>       0.00153061 </v>
   <v>       0.00153061 </v>
   <v>       0.00051020 </v>
   <v>       0.00153061 </v>
   <v>       0.00153061 </v>
   <v>       0.00153061 </v>
   <v>       0.00153061 </v>
   <v>       0.00153061 </v>
   <v>       0.00153061 </v>
   <v>       0.00153061 </v>
   <v>       0.00153061 </v>
   <v>       0.00153061 </v>
   <v>       0.00153061 </v>
   <v>       0.00153061 </v>
   <v>       0.00153061 </v>
   <v>       0.00153061 </v>
   <v>       0.00153061 </v>
   <v>       0.00153061 </v>
   <v>       0.00153061 </v>
   <v>       0.00153061 </v>
   <v>       0.00153061 </v>
   <v>       0.00153061 </v>
   <v>       0.00153061 </v>
   <v>       0.00153061 </v>
   <v>       0.00153061 </v>
   <v>       0.00153061 </v>
   <v>       0.00153061 </v>
   <v>       0.00153061 </v>
   <v>       0.00153061 </v>
   <v>       0.00153061 </v>
   <v>       0.00306122 </v>
   <v>       0.00306122 </v>
   <v>       0.00306122 </v>
   <v>       0.00306122 </v>
   <v>       0.00306122 </v>
   <v>       0.00306122 </v>
   <v>       0.00306122 </v>
   <v>       0.00306122 </v>
   <v>       0.00306122 </v>
   <v>       0.00306122 </v>
   <v>       0.00306122 </v>
   <v>       0.00306122 </v>
   <v>       0.00306122 </v>
   <v>       0.00306122 </v>
   <v>       0.00306122 </v>
   <v>       0.00306122 </v>
   <v>       0.00306122 </v>
   <v>       0.00306122 </v>
   <v>       0.00306122 </v>
   <v>       0.00306122 </v>
   <v>       0.00306122 </v>
   <v>       0.00306122 </v>
   <v>       0.00306122 </v>
   <v>       0.00306122 </v>
   <v>       0.00306122 </v>
   <v>       0.00306122 </v>
   <v>       0.00306122 </v>
   <v>       0.00306122 </v>
   <v>       0.00306122 </v>
   <v>       0.00306122 </v>
   <v>       0.00306122 </v>
   <v>       0.00306122 </v>
   <v>       0.00306122 </v>
   <v>       0.00306122 </v>
   <v>       0.00306122 </v>
   <v>       0.00306122 </v>
   <v>       0.00306122 </v>
   <v>       0.00306122 </v>
   <v>       0.00306122 </v>
   <v>       0.00306122 </v>
   <v>       0.00306122 </v>
   <v>       0.00306122 </v>
   <v>       0.00306122 </v>
   <v>       0.00306122 </v>
   <v>       0.00306122 </v>
   <v>       0.00306122 </v>
   <v>       0.00306122 </v>
   <v>       0.00306122 </v>
   <v>       0.00306122 </v>
   <v>       0.00306122 </v>
   <v>       0.00306122 </v>
   <v>       0.00306122 </v>
   <v>       0.00306122 </v>
   <v>       0.00306122 </v>
   <v>       0.00306122 </v>
   <v>       0.00306122 </v>
   <v>       0.00306122 </v>
   <v>       0.00306122 </v>
   <v>       0.00306122 </v>
   <v>       0.00306122 </v>
   <v>       0.00306122 </v>
   <v>       0.00306122 </v>
   <v>       0.00306122 </v>
   <v>       0.00306122 </v>
   <v>       0.00306122 </v>
   <v>       0.00306122 </v>
   <v>       0.00306122 </v>
   <v>       0.00306122 </v>
   <v>       0.00306122 </v>
   <v>       0.00306122 </v>
   <v>       0.00306122 </v>
   <v>       0.00306122 </v>
   <v>       0.00306122 </v>
   <v>       0.00306122 </v>
   <v>       0.00306122 </v>
   <v>       0.00306122 </v>
   <v>       0.00306122 </v>
   <v>       0.00306122 </v>
   <v>       0.00306122 </v>
   <v>       0.00306122 </v>
   <v>       0.00306122 </v>
   <v>       0.00306122 </v>
   <v>       0.00306122 </v>
   <v>       0.00306122 </v>
   <v>       0.00306122 </v>
   <v>       0.00306122 </v>
   <v>       0.00306122 </v>
   <v>       0.00306122 </v>
   <v>       0.00306122 </v>
   <v>       0.00306122 </v>
   <v>       0.00306122 </v>
   <v>       0.00306122 </v>
   <v>       0.00306122 </v>
   <v>       0.00306122 </v>
   <v>       0.00306122 </v>
   <v>       0.00306122 </v>
   <v>       0.00306122 </v>
   <v>       0.00306122 </v>
   <v>       0.00306122 </v>
   <v>       0.00306122 </v>
   <v>       0.00306122 </v>
   <v>       0.00306122 </v>
   <v>       0.00306122 </v>
   <v>       0.00306122 </v>
   <v>       0.00306122 </v>
   <v>       0.00306122 </v>
   <v>       0.00306122 </v>
   <v>       0.00306122 </v>
   <v>       0.00306122 </v>
   <v>       0.00306122 </v>
   <v>       0.00306122 </v>
   <v>       0.00306122 </v>
   <v>       0.00306122 </v>
   <v>       0.00306122 </v>
   <v>       0.00306122 </v>
   <v>       0.00306122 </v>
   <v>       0.00306122 </v>
   <v>       0.00051020 </v>
   <v>       0.00153061 </v>
   <v>       0.00153061 </v>
   <v>       0.00153061 </v>
   <v>       0.00153061 </v>
   <v>       0.00153061 </v>
   <v>       0.00153061 </v>
   <v>       0.00153061 </v>
   <v>       0.00153061 </v>
   <v>       0.00153061 </v>
   <v>       0.00153061 </v>
   <v>       0.00153061 </v>
   <v>       0.00153061 </v>
   <v>       0.00153061 </v>
   <v>       0.00153061 </v>
   <v>       0.00153061 </v>
   <v>       0.00153061 </v>
   <v>       0.00153061 </v>
   <v>       0.00153061 </v>
   <v>       0.00153061 </v>
   <v>       0.00153061 </v>
   <v>       0.00153061 </v>
   <v>       0.00153061 </v>
   <v>       0.00153061 </v>
   <v>       0.00153061 </v>
   <v>       0.00153061 </v>
   <v>       0.00153061 </v>
   <v>       0.00153061 </v>
   <v>       0.00306122 </v>
   <v>       0.00306122 </v>
   <v>       0.00306122 </v>
   <v>       0.00306122 </v>
   <v>       0.00306122 </v>
   <v>       0.00306122 </v>
   <v>       0.00306122 </v>
   <v>       0.00306122 </v>
   <v>       0.00306122 </v>
   <v>       0.00306122 </v>
   <v>       0.00306122 </v>
   <v>       0.00306122 </v>
   <v>       0.00306122 </v>
   <v>       0.00306122 </v>
   <v>       0.00306122 </v>
   <v>       0.00306122 </v>
   <v>       0.00306122 </v>
   <v>       0.00306122 </v>
   <v>       0.00306122 </v>
   <v>       0.00306122 </v>
   <v>       0.00306122 </v>
   <v>       0.00306122 </v>
   <v>       0.00306122 </v>
   <v>       0.00306122 </v>
   <v>       0.00306122 </v>
   <v>       0.00306122 </v>
   <v>       0.00306122 </v>
   <v>       0.00306122 </v>
   <v>       0.00306122 </v>
   <v>       0.00306122 </v>
   <v>       0.00306122 </v>
   <v>       0.00306122 </v>
   <v>       0.00306122 </v>
   <v>       0.00306122 </v>
   <v>       0.00306122 </v>
   <v>       0.00306122 </v>
   <v>       0.00306122 </v>
   <v>       0.00306122 </v>
   <v>       0.00306122 </v>
   <v>       0.00306122 </v>
   <v>       0.00306122 </v>
   <v>       0.00306122 </v>
   <v>       0.00306122 </v>
   <v>       0.00306122 </v>
   <v>       0.00306122 </v>
   <v>       0.00306122 </v>
   <v>       0.00306122 </v>
   <v>       0.00306122 </v>
   <v>       0.00306122 </v>
   <v>       0.00306122 </v>
   <v>       0.00306122 </v>
   <v>       0.00306122 </v>
   <v>       0.00306122 </v>
   <v>       0.00306122 </v>
   <v>       0.00306122 </v>
   <v>       0.00306122 </v>
   <v>       0.00306122 </v>
   <v>       0.00306122 </v>
   <v>       0.00306122 </v>
   <v>       0.00306122 </v>
   <v>       0.00306122 </v>
   <v>       0.00306122 </v>
   <v>       0.00306122 </v>
   <v>       0.00306122 </v>
   <v>       0.00306122 </v>
   <v>       0.00306122 </v>
   <v>       0.00306122 </v>
   <v>       0.00306122 </v>
   <v>       0.00306122 </v>
   <v>       0.00306122 </v>
   <v>       0.00306122 </v>
   <v>       0.00306122 </v>
   <v>       0.00306122 </v>
   <v>       0.00306122 </v>
   <v>       0.00306122 </v>
   <v>       0.00306122 </v>
   <v>       0.00306122 </v>
   <v>       0.00306122 </v>
   <v>       0.00306122 </v>
   <v>       0.00306122 </v>
   <v>       0.00306122 </v>
   <v>       0.00306122 </v>
   <v>       0.00306122 </v>
   <v>       0.00306122 </v>
   <v>       0.00306122 </v>
   <v>       0.00306122 </v>
   <v>       0.00306122 </v>
   <v>       0.00306122 </v>
   <v>       0.00306122 </v>
   <v>       0.00306122 </v>
   <v>       0.00306122 </v>
   <v>       0.00306122 </v>
   <v>       0.00306122 </v>
   <v>       0.00306122 </v>
   <v>       0.00306122 </v>
   <v>       0.00306122 </v>
   <v>       0.00306122 </v>
   <v>       0.00306122 </v>
   <v>       0.00306122 </v>
   <v>       0.00306122 </v>
   <v>       0.00306122 </v>
   <v>       0.00306122 </v>
   <v>       0.00306122 </v>
   <v>       0.00306122 </v>
   <v>       0.00306122 </v>
   <v>       0.00306122 </v>
   <v>       0.00306122 </v>
   <v>       0.00306122 </v>
   <v>       0.00306122 </v>
   <v>       0.00306122 </v>
   <v>       0.00306122 </v>
   <v>       0.00306122 </v>
   <v>       0.00306122 </v>
   <v>       0.00306122 </v>
   <v>       0.00306122 </v>
   <v>       0.00306122 </v>
   <v>       0.00306122 </v>
  </varray>
 </kpoints>
 <parameters>
  <separator name="general" >
   <i type="string" name="SYSTEM">unknown system</i>
   <i type="logical" name="LCOMPAT"> F  </i>
  </separator>
  <separator name="electronic" >
   <i type="string" name="PREC">accura</i>
   <i name="ENMAX">    500.00000000</i>
   <i name="ENAUG">    586.98000000</i>
   <i name="EDIFF">      0.00000100</i>
   <i type="int" name="IALGO">    68</i>
   <i type="int" name="IWAVPR">    11</i>
   <i type="int" name="NBANDS">    40</i>
   <i name="NELECT">     66.00000000</i>
   <i type="int" name="TURBO">     0</i>
   <i type="int" name="IRESTART">     0</i>
   <i type="int" name="NREBOOT">     0</i>
   <i type="int" name="NMIN">     0</i>
   <i name="EREF">      0.00000000</i>
   <separator name="electronic smearing" >
    <i type="int" name="ISMEAR">     1</i>
    <i name="SIGMA">      0.30000000</i>
    <i name="KSPACING">      0.50000000</i>
    <i type="logical" name="KGAMMA"> T  </i>
   </separator>
   <separator name="electronic projectors" >
    <i type="logical" name="LREAL"> F  </i>
    <v name="ROPT">      0.00000000      0.00000000      0.00000000</v>
    <i type="int" name="LMAXPAW">  -100</i>
    <i type="int" name="LMAXMIX">     2</i>
    <i type="logical" name="NLSPLINE"> F  </i>
   </separator>
   <separator name="electronic startup" >
    <i type="int" name="ISTART">     0</i>
    <i type="int" name="ICHARG">     2</i>
    <i type="int" name="INIWAV">     1</i>
   </separator>
   <separator name="electronic spin" >
    <i type="int" name="ISPIN">     1</i>
    <i type="logical" name="LNONCOLLINEAR"> F  </i>
    <v name="MAGMOM">      1.00000000      1.00000000      1.00000000      1.00000000      1.00000000      1.00000000</v>
    <i name="NUPDOWN">     -1.00000000</i>
    <i type="logical" name="LSORBIT"> F  </i>
    <v name="SAXIS">      0.00000000      0.00000000      1.00000000</v>
    <i type="logical" name="LSPIRAL"> F  </i>
    <v name="QSPIRAL">      0.00000000      0.00000000      0.00000000</v>
    <i type="logical" name="LZEROZ"> F  </i>
   </separator>
   <separator name="electronic exchange-correlation" >
    <i type="logical" name="LASPH"> F  </i>
    <i type="logical" name="LMETAGGA"> F  </i>
   </separator>
   <separator name="electronic convergence" >
    <i type="int" name="NELM">   200</i>
    <i type="int" name="NELMDL">     0</i>
    <i type="int" name="NELMIN">     4</i>
    <i name="ENINI">    500.00000000</i>
    <separator name="electronic convergence detail" >
     <i type="logical" name="LDIAG"> T  </i>
     <i type="logical" name="LSUBROT"> F  </i>
     <i name="WEIMIN">      0.00100000</i>
     <i name="EBREAK">      0.00000001</i>
     <i name="DEPER">      0.30000000</i>
     <i type="int" name="NRMM">     4</i>
     <i name="TIME">      0.40000000</i>
    </separator>
   </separator>
   <separator name="electronic mixer" >
    <i name="AMIX">      0.40000000</i>
    <i name="BMIX">      1.00000000</i>
    <i name="AMIN">      0.10000000</i>
    <i name="AMIX_MAG">      1.60000000</i>
    <i name="BMIX_MAG">      1.00000000</i>
    <separator name="electronic mixer details" >
     <i type="int" name="IMIX">     4</i>
     <i type="int" name="MAXMIX">   -45</i>
     <i name="WC">    100.00000000</i>
     <i type="int" name="INIMIX">     1</i>
     <i type="int" name="MIXPRE">     1</i>
     <i type="int" name="MREMOVE">     5</i>
    </separator>
   </separator>
   <separator name="electronic dipolcorrection" >
    <i type="logical" name="LDIPOL"> F  </i>
    <i type="logical" name="LMONO"> F  </i>
    <i type="int" name="IDIPOL">     0</i>
    <i name="EPSILON">      1.00000000</i>
    <v name="DIPOL">   -100.00000000   -100.00000000   -100.00000000</v>
    <i name="EFIELD">      0.00000000</i>
   </separator>
  </separator>
  <separator name="grids" >
   <i type="int" name="NGX">    24</i>
   <i type="int" name="NGY">    24</i>
   <i type="int" name="NGZ">   100</i>
   <i type="int" name="NGXF">    48</i>
   <i type="int" name="NGYF">    48</i>
   <i type="int" name="NGZF">   200</i>
   <i type="logical" name="ADDGRID"> T  </i>
  </separator>
  <separator name="ionic" >
   <i type="int" name="NSW">    30</i>
   <i type="int" name="IBRION">     2</i>
   <i type="int" name="ISIF">     3</i>
   <i name="PSTRESS">      0.00000000</i>
   <i name="EDIFFG">     -0.02000000</i>
   <i type="int" name="NFREE">     1</i>
   <i name="POTIM">      0.50000000</i>
   <i name="SMASS">     -3.00000000</i>
   <i name="SCALEE">      1.00000000</i>
  </separator>
  <separator name="ionic md" >
   <i name="TEBEG">      0.00010000</i>
   <i name="TEEND">      0.00010000</i>
   <i type="int" name="NBLOCK">     1</i>
   <i type="int" name="KBLOCK">    30</i>
   <i type="int" name="NPACO">   256</i>
   <i name="APACO">     16.00000000</i>
  </separator>
  <separator name="symmetry" >
   <i type="int" name="ISYM">     2</i>
   <i name="SYMPREC">      0.00001000</i>
  </separator>
  <separator name="dos" >
   <i type="logical" name="LORBIT"> F  </i>
   <v name="RWIGS">     -1.00000000     -1.00000000     -1.00000000</v>
   <i type="int" name="NEDOS">   301</i>
   <i name="EMIN">     10.00000000</i>
   <i name="EMAX">    -10.00000000</i>
   <i name="EFERMI">      0.00000000</i>
  </separator>
  <separator name="writing" >
   <i type="int" name="NWRITE">     2</i>
   <i type="logical" name="LWAVE"> F  </i>
   <i type="logical" name="LCHARG"> F  </i>
   <i type="logical" name="LPARD"> F  </i>
   <i type="logical" name="LVTOT"> F  </i>
   <i type="logical" name="LVHAR"> F  </i>
   <i type="logical" name="LELF"> F  </i>
   <i type="logical" name="LOPTICS"> F  </i>
   <v name="STM">      0.00000000      0.00000000      0.00000000      0.00000000      0.00000000      0.00000000      0.00000000</v>
  </separator>
  <separator name="performance" >
   <i type="int" name="NPAR">     4</i>
   <i type="int" name="NSIM">     4</i>
   <i type="int" name="NBLK">    -1</i>
   <i type="logical" name="LPLANE"> T  </i>
   <i type="logical" name="LSCALAPACK"> T  </i>
   <i type="logical" name="LSCAAWARE"> F  </i>
   <i type="logical" name="LSCALU"> F  </i>
   <i type="logical" name="LASYNC"> F  </i>
   <i type="logical" name="LORBITALREAL"> F  </i>
  </separator>
  <separator name="miscellaneous" >
   <i type="int" name="IDIOT">     3</i>
   <i type="logical" name="LMUSIC"> F  </i>
   <v name="POMASS">     63.54600000    107.86800000    196.96600000</v>
   <v name="DARWINR">      0.00000000      0.00000000      0.00000000</v>
   <v name="DARWINV">      1.00000000      1.00000000      1.00000000</v>
   <i type="logical" name="LCORR"> T  </i>
  </separator>
  <i type="logical" name="GGA_COMPAT"> T  </i>
  <i type="logical" name="LBERRY"> F  </i>
  <i type="int" name="ICORELEVEL">     0</i>
  <i type="logical" name="LDAU"> F  </i>
  <i type="int" name="I_CONSTRAINED_M">     0</i>
  <separator name="electronic exchange-correlation" >
   <i type="string" name="GGA">--</i>
   <i type="int" name="VOSKOWN">     0</i>
   <i type="logical" name="LHFCALC"> F  </i>
   <i type="string" name="PRECFOCK"></i>
   <i type="logical" name="LSYMGRAD"> F  </i>
   <i type="logical" name="LHFONE"> F  </i>
   <i type="logical" name="LRHFCALC"> F  </i>
   <i type="logical" name="LTHOMAS"> F  </i>
   <i type="logical" name="LMODELHF"> F  </i>
   <i name="ENCUT4O">     -1.00000000</i>
   <i type="int" name="EXXOEP">     0</i>
   <i type="int" name="FOURORBIT">     0</i>
   <i name="AEXX">      0.00000000</i>
   <i name="HFALPHA">      0.00000000</i>
   <i name="MCALPHA">      0.00000000</i>
   <i name="ALDAX">      1.00000000</i>
   <i name="AGGAX">      1.00000000</i>
   <i name="ALDAC">      1.00000000</i>
   <i name="AGGAC">      1.00000000</i>
   <i type="int" name="NKREDX">     1</i>
   <i type="int" name="NKREDY">     1</i>
   <i type="int" name="NKREDZ">     1</i>
   <i type="logical" name="SHIFTRED"> F  </i>
   <i type="logical" name="ODDONLY"> F  </i>
   <i type="logical" name="EVENONLY"> F  </i>
   <i type="int" name="LMAXFOCK">     0</i>
   <i type="int" name="NMAXFOCKAE">     0</i>
   <i type="logical" name="LFOCKAEDFT"> F  </i>
   <i name="HFSCREEN">      0.00000000</i>
   <i name="HFSCREENC">      0.00000000</i>
   <i type="int" name="NBANDSGWLOW">     0</i>
  </separator>
  <separator name="vdW DFT" >
   <i type="logical" name="LUSE_VDW"> F  </i>
   <i name="Zab_VDW">     -0.84910000</i>
   <i name="PARAM1">      0.12340000</i>
   <i name="PARAM2">      1.00000000</i>
   <i name="PARAM3">      0.00000000</i>
  </separator>
  <separator name="model GW" >
   <i type="int" name="MODEL_GW">     0</i>
   <i name="MODEL_EPS0">      9.64609566</i>
   <i name="MODEL_ALPHA">      1.00000000</i>
  </separator>
  <separator name="linear response parameters" >
   <i type="logical" name="LEPSILON"> F  </i>
   <i type="logical" name="LRPA"> F  </i>
   <i type="logical" name="LNABLA"> F  </i>
   <i type="logical" name="LVEL"> F  </i>
   <i type="int" name="KINTER">     0</i>
   <i name="CSHIFT">      0.10000000</i>
   <i name="OMEGAMAX">     -1.00000000</i>
   <i name="DEG_THRESHOLD">      0.00200000</i>
  </separator>
  <separator name="orbital magnetization" >
   <i type="logical" name="NUCIND"> F  </i>
   <v name="MAGPOS">      0.00000000      0.00000000      0.00000000</v>
   <i type="logical" name="LNICSALL"> T  </i>
   <i type="logical" name="ORBITALMAG"> F  </i>
   <i type="logical" name="LMAGBLOCH"> F  </i>
   <i type="logical" name="LCHIMAG"> F  </i>
   <i type="logical" name="LGAUGE"> T  </i>
   <i type="int" name="MAGATOM">     0</i>
   <v name="MAGDIPOL">      0.00000000      0.00000000      0.00000000</v>
   <v name="AVECCONST">      0.00000000      0.00000000      0.00000000</v>
  </separator>
  <separator name="response functions" >
   <i type="logical" name="LADDER"> F  </i>
   <i type="logical" name="LFXC"> F  </i>
   <i type="logical" name="LHARTREE"> T  </i>
   <i type="int" name="IBSE">     0</i>
   <i type="logical" name="LTCTE"> F  </i>
   <i type="logical" name="LTETE"> F  </i>
   <i type="logical" name="LTRIPLET"> F  </i>
   <i type="logical" name="LFXCEPS"> F  </i>
   <i type="logical" name="LFXHEG"> F  </i>
   <i type="logical" name="L2ORDER"> F  </i>
   <i type="logical" name="LUSEW"> F  </i>
   <i name="ENCUTGW">     -2.00000000</i>
   <i name="ENCUTGWSOFT">     -2.00000000</i>
   <i name="ENCUTLF">     -1.00000000</i>
   <i type="int" name="LMAXMP2">    -1</i>
   <i name="SCISSOR">      0.00000000</i>
   <i type="int" name="NOMEGA">     0</i>
   <i type="int" name="NOMEGAR">     0</i>
   <i type="int" name="NBANDSGW">    -1</i>
   <i type="int" name="NBANDSO">    -1</i>
   <i type="int" name="NBANDSV">    -1</i>
   <i type="int" name="NELM">   200</i>
   <i type="int" name="DIM">     3</i>
   <i type="int" name="ANTIRES">     0</i>
   <i name="OMEGAMAX">    -30.00000000</i>
   <i name="OMEGAMIN">    -30.00000000</i>
   <i name="OMEGATL">   -200.00000000</i>
   <i type="int" name="OMEGAGRID">     0</i>
   <i name="CSHIFT">     -0.10000000</i>
   <i type="logical" name="SELFENERGY"> F  </i>
   <i type="logical" name="LSPECTRAL"> F  </i>
   <i type="logical" name="ODDONLYGW"> F  </i>
   <i type="logical" name="EVENONLYGW"> F  </i>
   <i type="int" name="NKREDLFX">     1</i>
   <i type="int" name="NKREDLFY">     1</i>
   <i type="int" name="NKREDLFZ">     1</i>
   <i type="int" name="MAXMEM">  1800</i>
   <i type="int" name="TELESCOPE">     0</i>
   <i type="int" name="TAUPAR">     1</i>
  </separator>
  <separator name="External order field" >
   <i name="OFIELD_KAPPA">      0.00000000</i>
   <v name="OFIELD_K">      0.00000000      0.00000000      0.00000000</v>
   <i name="OFIELD_Q6_NEAR">      0.00000000</i>
   <i name="OFIELD_Q6_FAR">      0.00000000</i>
   <i name="OFIELD_A">      0.00000000</i>
  </separator>
 </parameters>
 <atominfo>
  <atoms>       6 </atoms>
  <types>       3 </types>
  <array name="atoms" >
   <dimension dim="1">ion</dimension>
   <field type="string">element</field>
   <field type="int">atomtype</field>
   <set>
    <rc><c>Cu</c><c>   1</c></rc>
    <rc><c>Cu</c><c>   1</c></rc>
    <rc><c>Ag</c><c>   2</c></rc>
    <rc><c>Ag</c><c>   2</c></rc>
    <rc><c>Ag</c><c>   2</c></rc>
    <rc><c>Au</c><c>   3</c></rc>
   </set>
  </array>
  <array name="atomtypes" >
   <dimension dim="1">type</dimension>
   <field type="int">atomspertype</field>
   <field type="string">element</field>
   <field>mass</field>
   <field>valence</field>
   <field type="string">pseudopotential</field>
   <set>
    <rc><c>   2</c><c>Cu</c><c>     63.54600000</c><c>     11.00000000</c><c>  PAW_PBE Cu 22Jun2005                  </c></rc>
    <rc><c>   3</c><c>Ag</c><c>    107.86800000</c><c>     11.00000000</c><c>  PAW_PBE Ag 02Apr2005                  </c></rc>
    <rc><c>   1</c><c>Au</c><c>    196.96600000</c><c>     11.00000000</c><c>  PAW_PBE Au 04Oct2007                  </c></rc>
   </set>
  </array>
 </atominfo>
 <structure name="initialpos" >
  <crystal>
   <varray name="basis" >
    <v>       2.02539201       0.00000000       2.02539201 </v>
    <v>       0.00000000      -2.02539201      -2.02539201 </v>
    <v>       7.83812390       7.83812390      -7.83812390 </v>
   </varray>
   <i name="volume">     96.46095660 </i>
   <varray name="rec_basis" >
    <v>       0.32915439      -0.16457719       0.16457719 </v>
    <v>       0.16457719      -0.32915439      -0.16457719 </v>
    <v>       0.04252718       0.04252718      -0.04252718 </v>
   </varray>
  </crystal>
  <varray name="positions" >
   <v>       0.66666667       0.33333333       0.33340339 </v>
   <v>       0.66666667       0.33333333       0.83320589 </v>
   <v>       0.33333333       0.66666667       0.17443116 </v>
   <v>       0.00000000       0.00000000       0.49315565 </v>
   <v>       0.33333333       0.66666667       0.67394917 </v>
   <v>       0.00000000       0.00000000       0.99185475 </v>
  </varray>
 </structure>
 <calculation>
  <scstep>
   <time name="dav">    4.45    4.45</time>
   <time name="total">    4.51    4.52</time>
   <energy>
    <i name="alphaZ">    322.15228918 </i>
    <i name="ewald">  -5954.67382168 </i>
    <i name="hartreedc">  -1570.10002914 </i>
    <i name="XCdc">     75.14717123 </i>
    <i name="pawpsdc">   6340.89727109 </i>
    <i name="pawaedc">  -6391.15489177 </i>
    <i name="eentropy">     -0.00101820 </i>
    <i name="bandstr">    972.52988638 </i>
    <i name="atom">   6819.82248136 </i>
    <i name="e_fr_energy">    614.61933845 </i>
    <i name="e_wo_entrp">    614.62035665 </i>
    <i name="e_0_energy">    614.61967785 </i>
   </energy>
  </scstep>
  <scstep>
   <time name="dav">    4.66    4.66</time>
   <time name="total">    4.67    4.69</time>
   <energy>
    <i name="e_fr_energy">     35.70701195 </i>
    <i name="e_wo_entrp">     35.70369759 </i>
    <i name="e_0_energy">     35.70590716 </i>
   </energy>
  </scstep>
  <scstep>
   <time name="dav">    4.97    4.97</time>
   <time name="total">    4.99    5.00</time>
   <energy>
    <i name="e_fr_energy">    -19.44100272 </i>
    <i name="e_wo_entrp">    -19.44327272 </i>
    <i name="e_0_energy">    -19.44175939 </i>
   </energy>
  </scstep>
  <scstep>
   <time name="dav">    5.31    5.31</time>
   <time name="total">    5.33    5.34</time>
   <energy>
    <i name="e_fr_energy">    -20.93798673 </i>
    <i name="e_wo_entrp">    -20.94025283 </i>
    <i name="e_0_energy">    -20.93874210 </i>
   </energy>
  </scstep>
  <scstep>
   <time name="dav">    5.51    5.51</time>
   <time name="total">    5.85    5.87</time>
   <energy>
    <i name="e_fr_energy">    -20.97205296 </i>
    <i name="e_wo_entrp">    -20.97434263 </i>
    <i name="e_0_energy">    -20.97281618 </i>
   </energy>
  </scstep>
  <scstep>
   <time name="diag">    1.28    1.28</time>
   <time name="diis">    2.11    2.11</time>
   <time name="orth">    0.19    0.19</time>
   <time name="total">    3.96    3.98</time>
   <energy>
    <i name="e_fr_energy">    -19.96699715 </i>
    <i name="e_wo_entrp">    -19.96478037 </i>
    <i name="e_0_energy">    -19.96625822 </i>
   </energy>
  </scstep>
  <scstep>
   <time name="diag">    1.22    1.23</time>
   <time name="diis">    2.20    2.20</time>
   <time name="orth">    0.18    0.18</time>
   <time name="total">    4.00    4.01</time>
   <energy>
    <i name="e_fr_energy">    -18.63802621 </i>
    <i name="e_wo_entrp">    -18.63723281 </i>
    <i name="e_0_energy">    -18.63776175 </i>
   </energy>
  </scstep>
  <scstep>
   <time name="diag">    1.22    1.22</time>
   <time name="diis">    2.21    2.21</time>
   <time name="orth">    0.19    0.19</time>
   <time name="total">    4.02    4.03</time>
   <energy>
    <i name="e_fr_energy">    -18.50066418 </i>
    <i name="e_wo_entrp">    -18.50019250 </i>
    <i name="e_0_energy">    -18.50050695 </i>
   </energy>
  </scstep>
  <scstep>
   <time name="diag">    1.23    1.23</time>
   <time name="diis">    2.15    2.15</time>
   <time name="orth">    0.18    0.18</time>
   <time name="total">    3.95    3.97</time>
   <energy>
    <i name="e_fr_energy">    -18.53851641 </i>
    <i name="e_wo_entrp">    -18.53701608 </i>
    <i name="e_0_energy">    -18.53801630 </i>
   </energy>
  </scstep>
  <scstep>
   <time name="diag">    1.22    1.22</time>
   <time name="diis">    2.17    2.17</time>
   <time name="orth">    0.18    0.18</time>
   <time name="total">    3.97    3.98</time>
   <energy>
    <i name="e_fr_energy">    -18.49288261 </i>
    <i name="e_wo_entrp">    -18.49207213 </i>
    <i name="e_0_energy">    -18.49261245 </i>
   </energy>
  </scstep>
  <scstep>
   <time name="diag">    1.22    1.22</time>
   <time name="diis">    2.18    2.18</time>
   <time name="orth">    0.18    0.18</time>
   <time name="total">    3.98    3.99</time>
   <energy>
    <i name="e_fr_energy">    -18.48666234 </i>
    <i name="e_wo_entrp">    -18.48604470 </i>
    <i name="e_0_energy">    -18.48645646 </i>
   </energy>
  </scstep>
  <scstep>
   <time name="diag">    1.22    1.22</time>
   <time name="diis">    2.21    2.21</time>
   <time name="orth">    0.18    0.18</time>
   <time name="total">    4.01    4.02</time>
   <energy>
    <i name="e_fr_energy">    -18.48639379 </i>
    <i name="e_wo_entrp">    -18.48577479 </i>
    <i name="e_0_energy">    -18.48618746 </i>
   </energy>
  </scstep>
  <scstep>
   <time name="diag">    1.23    1.23</time>
   <time name="diis">    2.61    2.61</time>
   <time name="orth">    0.18    0.18</time>
   <time name="total">    4.42    4.43</time>
   <energy>
    <i name="e_fr_energy">    -18.48638231 </i>
    <i name="e_wo_entrp">    -18.48575555 </i>
    <i name="e_0_energy">    -18.48617339 </i>
   </energy>
  </scstep>
  <scstep>
   <time name="diag">    1.22    1.22</time>
   <time name="diis">    2.12    2.12</time>
   <time name="orth">    0.19    0.19</time>
   <time name="total">    3.93    3.95</time>
   <energy>
    <i name="e_fr_energy">    -18.48636678 </i>
    <i name="e_wo_entrp">    -18.48574097 </i>
    <i name="e_0_energy">    -18.48615818 </i>
   </energy>
  </scstep>
  <scstep>
   <time name="diag">    1.22    1.22</time>
   <time name="diis">    2.22    2.22</time>
   <time name="orth">    0.18    0.18</time>
   <time name="total">    4.02    4.03</time>
   <energy>
    <i name="e_fr_energy">    -18.48636465 </i>
    <i name="e_wo_entrp">    -18.48573855 </i>
    <i name="e_0_energy">    -18.48615595 </i>
   </energy>
  </scstep>
  <scstep>
   <time name="diag">    1.22    1.22</time>
   <time name="diis">    1.38    1.38</time>
   <time name="orth">    0.18    0.18</time>
   <time name="total">    2.84    2.86</time>
   <energy>
    <i name="alphaZ">    322.15228918 </i>
    <i name="ewald">  -5954.67382168 </i>
    <i name="hartreedc">  -1480.67241043 </i>
    <i name="XCdc">     71.41630483 </i>
    <i name="pawpsdc">   6951.97983377 </i>
    <i name="pawaedc">  -7016.17497190 </i>
    <i name="eentropy">     -0.00062639 </i>
    <i name="bandstr">    267.66455744 </i>
    <i name="atom">   6819.82248136 </i>
    <i name="e_fr_energy">    -18.48636381 </i>
    <i name="e_wo_entrp">    -18.48573743 </i>
    <i name="e_0_energy">    -18.48615502 </i>
   </energy>
  </scstep>
  <structure>
   <crystal>
    <varray name="basis" >
     <v>       2.02539201       0.00000000       2.02539201 </v>
     <v>       0.00000000      -2.02539201      -2.02539201 </v>
     <v>       7.83812390       7.83812390      -7.83812390 </v>
    </varray>
    <i name="volume">     96.46095660 </i>
    <varray name="rec_basis" >
     <v>       0.32915439      -0.16457719       0.16457719 </v>
     <v>       0.16457719      -0.32915439      -0.16457719 </v>
     <v>       0.04252718       0.04252718      -0.04252718 </v>
    </varray>
   </crystal>
   <varray name="positions" >
    <v>       0.66666667       0.33333333       0.33340339 </v>
    <v>       0.66666667       0.33333333       0.83320589 </v>
    <v>       0.33333333       0.66666667       0.17443116 </v>
    <v>       0.00000000       0.00000000       0.49315565 </v>
    <v>       0.33333333       0.66666667       0.67394917 </v>
    <v>       0.00000000       0.00000000       0.99185475 </v>
   </varray>
  </structure>
  <varray name="forces" >
   <v>       0.00100095       0.00100095      -0.00100095 </v>
   <v>      -0.00165663      -0.00165663       0.00165663 </v>
   <v>      -0.00689470      -0.00689470       0.00689470 </v>
   <v>       0.00175024       0.00175024      -0.00175024 </v>
   <v>       0.00455759       0.00455759      -0.00455759 </v>
   <v>       0.00124255       0.00124255      -0.00124255 </v>
  </varray>
  <varray name="stress" >
   <v>      -0.32477219       0.29445424      -0.29445424 </v>
   <v>       0.29445424      -0.32477219      -0.29445424 </v>
   <v>      -0.29445424      -0.29445424      -0.32477219 </v>
  </varray>
  <energy>
   <i name="e_fr_energy">    -18.48636381 </i>
   <i name="e_wo_entrp">    -18.48615502 </i>
   <i name="e_0_energy">     -0.00062639 </i>
  </energy>
  <time name="totalsc">   71.93   72.17</time>
  <eigenvalues>
   <array>
    <dimension dim="1">band</dimension>
    <dimension dim="2">kpoint</dimension>
    <dimension dim="3">spin</dimension>
    <field>eigene</field>
    <field>occ</field>
    <set>
     <set comment="spin 1">
      <set comment="kpoint 1">
       <r>   -0.9492    1.0000 </r>
       <r>    0.2960    1.0000 </r>
       <r>    0.7046    1.0000 </r>
       <r>    1.2970    1.0000 </r>
       <r>    1.6748    1.0000 </r>
       <r>    2.0108    1.0000 </r>
       <r>    2.8039    1.0000 </r>
       <r>    3.0639    1.0000 </r>
       <r>    3.0639    1.0000 </r>
       <r>    3.0950    1.0000 </r>
       <r>    3.0950    1.0000 </r>
       <r>    3.1242    1.0000 </r>
       <r>    3.1242    1.0000 </r>
       <r>    3.2742    1.0000 </r>
       <r>    3.2742    1.0000 </r>
       <r>    3.9166    1.0000 </r>
       <r>    3.9463    1.0000 </r>
       <r>    3.9463    1.0000 </r>
       <r>    4.1113    1.0000 </r>
       <r>    4.1113    1.0000 </r>
       <r>    4.2798    1.0000 </r>
       <r>    4.2798    1.0000 </r>
       <r>    4.5406    1.0000 </r>
       <r>    4.7659    1.0000 </r>
       <r>    4.7659    1.0000 </r>
       <r>    5.0622    1.0000 </r>
       <r>    5.3889    1.0000 </r>
       <r>    5.5474    1.0000 </r>
       <r>    5.5474    1.0000 </r>
       <r>    5.5875    1.0000 </r>
       <r>    5.5875    1.0000 </r>
       <r>    5.9563    1.0000 </r>
       <r>    5.9563    1.0000 </r>
       <r>    6.0495    1.0000 </r>
       <r>    6.0495    1.0000 </r>
       <r>    7.5475    1.0154 </r>
       <r>   11.5427    0.0000 </r>
       <r>   15.8873    0.0000 </r>
       <r>   15.9771    0.0000 </r>
       <r>   19.3531    0.0000 </r>
      </set>
      <set comment="kpoint 2">
       <r>   -0.9098    1.0000 </r>
       <r>    0.3311    1.0000 </r>
       <r>    0.7368    1.0000 </r>
       <r>    1.3265    1.0000 </r>
       <r>    1.6935    1.0000 </r>
       <r>    2.0312    1.0000 </r>
       <r>    2.8020    1.0000 </r>
       <r>    3.0534    1.0000 </r>
       <r>    3.0828    1.0000 </r>
       <r>    3.0829    1.0000 </r>
       <r>    3.1116    1.0000 </r>
       <r>    3.1131    1.0000 </r>
       <r>    3.1421    1.0000 </r>
       <r>    3.2558    1.0000 </r>
       <r>    3.2976    1.0000 </r>
       <r>    3.8276    1.0000 </r>
       <r>    3.9143    1.0000 </r>
       <r>    3.9412    1.0000 </r>
       <r>    4.0927    1.0000 </r>
       <r>    4.1030    1.0000 </r>
       <r>    4.2826    1.0000 </r>
       <r>    4.2965    1.0000 </r>
       <r>    4.5469    1.0000 </r>
       <r>    4.7560    1.0000 </r>
       <r>    4.7620    1.0000 </r>
       <r>    5.0786    1.0000 </r>
       <r>    5.4517    1.0000 </r>
       <r>    5.5432    1.0000 </r>
       <r>    5.5546    1.0000 </r>
       <r>    5.5880    1.0000 </r>
       <r>    5.5934    1.0000 </r>
       <r>    5.9579    1.0000 </r>
       <r>    5.9637    1.0000 </r>
       <r>    6.0195    1.0000 </r>
       <r>    6.0494    1.0000 </r>
       <r>    7.6796    0.8613 </r>
       <r>   11.5500    0.0000 </r>
       <r>   15.9128    0.0000 </r>
       <r>   15.9554    0.0000 </r>
       <r>   19.4051    0.0000 </r>
      </set>
      <set comment="kpoint 3">
       <r>   -0.7926    1.0000 </r>
       <r>    0.4347    1.0000 </r>
       <r>    0.8317    1.0000 </r>
       <r>    1.4127    1.0000 </r>
       <r>    1.7478    1.0000 </r>
       <r>    2.0901    1.0000 </r>
       <r>    2.7947    1.0000 </r>
       <r>    3.0240    1.0000 </r>
       <r>    3.0482    1.0000 </r>
       <r>    3.0767    1.0000 </r>
       <r>    3.1393    1.0000 </r>
       <r>    3.1661    1.0000 </r>
       <r>    3.1951    1.0000 </r>
       <r>    3.2045    1.0000 </r>
       <r>    3.3666    1.0000 </r>
       <r>    3.6336    1.0000 </r>
       <r>    3.8278    1.0000 </r>
       <r>    3.9262    1.0000 </r>
       <r>    4.0317    1.0000 </r>
       <r>    4.0822    1.0000 </r>
       <r>    4.2888    1.0000 </r>
       <r>    4.2895    1.0000 </r>
       <r>    4.5671    1.0000 </r>
       <r>    4.7507    1.0000 </r>
       <r>    4.7529    1.0000 </r>
       <r>    5.1212    1.0000 </r>
       <r>    5.5211    1.0000 </r>
       <r>    5.5361    1.0000 </r>
       <r>    5.5758    1.0000 </r>
       <r>    5.6111    1.0000 </r>
       <r>    5.6627    1.0000 </r>
       <r>    5.8668    1.0000 </r>
       <r>    5.9620    1.0000 </r>
       <r>    6.0496    1.0000 </r>
       <r>    6.1112    1.0000 </r>
       <r>    8.0165    0.0633 </r>
       <r>   11.5727    0.0000 </r>
       <r>   15.9883    0.0000 </r>
       <r>   15.8255    0.0000 </r>
       <r>   19.5476    0.0000 </r>
      </set>
      <set comment="kpoint 4">
       <r>   -0.6016    1.0000 </r>
       <r>    0.6019    1.0000 </r>
       <r>    0.9831    1.0000 </r>
       <r>    1.5473    1.0000 </r>
       <r>    1.8328    1.0000 </r>
       <r>    2.1806    1.0000 </r>
       <r>    2.7779    1.0000 </r>
       <r>    2.9776    1.0000 </r>
       <r>    2.9982    1.0000 </r>
       <r>    3.0326    1.0000 </r>
       <r>    3.1335    1.0000 </r>
       <r>    3.2308    1.0000 </r>
       <r>    3.2504    1.0000 </r>
       <r>    3.2812    1.0000 </r>
       <r>    3.4009    1.0000 </r>
       <r>    3.4762    1.0000 </r>
       <r>    3.7101    1.0000 </r>
       <r>    3.9028    1.0000 </r>
       <r>    3.9379    1.0000 </r>
       <r>    4.0586    1.0000 </r>
       <r>    4.2295    1.0000 </r>
       <r>    4.2940    1.0000 </r>
       <r>    4.5889    1.0000 </r>
       <r>    4.7335    1.0000 </r>
       <r>    4.7859    1.0000 </r>
       <r>    5.1782    1.0000 </r>
       <r>    5.4830    1.0000 </r>
       <r>    5.5245    1.0000 </r>
       <r>    5.6105    1.0000 </r>
       <r>    5.6407    1.0000 </r>
       <r>    5.7604    1.0000 </r>
       <r>    5.8944    1.0000 </r>
       <r>    5.9674    1.0000 </r>
       <r>    6.0505    1.0000 </r>
       <r>    6.2859    1.0000 </r>
       <r>    8.4735   -0.0046 </r>
       <r>   11.6136    0.0000 </r>
       <r>   16.1081    0.0000 </r>
       <r>   15.5287    0.0000 </r>
       <r>   19.4651    0.0000 </r>
      </set>
      <set comment="kpoint 5">
       <r>   -0.3442    1.0000 </r>
       <r>    0.8223    1.0000 </r>
       <r>    1.1789    1.0000 </r>
       <r>    1.7121    1.0000 </r>
       <r>    1.9379    1.0000 </r>
       <r>    2.2873    1.0000 </r>
       <r>    2.7494    1.0000 </r>
       <r>    2.9073    1.0000 </r>
       <r>    2.9427    1.0000 </r>
       <r>    3.0087    1.0000 </r>
       <r>    3.0700    1.0000 </r>
       <r>    3.1617    1.0000 </r>
       <r>    3.3505    1.0000 </r>
       <r>    3.3614    1.0000 </r>
       <r>    3.3970    1.0000 </r>
       <r>    3.5833    1.0000 </r>
       <r>    3.6118    1.0000 </r>
       <r>    3.8270    1.0000 </r>
       <r>    3.8756    1.0000 </r>
       <r>    4.0495    1.0000 </r>
       <r>    4.1491    1.0000 </r>
       <r>    4.2956    1.0000 </r>
       <r>    4.5987    1.0000 </r>
       <r>    4.7128    1.0000 </r>
       <r>    4.8545    1.0000 </r>
       <r>    5.2356    1.0000 </r>
       <r>    5.4350    1.0000 </r>
       <r>    5.5026    1.0000 </r>
       <r>    5.6574    1.0000 </r>
       <r>    5.6820    1.0000 </r>
       <r>    5.7277    1.0000 </r>
       <r>    5.9722    1.0000 </r>
       <r>    6.0528    1.0000 </r>
       <r>    6.1312    1.0000 </r>
       <r>    6.5225    1.0000 </r>
       <r>    9.0031    0.0000 </r>
       <r>   11.6770    0.0000 </r>
       <r>   16.2584    0.0000 </r>
       <r>   15.0062    0.0000 </r>
       <r>   17.8419    0.0000 </r>
      </set>
      <set comment="kpoint 6">
       <r>   -0.0331    1.0000 </r>
       <r>    1.0763    1.0000 </r>
       <r>    1.3959    1.0000 </r>
       <r>    1.8709    1.0000 </r>
       <r>    2.0411    1.0000 </r>
       <r>    2.3871    1.0000 </r>
       <r>    2.7180    1.0000 </r>
       <r>    2.8211    1.0000 </r>
       <r>    2.8808    1.0000 </r>
       <r>    2.9256    1.0000 </r>
       <r>    3.0430    1.0000 </r>
       <r>    3.0691    1.0000 </r>
       <r>    3.4660    1.0000 </r>
       <r>    3.4681    1.0000 </r>
       <r>    3.5084    1.0000 </r>
       <r>    3.5352    1.0000 </r>
       <r>    3.7215    1.0000 </r>
       <r>    3.7329    1.0000 </r>
       <r>    3.8610    1.0000 </r>
       <r>    4.0838    1.0000 </r>
       <r>    4.0939    1.0000 </r>
       <r>    4.2939    1.0000 </r>
       <r>    4.6037    1.0000 </r>
       <r>    4.6919    1.0000 </r>
       <r>    4.9413    1.0000 </r>
       <r>    5.2734    1.0000 </r>
       <r>    5.4079    1.0000 </r>
       <r>    5.4845    1.0000 </r>
       <r>    5.7147    1.0000 </r>
       <r>    5.7313    1.0000 </r>
       <r>    5.7342    1.0000 </r>
       <r>    5.9746    1.0000 </r>
       <r>    6.0570    1.0000 </r>
       <r>    6.3821    1.0000 </r>
       <r>    6.8100    1.0000 </r>
       <r>    9.5812    0.0000 </r>
       <r>   11.7689    0.0000 </r>
       <r>   16.3838    0.0000 </r>
       <r>   14.2416    0.0000 </r>
       <r>   16.1906    0.0000 </r>
      </set>
      <set comment="kpoint 7">
       <r>    0.3104    1.0000 </r>
       <r>    1.3305    1.0000 </r>
       <r>    1.5962    1.0000 </r>
       <r>    1.9683    1.0000 </r>
       <r>    2.1042    1.0000 </r>
       <r>    2.4508    1.0000 </r>
       <r>    2.6647    1.0000 </r>
       <r>    2.6901    1.0000 </r>
       <r>    2.8233    1.0000 </r>
       <r>    2.8678    1.0000 </r>
       <r>    3.1239    1.0000 </r>
       <r>    3.1442    1.0000 </r>
       <r>    3.4121    1.0000 </r>
       <r>    3.5461    1.0000 </r>
       <r>    3.6507    1.0000 </r>
       <r>    3.6589    1.0000 </r>
       <r>    3.6840    1.0000 </r>
       <r>    3.8026    1.0000 </r>
       <r>    3.9011    1.0000 </r>
       <r>    4.0599    1.0000 </r>
       <r>    4.2312    1.0000 </r>
       <r>    4.2968    1.0000 </r>
       <r>    4.6184    1.0000 </r>
       <r>    4.6775    1.0000 </r>
       <r>    5.0249    1.0000 </r>
       <r>    5.2742    1.0000 </r>
       <r>    5.4228    1.0000 </r>
       <r>    5.4866    1.0000 </r>
       <r>    5.7676    1.0000 </r>
       <r>    5.7798    1.0000 </r>
       <r>    5.7956    1.0000 </r>
       <r>    5.9740    1.0000 </r>
       <r>    6.0631    1.0000 </r>
       <r>    6.6418    1.0000 </r>
       <r>    7.1393    1.0029 </r>
       <r>   10.1920    0.0000 </r>
       <r>   11.8962    0.0000 </r>
       <r>   16.3375    0.0000 </r>
       <r>   13.9921    0.0000 </r>
       <r>   14.4297    0.0000 </r>
      </set>
      <set comment="kpoint 8">
       <r>    0.6508    1.0000 </r>
       <r>    1.5386    1.0000 </r>
       <r>    1.7360    1.0000 </r>
       <r>    1.9779    1.0000 </r>
       <r>    2.1058    1.0000 </r>
       <r>    2.4009    1.0000 </r>
       <r>    2.5320    1.0000 </r>
       <r>    2.6126    1.0000 </r>
       <r>    2.8701    1.0000 </r>
       <r>    2.9676    1.0000 </r>
       <r>    3.1625    1.0000 </r>
       <r>    3.3340    1.0000 </r>
       <r>    3.5191    1.0000 </r>
       <r>    3.5607    1.0000 </r>
       <r>    3.6570    1.0000 </r>
       <r>    3.6947    1.0000 </r>
       <r>    3.8595    1.0000 </r>
       <r>    3.9300    1.0000 </r>
       <r>    4.0126    1.0000 </r>
       <r>    4.1040    1.0000 </r>
       <r>    4.2878    1.0000 </r>
       <r>    4.4378    1.0000 </r>
       <r>    4.6600    1.0000 </r>
       <r>    4.6943    1.0000 </r>
       <r>    5.0806    1.0000 </r>
       <r>    5.2592    1.0000 </r>
       <r>    5.4654    1.0000 </r>
       <r>    5.5340    1.0000 </r>
       <r>    5.8299    1.0000 </r>
       <r>    5.8493    1.0000 </r>
       <r>    5.8635    1.0000 </r>
       <r>    5.9709    1.0000 </r>
       <r>    6.0706    1.0000 </r>
       <r>    6.9169    1.0001 </r>
       <r>    7.5074    1.0301 </r>
       <r>   10.8203    0.0000 </r>
       <r>   12.0654    0.0000 </r>
       <r>   16.1357    0.0000 </r>
       <r>   15.7577    0.0000 </r>
       <r>   14.6663    0.0000 </r>
      </set>
      <set comment="kpoint 9">
       <r>    0.9329    1.0000 </r>
       <r>    1.6642    1.0000 </r>
       <r>    1.7935    1.0000 </r>
       <r>    1.9327    1.0000 </r>
       <r>    2.0686    1.0000 </r>
       <r>    2.2442    1.0000 </r>
       <r>    2.5127    1.0000 </r>
       <r>    2.5304    1.0000 </r>
       <r>    2.8923    1.0000 </r>
       <r>    3.1092    1.0000 </r>
       <r>    3.2467    1.0000 </r>
       <r>    3.5327    1.0000 </r>
       <r>    3.5701    1.0000 </r>
       <r>    3.6734    1.0000 </r>
       <r>    3.7177    1.0000 </r>
       <r>    3.8727    1.0000 </r>
       <r>    4.0083    1.0000 </r>
       <r>    4.1048    1.0000 </r>
       <r>    4.1686    1.0000 </r>
       <r>    4.2483    1.0000 </r>
       <r>    4.3243    1.0000 </r>
       <r>    4.5434    1.0000 </r>
       <r>    4.7469    1.0000 </r>
       <r>    4.8373    1.0000 </r>
       <r>    5.0992    1.0000 </r>
       <r>    5.2550    1.0000 </r>
       <r>    5.5288    1.0000 </r>
       <r>    5.6387    1.0000 </r>
       <r>    5.9127    1.0000 </r>
       <r>    5.9189    1.0000 </r>
       <r>    5.9288    1.0000 </r>
       <r>    5.9721    1.0000 </r>
       <r>    6.0792    1.0000 </r>
       <r>    7.2186    1.0075 </r>
       <r>    7.9166    0.2542 </r>
       <r>   11.4407    0.0000 </r>
       <r>   12.2767    0.0000 </r>
       <r>   15.2000    0.0000 </r>
       <r>   15.7722    0.0000 </r>
       <r>   15.6083    0.0000 </r>
      </set>
      <set comment="kpoint 10">
       <r>    1.1028    1.0000 </r>
       <r>    1.7008    1.0000 </r>
       <r>    1.7875    1.0000 </r>
       <r>    1.8703    1.0000 </r>
       <r>    2.0043    1.0000 </r>
       <r>    2.1051    1.0000 </r>
       <r>    2.4487    1.0000 </r>
       <r>    2.6019    1.0000 </r>
       <r>    2.8404    1.0000 </r>
       <r>    3.2134    1.0000 </r>
       <r>    3.3859    1.0000 </r>
       <r>    3.4915    1.0000 </r>
       <r>    3.6405    1.0000 </r>
       <r>    3.6916    1.0000 </r>
       <r>    4.0805    1.0000 </r>
       <r>    4.0889    1.0000 </r>
       <r>    4.2467    1.0000 </r>
       <r>    4.2803    1.0000 </r>
       <r>    4.3414    1.0000 </r>
       <r>    4.4242    1.0000 </r>
       <r>    4.5060    1.0000 </r>
       <r>    4.5669    1.0000 </r>
       <r>    4.8856    1.0000 </r>
       <r>    5.0843    1.0000 </r>
       <r>    5.1073    1.0000 </r>
       <r>    5.2860    1.0000 </r>
       <r>    5.6342    1.0000 </r>
       <r>    5.7886    1.0000 </r>
       <r>    5.9438    1.0000 </r>
       <r>    5.9865    1.0000 </r>
       <r>    6.0184    1.0000 </r>
       <r>    6.0200    1.0000 </r>
       <r>    6.0900    1.0000 </r>
       <r>    7.5600    1.0083 </r>
       <r>    8.3703   -0.0137 </r>
       <r>   11.9772    0.0000 </r>
       <r>   12.5167    0.0000 </r>
       <r>   13.9987    0.0000 </r>
       <r>   14.7752    0.0000 </r>
       <r>   15.7180    0.0000 </r>
      </set>
      <set comment="kpoint 11">
       <r>    1.1612    1.0000 </r>
       <r>    1.6713    1.0000 </r>
       <r>    1.7482    1.0000 </r>
       <r>    1.8128    1.0000 </r>
       <r>    1.9039    1.0000 </r>
       <r>    2.0172    1.0000 </r>
       <r>    2.3907    1.0000 </r>
       <r>    2.7469    1.0000 </r>
       <r>    2.8003    1.0000 </r>
       <r>    3.2721    1.0000 </r>
       <r>    3.4499    1.0000 </r>
       <r>    3.4839    1.0000 </r>
       <r>    3.6072    1.0000 </r>
       <r>    3.8051    1.0000 </r>
       <r>    4.0948    1.0000 </r>
       <r>    4.4105    1.0000 </r>
       <r>    4.4715    1.0000 </r>
       <r>    4.5120    1.0000 </r>
       <r>    4.5646    1.0000 </r>
       <r>    4.5901    1.0000 </r>
       <r>    4.6089    1.0000 </r>
       <r>    4.8689    1.0000 </r>
       <r>    5.0035    1.0000 </r>
       <r>    5.2121    1.0000 </r>
       <r>    5.3397    1.0000 </r>
       <r>    5.3817    1.0000 </r>
       <r>    5.8296    1.0000 </r>
       <r>    5.9359    1.0000 </r>
       <r>    5.9855    1.0000 </r>
       <r>    6.0381    1.0000 </r>
       <r>    6.0822    1.0000 </r>
       <r>    6.1101    1.0000 </r>
       <r>    6.1886    1.0000 </r>
       <r>    7.9512    0.1761 </r>
       <r>    8.8646    0.0000 </r>
       <r>   12.0880    0.0000 </r>
       <r>   12.7042    0.0000 </r>
       <r>   13.0276    0.0000 </r>
       <r>   13.9497    0.0000 </r>
       <r>   14.8817    0.0000 </r>
      </set>
      <set comment="kpoint 12">
       <r>    1.1569    1.0000 </r>
       <r>    1.6211    1.0000 </r>
       <r>    1.6932    1.0000 </r>
       <r>    1.7639    1.0000 </r>
       <r>    1.8050    1.0000 </r>
       <r>    1.9543    1.0000 </r>
       <r>    2.3489    1.0000 </r>
       <r>    2.7092    1.0000 </r>
       <r>    2.9768    1.0000 </r>
       <r>    3.3025    1.0000 </r>
       <r>    3.4138    1.0000 </r>
       <r>    3.5322    1.0000 </r>
       <r>    3.5779    1.0000 </r>
       <r>    3.9074    1.0000 </r>
       <r>    4.0899    1.0000 </r>
       <r>    4.4561    1.0000 </r>
       <r>    4.6640    1.0000 </r>
       <r>    4.7010    1.0000 </r>
       <r>    4.7108    1.0000 </r>
       <r>    4.7382    1.0000 </r>
       <r>    4.7562    1.0000 </r>
       <r>    5.0228    1.0000 </r>
       <r>    5.2561    1.0000 </r>
       <r>    5.4745    1.0000 </r>
       <r>    5.5674    1.0000 </r>
       <r>    5.5699    1.0000 </r>
       <r>    5.9257    1.0000 </r>
       <r>    6.0635    1.0000 </r>
       <r>    6.1062    1.0000 </r>
       <r>    6.1366    1.0000 </r>
       <r>    6.1493    1.0000 </r>
       <r>    6.3001    1.0000 </r>
       <r>    6.5467    1.0000 </r>
       <r>    8.3857   -0.0119 </r>
       <r>    9.3564    0.0000 </r>
       <r>   11.5333    0.0000 </r>
       <r>   11.7977    0.0000 </r>
       <r>   12.9935    0.0000 </r>
       <r>   13.4772    0.0000 </r>
       <r>   14.7947    0.0000 </r>
      </set>
      <set comment="kpoint 13">
       <r>    1.1324    1.0000 </r>
       <r>    1.5758    1.0000 </r>
       <r>    1.6443    1.0000 </r>
       <r>    1.7209    1.0000 </r>
       <r>    1.7323    1.0000 </r>
       <r>    1.9053    1.0000 </r>
       <r>    2.3198    1.0000 </r>
       <r>    2.6660    1.0000 </r>
       <r>    3.1487    1.0000 </r>
       <r>    3.3185    1.0000 </r>
       <r>    3.3862    1.0000 </r>
       <r>    3.5436    1.0000 </r>
       <r>    3.5553    1.0000 </r>
       <r>    3.9887    1.0000 </r>
       <r>    4.0814    1.0000 </r>
       <r>    4.4630    1.0000 </r>
       <r>    4.7820    1.0000 </r>
       <r>    4.7920    1.0000 </r>
       <r>    4.8084    1.0000 </r>
       <r>    4.8229    1.0000 </r>
       <r>    4.8665    1.0000 </r>
       <r>    5.0793    1.0000 </r>
       <r>    5.4106    1.0000 </r>
       <r>    5.7081    1.0000 </r>
       <r>    5.7432    1.0000 </r>
       <r>    5.8097    1.0000 </r>
       <r>    5.9182    1.0000 </r>
       <r>    6.0726    1.0000 </r>
       <r>    6.1792    1.0000 </r>
       <r>    6.1914    1.0000 </r>
       <r>    6.5020    1.0000 </r>
       <r>    6.7843    1.0000 </r>
       <r>    7.1763    1.0046 </r>
       <r>    8.8231    0.0000 </r>
       <r>    9.5844    0.0000 </r>
       <r>   10.6989    0.0000 </r>
       <r>   11.1747    0.0000 </r>
       <r>   12.0706    0.0000 </r>
       <r>   13.9574    0.0000 </r>
       <r>   14.2251    0.0000 </r>
      </set>
      <set comment="kpoint 14">
       <r>    1.1108    1.0000 </r>
       <r>    1.5455    1.0000 </r>
       <r>    1.6122    1.0000 </r>
       <r>    1.6822    1.0000 </r>
       <r>    1.6981    1.0000 </r>
       <r>    1.8737    1.0000 </r>
       <r>    2.3022    1.0000 </r>
       <r>    2.6390    1.0000 </r>
       <r>    3.2711    1.0000 </r>
       <r>    3.3265    1.0000 </r>
       <r>    3.3690    1.0000 </r>
       <r>    3.5323    1.0000 </r>
       <r>    3.5412    1.0000 </r>
       <r>    4.0412    1.0000 </r>
       <r>    4.0748    1.0000 </r>
       <r>    4.4624    1.0000 </r>
       <r>    4.8058    1.0000 </r>
       <r>    4.8559    1.0000 </r>
       <r>    4.8791    1.0000 </r>
       <r>    4.8877    1.0000 </r>
       <r>    4.8998    1.0000 </r>
       <r>    5.1411    1.0000 </r>
       <r>    5.4651    1.0000 </r>
       <r>    5.8202    1.0000 </r>
       <r>    5.8432    1.0000 </r>
       <r>    5.9229    1.0000 </r>
       <r>    5.9391    1.0000 </r>
       <r>    6.0762    1.0000 </r>
       <r>    6.2080    1.0000 </r>
       <r>    6.2204    1.0000 </r>
       <r>    6.9618    1.0002 </r>
       <r>    7.4410    1.0350 </r>
       <r>    7.9470    0.1851 </r>
       <r>    9.0704    0.0000 </r>
       <r>    9.1868    0.0000 </r>
       <r>    9.8141    0.0000 </r>
       <r>   11.2620    0.0000 </r>
       <r>   11.5002    0.0000 </r>
       <r>   13.1420    0.0000 </r>
       <r>   14.4212    0.0000 </r>
      </set>
      <set comment="kpoint 15">
       <r>    1.1026    1.0000 </r>
       <r>    1.5350    1.0000 </r>
       <r>    1.6011    1.0000 </r>
       <r>    1.6674    1.0000 </r>
       <r>    1.6881    1.0000 </r>
       <r>    1.8628    1.0000 </r>
       <r>    2.2962    1.0000 </r>
       <r>    2.6298    1.0000 </r>
       <r>    3.3180    1.0000 </r>
       <r>    3.3303    1.0000 </r>
       <r>    3.3631    1.0000 </r>
       <r>    3.5210    1.0000 </r>
       <r>    3.5364    1.0000 </r>
       <r>    4.0594    1.0000 </r>
       <r>    4.0724    1.0000 </r>
       <r>    4.4617    1.0000 </r>
       <r>    4.8083    1.0000 </r>
       <r>    4.8811    1.0000 </r>
       <r>    4.8898    1.0000 </r>
       <r>    4.9037    1.0000 </r>
       <r>    4.9269    1.0000 </r>
       <r>    5.1641    1.0000 </r>
       <r>    5.4806    1.0000 </r>
       <r>    5.8508    1.0000 </r>
       <r>    5.8657    1.0000 </r>
       <r>    5.9355    1.0000 </r>
       <r>    5.9771    1.0000 </r>
       <r>    6.0774    1.0000 </r>
       <r>    6.2182    1.0000 </r>
       <r>    6.2308    1.0000 </r>
[...]
       <r>    5.4710    1.0000 </r>
       <r>    5.5434    1.0000 </r>
       <r>    5.5934    1.0000 </r>
       <r>    5.6406    1.0000 </r>
       <r>    5.6734    1.0000 </r>
       <r>    5.7534    1.0000 </r>
       <r>    5.8704    1.0000 </r>
       <r>    5.9847    1.0000 </r>
       <r>    6.0590    1.0000 </r>
       <r>    9.7866    0.0000 </r>
       <r>   10.1244    0.0000 </r>
       <r>   10.1662    0.0000 </r>
       <r>   10.3774    0.0000 </r>
       <r>   11.4314    0.0000 </r>
       <r>   11.7190    0.0000 </r>
       <r>   11.8615    0.0000 </r>
       <r>   12.2226    0.0000 </r>
       <r>   12.3113    0.0000 </r>
       <r>   12.5746    0.0000 </r>
      </set>
      <set comment="kpoint 369">
       <r>    2.1434    1.0000 </r>
       <r>    2.2053    1.0000 </r>
       <r>    2.3540    1.0000 </r>
       <r>    2.4214    1.0000 </r>
       <r>    2.4898    1.0000 </r>
       <r>    2.5357    1.0000 </r>
       <r>    2.6748    1.0000 </r>
       <r>    2.7126    1.0000 </r>
       <r>    2.8532    1.0000 </r>
       <r>    2.8617    1.0000 </r>
       <r>    3.0234    1.0000 </r>
       <r>    3.0481    1.0000 </r>
       <r>    3.1886    1.0000 </r>
       <r>    3.2119    1.0000 </r>
       <r>    3.7797    1.0000 </r>
       <r>    3.8573    1.0000 </r>
       <r>    3.9281    1.0000 </r>
       <r>    4.0202    1.0000 </r>
       <r>    4.0496    1.0000 </r>
       <r>    4.1854    1.0000 </r>
       <r>    5.4203    1.0000 </r>
       <r>    5.4607    1.0000 </r>
       <r>    5.5366    1.0000 </r>
       <r>    5.5926    1.0000 </r>
       <r>    5.6518    1.0000 </r>
       <r>    5.6655    1.0000 </r>
       <r>    5.7553    1.0000 </r>
       <r>    5.8664    1.0000 </r>
       <r>    5.9908    1.0000 </r>
       <r>    6.0740    1.0000 </r>
       <r>    9.2376    0.0000 </r>
       <r>    9.4079    0.0000 </r>
       <r>   10.6227    0.0000 </r>
       <r>   10.8279    0.0000 </r>
       <r>   11.2868    0.0000 </r>
       <r>   11.3814    0.0000 </r>
       <r>   11.9416    0.0000 </r>
       <r>   12.0836    0.0000 </r>
       <r>   12.6257    0.0000 </r>
       <r>   13.3983    0.0000 </r>
      </set>
      <set comment="kpoint 370">
       <r>    2.2255    1.0000 </r>
       <r>    2.2846    1.0000 </r>
       <r>    2.4132    1.0000 </r>
       <r>    2.4719    1.0000 </r>
       <r>    2.4822    1.0000 </r>
       <r>    2.5177    1.0000 </r>
       <r>    2.6985    1.0000 </r>
       <r>    2.7303    1.0000 </r>
       <r>    2.9258    1.0000 </r>
       <r>    2.9280    1.0000 </r>
       <r>    2.9817    1.0000 </r>
       <r>    2.9892    1.0000 </r>
       <r>    3.0794    1.0000 </r>
       <r>    3.1033    1.0000 </r>
       <r>    3.8176    1.0000 </r>
       <r>    3.8718    1.0000 </r>
       <r>    3.9441    1.0000 </r>
       <r>    3.9999    1.0000 </r>
       <r>    4.0165    1.0000 </r>
       <r>    4.0931    1.0000 </r>
       <r>    5.4802    1.0000 </r>
       <r>    5.5235    1.0000 </r>
       <r>    5.5293    1.0000 </r>
       <r>    5.5807    1.0000 </r>
       <r>    5.6250    1.0000 </r>
       <r>    5.6359    1.0000 </r>
       <r>    5.7438    1.0000 </r>
       <r>    5.8595    1.0000 </r>
       <r>    5.9800    1.0000 </r>
       <r>    6.0548    1.0000 </r>
       <r>    9.8741    0.0000 </r>
       <r>   10.1703    0.0000 </r>
       <r>   10.7407    0.0000 </r>
       <r>   10.9613    0.0000 </r>
       <r>   10.9972    0.0000 </r>
       <r>   11.1871    0.0000 </r>
       <r>   11.8130    0.0000 </r>
       <r>   12.2925    0.0000 </r>
       <r>   12.6951    0.0000 </r>
       <r>   12.9620    0.0000 </r>
      </set>
     </set>
    </set>
   </array>
  </eigenvalues>
  <separator name="orbital magnetization" >
   <v name="MAGDIPOLOUT">      0.00000000      0.00000000      0.00000000</v>
  </separator>
  <dos>
   <i name="efermi">      7.82483158 </i>
   <total>
    <array>
     <dimension dim="1">gridpoints</dimension>
     <dimension dim="2">spin</dimension>
     <field>energy</field>
     <field>total</field>
     <field>integrated</field>
     <set>
      <set comment="spin 1">
       <r>    -3.9492     0.0000     0.0000 </r>
       <r>    -3.8606     0.0000     0.0000 </r>
       <r>    -3.7719     0.0000     0.0000 </r>
       <r>    -3.6833     0.0000     0.0000 </r>
       <r>    -3.5946     0.0000     0.0000 </r>
       <r>    -3.5060     0.0000     0.0000 </r>
       <r>    -3.4173     0.0000     0.0000 </r>
       <r>    -3.3287     0.0000     0.0000 </r>
       <r>    -3.2400     0.0000     0.0000 </r>
       <r>    -3.1514     0.0000     0.0000 </r>
       <r>    -3.0627     0.0000     0.0000 </r>
       <r>    -2.9741     0.0000     0.0000 </r>
       <r>    -2.8854     0.0000     0.0000 </r>
       <r>    -2.7968     0.0000     0.0000 </r>
       <r>    -2.7081     0.0000     0.0000 </r>
       <r>    -2.6195     0.0000     0.0000 </r>
       <r>    -2.5308     0.0000     0.0000 </r>
       <r>    -2.4422     0.0000     0.0000 </r>
       <r>    -2.3535     0.0000     0.0000 </r>
       <r>    -2.2649     0.0000     0.0000 </r>
       <r>    -2.1762     0.0000     0.0000 </r>
       <r>    -2.0876     0.0000     0.0000 </r>
       <r>    -1.9989     0.0000     0.0000 </r>
       <r>    -1.9103     0.0000     0.0000 </r>
       <r>    -1.8216     0.0000     0.0000 </r>
       <r>    -1.7330    -0.0001     0.0000 </r>
       <r>    -1.6443    -0.0003     0.0000 </r>
       <r>    -1.5557    -0.0010    -0.0001 </r>
       <r>    -1.4670    -0.0026    -0.0004 </r>
       <r>    -1.3784    -0.0054    -0.0008 </r>
       <r>    -1.2897    -0.0080    -0.0015 </r>
       <r>    -1.2011    -0.0060    -0.0021 </r>
       <r>    -1.1125     0.0083    -0.0013 </r>
       <r>    -1.0238     0.0414     0.0023 </r>
       <r>    -0.9352     0.0924     0.0105 </r>
       <r>    -0.8465     0.1508     0.0239 </r>
       <r>    -0.7579     0.2016     0.0418 </r>
       <r>    -0.6692     0.2348     0.0626 </r>
       <r>    -0.5806     0.2503     0.0848 </r>
       <r>    -0.4919     0.2547     0.1073 </r>
       <r>    -0.4033     0.2547     0.1299 </r>
       <r>    -0.3146     0.2542     0.1525 </r>
       <r>    -0.2260     0.2541     0.1750 </r>
       <r>    -0.1373     0.2565     0.1977 </r>
       <r>    -0.0487     0.2669     0.2214 </r>
       <r>     0.0400     0.2927     0.2473 </r>
       <r>     0.1286     0.3383     0.2773 </r>
       <r>     0.2173     0.4009     0.3129 </r>
       <r>     0.3059     0.4700     0.3545 </r>
       <r>     0.3946     0.5305     0.4016 </r>
       <r>     0.4832     0.5724     0.4523 </r>
       <r>     0.5719     0.6007     0.5056 </r>
       <r>     0.6605     0.6336     0.5617 </r>
       <r>     0.7492     0.6974     0.6236 </r>
       <r>     0.8378     0.8279     0.6969 </r>
       <r>     0.9265     1.0629     0.7912 </r>
       <r>     1.0151     1.4034     0.9156 </r>
       <r>     1.1038     1.7730     1.0728 </r>
       <r>     1.1924     2.0533     1.2548 </r>
       <r>     1.2811     2.2043     1.4502 </r>
       <r>     1.3697     2.3753     1.6608 </r>
       <r>     1.4584     2.8785     1.9159 </r>
       <r>     1.5470     4.0103     2.2714 </r>
       <r>     1.6357     5.8414     2.7893 </r>
       <r>     1.7243     8.1410     3.5110 </r>
       <r>     1.8130    10.4782     4.4398 </r>
       <r>     1.9016    12.3973     5.5389 </r>
       <r>     1.9903    13.5569     6.7407 </r>
       <r>     2.0789    13.8153     7.9654 </r>
       <r>     2.1676    13.2755     9.1422 </r>
       <r>     2.2562    12.2562    10.2287 </r>
       <r>     2.3449    11.1760    11.2195 </r>
       <r>     2.4335    10.4106    12.1424 </r>
       <r>     2.5222    10.1864    13.0454 </r>
       <r>     2.6108    10.5186    13.9778 </r>
       <r>     2.6995    11.2210    14.9726 </r>
       <r>     2.7881    12.0193    16.0381 </r>
       <r>     2.8768    12.7125    17.1650 </r>
       <r>     2.9654    13.2621    18.3407 </r>
       <r>     3.0541    13.7614    19.5606 </r>
       <r>     3.1427    14.3296    20.8309 </r>
       <r>     3.2313    14.9880    22.1596 </r>
       <r>     3.3200    15.5830    23.5410 </r>
       <r>     3.4086    15.8363    24.9449 </r>
       <r>     3.4973    15.5229    26.3210 </r>
       <r>     3.5859    14.6611    27.6207 </r>
       <r>     3.6746    13.5787    28.8244 </r>
       <r>     3.7632    12.7821    29.9575 </r>
       <r>     3.8519    12.6674    31.0805 </r>
       <r>     3.9405    13.2489    32.2550 </r>
       <r>     4.0292    14.1266    33.5073 </r>
       <r>     4.1178    14.7334    34.8134 </r>
       <r>     4.2065    14.6517    36.1122 </r>
       <r>     4.2951    13.7835    37.3341 </r>
       <r>     4.3838    12.3449    38.4285 </r>
       <r>     4.4724    10.7428    39.3808 </r>
       <r>     4.5611     9.3683    40.2113 </r>
       <r>     4.6497     8.4032    40.9563 </r>
       <r>     4.7384     7.8070    41.6484 </r>
       <r>     4.8270     7.5032    42.3135 </r>
       <r>     4.9157     7.5356    42.9815 </r>
       <r>     5.0043     8.0070    43.6913 </r>
       <r>     5.0930     8.9070    44.4809 </r>
       <r>     5.1816    10.0746    45.3740 </r>
       <r>     5.2703    11.3406    46.3794 </r>
       <r>     5.3589    12.6444    47.5003 </r>
       <r>     5.4476    13.9953    48.7409 </r>
       <r>     5.5362    15.4061    50.1067 </r>
       <r>     5.6249    16.9312    51.6076 </r>
       <r>     5.7135    18.6560    53.2615 </r>
       <r>     5.8022    20.4534    55.0746 </r>
       <r>     5.8908    21.7118    56.9994 </r>
       <r>     5.9795    21.4828    58.9038 </r>
       <r>     6.0681    19.1230    60.5990 </r>
       <r>     6.1568    14.9073    61.9205 </r>
       <r>     6.2454    10.0051    62.8075 </r>
       <r>     6.3341     5.7874    63.3205 </r>
       <r>     6.4227     3.0544    63.5913 </r>
       <r>     6.5114     1.7882    63.7498 </r>
       <r>     6.6000     1.4742    63.8805 </r>
       <r>     6.6887     1.5667    64.0194 </r>
       <r>     6.7773     1.7235    64.1722 </r>
       <r>     6.8660     1.7992    64.3317 </r>
       <r>     6.9546     1.7750    64.4890 </r>
       <r>     7.0433     1.7106    64.6407 </r>
       <r>     7.1319     1.6894    64.7904 </r>
       <r>     7.2206     1.7460    64.9452 </r>
       <r>     7.3092     1.8359    65.1080 </r>
       <r>     7.3979     1.8770    65.2743 </r>
       <r>     7.4865     1.8247    65.4361 </r>
       <r>     7.5752     1.7124    65.5879 </r>
       <r>     7.6638     1.6256    65.7320 </r>
       <r>     7.7524     1.6300    65.8765 </r>
       <r>     7.8411     1.7157    66.0286 </r>
       <r>     7.9297     1.8099    66.1891 </r>
       <r>     8.0184     1.8425    66.3524 </r>
       <r>     8.1070     1.7944    66.5115 </r>
       <r>     8.1957     1.6942    66.6616 </r>
       <r>     8.2843     1.5940    66.8030 </r>
       <r>     8.3730     1.5481    66.9402 </r>
       <r>     8.4616     1.5866    67.0808 </r>
       <r>     8.5503     1.6861    67.2303 </r>
       <r>     8.6389     1.7739    67.3876 </r>
       <r>     8.7276     1.7793    67.5453 </r>
       <r>     8.8162     1.6889    67.6950 </r>
       <r>     8.9049     1.5579    67.8331 </r>
       <r>     8.9935     1.4666    67.9631 </r>
       <r>     9.0822     1.4619    68.0927 </r>
       <r>     9.1708     1.5299    68.2284 </r>
       <r>     9.2595     1.6194    68.3719 </r>
       <r>     9.3481     1.6841    68.5212 </r>
       <r>     9.4368     1.7041    68.6723 </r>
       <r>     9.5254     1.6796    68.8212 </r>
       <r>     9.6141     1.6240    68.9651 </r>
       <r>     9.7027     1.5611    69.1035 </r>
       <r>     9.7914     1.5141    69.2377 </r>
       <r>     9.8800     1.4890    69.3697 </r>
       <r>     9.9687     1.4751    69.5005 </r>
       <r>    10.0573     1.4634    69.6302 </r>
       <r>    10.1460     1.4542    69.7591 </r>
       <r>    10.2346     1.4443    69.8872 </r>
       <r>    10.3233     1.4166    70.0128 </r>
       <r>    10.4119     1.3564    70.1330 </r>
       <r>    10.5006     1.2757    70.2461 </r>
       <r>    10.5892     1.2089    70.3533 </r>
       <r>    10.6779     1.1842    70.4582 </r>
       <r>    10.7665     1.2078    70.5653 </r>
       <r>    10.8552     1.2763    70.6784 </r>
       <r>    10.9438     1.3907    70.8017 </r>
       <r>    11.0325     1.5451    70.9387 </r>
       <r>    11.1211     1.7069    71.0900 </r>
       <r>    11.2098     1.8267    71.2520 </r>
       <r>    11.2984     1.8771    71.4184 </r>
       <r>    11.3871     1.8758    71.5846 </r>
       <r>    11.4757     1.8647    71.7499 </r>
       <r>    11.5644     1.8712    71.9158 </r>
       <r>    11.6530     1.8916    72.0835 </r>
       <r>    11.7417     1.9085    72.2527 </r>
       <r>    11.8303     1.9130    72.4223 </r>
       <r>    11.9190     1.9095    72.5916 </r>
       <r>    12.0076     1.9050    72.7604 </r>
       <r>    12.0962     1.9001    72.9289 </r>
       <r>    12.1849     1.8893    73.0964 </r>
       <r>    12.2735     1.8643    73.2616 </r>
       <r>    12.3622     1.8213    73.4231 </r>
       <r>    12.4508     1.7706    73.5801 </r>
       <r>    12.5395     1.7357    73.7339 </r>
       <r>    12.6281     1.7332    73.8876 </r>
       <r>    12.7168     1.7542    74.0431 </r>
       <r>    12.8054     1.7707    74.2000 </r>
       <r>    12.8941     1.7633    74.3564 </r>
       <r>    12.9827     1.7379    74.5104 </r>
       <r>    13.0714     1.7153    74.6625 </r>
       <r>    13.1600     1.7061    74.8137 </r>
       <r>    13.2487     1.6956    74.9640 </r>
       <r>    13.3373     1.6578    75.1110 </r>
       <r>    13.4260     1.5823    75.2513 </r>
       <r>    13.5146     1.4887    75.3832 </r>
       <r>    13.6033     1.4139    75.5086 </r>
       <r>    13.6919     1.3910    75.6319 </r>
       <r>    13.7806     1.4372    75.7593 </r>
       <r>    13.8692     1.5524    75.8969 </r>
       <r>    13.9579     1.7152    76.0490 </r>
       <r>    14.0465     1.8845    76.2160 </r>
       <r>    14.1352     2.0152    76.3947 </r>
       <r>    14.2238     2.0821    76.5792 </r>
       <r>    14.3125     2.0906    76.7646 </r>
       <r>    14.4011     2.0636    76.9475 </r>
       <r>    14.4898     2.0192    77.1265 </r>
       <r>    14.5784     1.9591    77.3002 </r>
       <r>    14.6671     1.8776    77.4666 </r>
       <r>    14.7557     1.7754    77.6240 </r>
       <r>    14.8444     1.6655    77.7717 </r>
       <r>    14.9330     1.5679    77.9107 </r>
       <r>    15.0217     1.4990    78.0435 </r>
       <r>    15.1103     1.4593    78.1729 </r>
       <r>    15.1990     1.4292    78.2996 </r>
       <r>    15.2876     1.3823    78.4221 </r>
       <r>    15.3763     1.3092    78.5382 </r>
       <r>    15.4649     1.2275    78.6470 </r>
       <r>    15.5536     1.1685    78.7506 </r>
       <r>    15.6422     1.1567    78.8532 </r>
       <r>    15.7309     1.1986    78.9594 </r>
       <r>    15.8195     1.2786    79.0728 </r>
       <r>    15.9082     1.3618    79.1935 </r>
       <r>    15.9968     1.4026    79.3178 </r>
       <r>    16.0855     1.3591    79.4383 </r>
       <r>    16.1741     1.2108    79.5456 </r>
       <r>    16.2628     0.9726    79.6318 </r>
       <r>    16.3514     0.6927    79.6933 </r>
       <r>    16.4401     0.4316    79.7315 </r>
       <r>    16.5287     0.2332    79.7522 </r>
       <r>    16.6173     0.1119    79.7621 </r>
       <r>    16.7060     0.0577    79.7672 </r>
       <r>    16.7946     0.0502    79.7717 </r>
       <r>    16.8833     0.0677    79.7777 </r>
       <r>    16.9719     0.0923    79.7859 </r>
       <r>    17.0606     0.1116    79.7957 </r>
       <r>    17.1492     0.1213    79.8065 </r>
       <r>    17.2379     0.1242    79.8175 </r>
       <r>    17.3265     0.1256    79.8286 </r>
       <r>    17.4152     0.1292    79.8401 </r>
       <r>    17.5038     0.1344    79.8520 </r>
       <r>    17.5925     0.1381    79.8643 </r>
       <r>    17.6811     0.1374    79.8764 </r>
       <r>    17.7698     0.1311    79.8881 </r>
       <r>    17.8584     0.1174    79.8985 </r>
       <r>    17.9471     0.0949    79.9069 </r>
       <r>    18.0357     0.0646    79.9126 </r>
       <r>    18.1244     0.0327    79.9155 </r>
       <r>    18.2130     0.0073    79.9162 </r>
       <r>    18.3017    -0.0056    79.9157 </r>
       <r>    18.3903    -0.0033    79.9154 </r>
       <r>    18.4790     0.0148    79.9167 </r>
       <r>    18.5676     0.0460    79.9208 </r>
       <r>    18.6563     0.0815    79.9280 </r>
       <r>    18.7449     0.1090    79.9377 </r>
       <r>    18.8336     0.1193    79.9482 </r>
       <r>    18.9222     0.1121    79.9582 </r>
       <r>    19.0109     0.0926    79.9664 </r>
       <r>    19.0995     0.0682    79.9724 </r>
       <r>    19.1882     0.0462    79.9765 </r>
       <r>    19.2768     0.0338    79.9795 </r>
       <r>    19.3655     0.0340    79.9825 </r>
       <r>    19.4541     0.0423    79.9863 </r>
       <r>    19.5428     0.0491    79.9906 </r>
       <r>    19.6314     0.0470    79.9948 </r>
       <r>    19.7201     0.0356    79.9980 </r>
       <r>    19.8087     0.0204    79.9998 </r>
       <r>    19.8974     0.0077    80.0005 </r>
       <r>    19.9860     0.0004    80.0005 </r>
       <r>    20.0747    -0.0020    80.0003 </r>
       <r>    20.1633    -0.0019    80.0002 </r>
       <r>    20.2520    -0.0011    80.0001 </r>
       <r>    20.3406    -0.0005    80.0000 </r>
       <r>    20.4293    -0.0002    80.0000 </r>
       <r>    20.5179     0.0000    80.0000 </r>
       <r>    20.6066     0.0000    80.0000 </r>
       <r>    20.6952     0.0000    80.0000 </r>
       <r>    20.7839     0.0000    80.0000 </r>
       <r>    20.8725     0.0000    80.0000 </r>
       <r>    20.9611     0.0000    80.0000 </r>
       <r>    21.0498     0.0000    80.0000 </r>
       <r>    21.1384     0.0000    80.0000 </r>
       <r>    21.2271     0.0000    80.0000 </r>
       <r>    21.3157     0.0000    80.0000 </r>
       <r>    21.4044     0.0000    80.0000 </r>
       <r>    21.4930     0.0000    80.0000 </r>
       <r>    21.5817     0.0000    80.0000 </r>
       <r>    21.6703     0.0000    80.0000 </r>
       <r>    21.7590     0.0000    80.0000 </r>
       <r>    21.8476     0.0000    80.0000 </r>
       <r>    21.9363     0.0000    80.0000 </r>
       <r>    22.0249     0.0000    80.0000 </r>
       <r>    22.1136     0.0000    80.0000 </r>
       <r>    22.2022     0.0000    80.0000 </r>
       <r>    22.2909     0.0000    80.0000 </r>
       <r>    22.3795     0.0000    80.0000 </r>
       <r>    22.4682     0.0000    80.0000 </r>
       <r>    22.5568     0.0000    80.0000 </r>
       <r>    22.6455     0.0000    80.0000 </r>
      </set>
     </set>
    </array>
   </total>
  </dos>
 </calculation>
 <structure name="finalpos" >
  <crystal>
   <varray name="basis" >
    <v>       2.02539201       0.00000000       2.02539201 </v>
    <v>       0.00000000      -2.02539201      -2.02539201 </v>
    <v>       7.83812390       7.83812390      -7.83812390 </v>
   </varray>
   <i name="volume">     96.46095660 </i>
   <varray name="rec_basis" >
    <v>       0.32915439      -0.16457719       0.16457719 </v>
    <v>       0.16457719      -0.32915439      -0.16457719 </v>
    <v>       0.04252718       0.04252718      -0.04252718 </v>
   </varray>
  </crystal>
  <varray name="positions" >
   <v>       0.66666667       0.33333333       0.33340339 </v>
   <v>       0.66666667       0.33333333       0.83320589 </v>
   <v>       0.33333333       0.66666667       0.17443116 </v>
   <v>       0.00000000       0.00000000       0.49315565 </v>
   <v>       0.33333333       0.66666667       0.67394917 </v>
   <v>       0.00000000       0.00000000       0.99185475 </v>
  </varray>
 </structure>
</modeling>
