<?xml version="1.0" encoding="ISO-8859-1"?>
<modeling>
 <generator>
  <i name="program" type="string">vasp </i>
  <i name="version" type="string">5.3.5  </i>
  <i name="subversion" type="string">31Mar14 (build Jun 20 2014 13:15:13) complex                          parallel </i>
  <i name="platform" type="string">LinuxIFC </i>
  <i name="date" type="string">2025 12 12 </i>
  <i name="time" type="string">12:54:28 </i>
 </generator>
 <incar>
  <i type="string" name="PREC">accurate</i>
  <i type="int" name="IALGO">    38</i>
  <i type="logical" name="ADDGRID"> T  </i>
  <i type="int" name="ISPIN">     2</i>
  <i type="int" name="NELM">   100</i>
  <i type="int" name="NELMIN">     4</i>
  <i name="EDIFF">      0.00000100</i>
  <i name="ENCUT">    500.00000000</i>
  <i type="logical" name="LREAL"> F  </i>
  <i type="int" name="ISMEAR">     0</i>
  <i name="SIGMA">      0.05000000</i>
  <i type="logical" name="LWAVE"> F  </i>
  <i type="logical" name="LCHARG"> F  </i>
  <i type="int" name="NELM">   100</i>
  <i type="logical" name="LDAU"> T  </i>
  <v name="LDAUU">      0.00000000      4.00000000      0.00000000</v>
  <v name="LDAUJ">      0.00000000      0.00000000      0.00000000</v>
 </incar>
 <kpoints>
  <generation param="Auto">
   <i name="subdivisionlength">     20.00000000 </i>
   <v type="int" name="divisions">       4        4        1 </v>
   <v name="usershift">      0.00000000       0.00000000       0.00000000 </v>
   <v name="genvec1">      0.25000000       0.00000000       0.00000000 </v>
   <v name="genvec2">      0.00000000       0.25000000       0.00000000 </v>
   <v name="genvec3">      0.00000000       0.00000000       1.00000000 </v>
   <v name="shift">      0.00000000       0.00000000       0.00000000 </v>
  </generation>
  <varray name="kpointlist" >
   <v>       0.00000000       0.00000000       0.00000000 </v>
   <v>       0.25000000       0.00000000       0.00000000 </v>
   <v>       0.50000000       0.00000000       0.00000000 </v>
   <v>       0.25000000       0.25000000       0.00000000 </v>
   <v>       0.50000000       0.25000000       0.00000000 </v>
   <v>       0.50000000       0.50000000       0.00000000 </v>
  </varray>
  <varray name="weights" >
   <v>       0.06250000 </v>
   <v>       0.25000000 </v>
   <v>       0.12500000 </v>
   <v>       0.25000000 </v>
   <v>       0.25000000 </v>
   <v>       0.06250000 </v>
  </varray>
 </kpoints>
 <parameters>
  <separator name="general" >
   <i type="string" name="SYSTEM">unknown system</i>
   <i type="logical" name="LCOMPAT"> F  </i>
  </separator>
  <separator name="electronic" >
   <i type="string" name="PREC">accura</i>
   <i name="ENMAX">    500.00000000</i>
   <i name="ENAUG">    586.98000000</i>
   <i name="EDIFF">      0.00000100</i>
   <i type="int" name="IALGO">    38</i>
   <i type="int" name="IWAVPR">    10</i>
   <i type="int" name="NBANDS">   200</i>
   <i name="NELECT">    300.00000000</i>
   <i type="int" name="TURBO">     0</i>
   <i type="int" name="IRESTART">     0</i>
   <i type="int" name="NREBOOT">     0</i>
   <i type="int" name="NMIN">     0</i>
   <i name="EREF">      0.00000000</i>
   <separator name="electronic smearing" >
    <i type="int" name="ISMEAR">     0</i>
    <i name="SIGMA">      0.05000000</i>
    <i name="KSPACING">      0.50000000</i>
    <i type="logical" name="KGAMMA"> T  </i>
   </separator>
   <separator name="electronic projectors" >
    <i type="logical" name="LREAL"> F  </i>
    <v name="ROPT">      0.00000000      0.00000000      0.00000000</v>
    <i type="int" name="LMAXPAW">  -100</i>
    <i type="int" name="LMAXMIX">     2</i>
    <i type="logical" name="NLSPLINE"> F  </i>
   </separator>
   <separator name="electronic startup" >
    <i type="int" name="ISTART">     0</i>
    <i type="int" name="ICHARG">     2</i>
    <i type="int" name="INIWAV">     1</i>
   </separator>
   <separator name="electronic spin" >
    <i type="int" name="ISPIN">     2</i>
    <i type="logical" name="LNONCOLLINEAR"> F  </i>
    <v name="MAGMOM">      1.00000000      1.00000000      1.00000000      1.00000000      1.00000000      1.00000000      1.00000000      1.00000000      1.00000000      1.00000000      1.00000000      1.00000000      1.00000000      1.00000000      1.00000000      1.00000000      1.00000000      1.00000000      1.00000000      1.00000000
      1.00000000      1.00000000      1.00000000      1.00000000      1.00000000      1.00000000      1.00000000      1.00000000      1.00000000      1.00000000      1.00000000      1.00000000      1.00000000      1.00000000      1.00000000      1.00000000      1.00000000      1.00000000</v>
    <i name="NUPDOWN">     -1.00000000</i>
    <i type="logical" name="LSORBIT"> F  </i>
    <v name="SAXIS">      0.00000000      0.00000000      1.00000000</v>
    <i type="logical" name="LSPIRAL"> F  </i>
    <v name="QSPIRAL">      0.00000000      0.00000000      0.00000000</v>
    <i type="logical" name="LZEROZ"> F  </i>
   </separator>
   <separator name="electronic exchange-correlation" >
    <i type="logical" name="LASPH"> F  </i>
    <i type="logical" name="LMETAGGA"> F  </i>
   </separator>
   <separator name="electronic convergence" >
    <i type="int" name="NELM">   100</i>
    <i type="int" name="NELMDL">    -5</i>
    <i type="int" name="NELMIN">     4</i>
    <i name="ENINI">    500.00000000</i>
    <separator name="electronic convergence detail" >
     <i type="logical" name="LDIAG"> T  </i>
     <i type="logical" name="LSUBROT"> F  </i>
     <i name="WEIMIN">      0.00000000</i>
     <i name="EBREAK">      0.00000000</i>
     <i name="DEPER">      0.30000000</i>
     <i type="int" name="NRMM">     4</i>
     <i name="TIME">      0.40000000</i>
    </separator>
   </separator>
   <separator name="electronic mixer" >
    <i name="AMIX">      0.40000000</i>
    <i name="BMIX">      1.00000000</i>
    <i name="AMIN">      0.10000000</i>
    <i name="AMIX_MAG">      1.60000000</i>
    <i name="BMIX_MAG">      1.00000000</i>
    <separator name="electronic mixer details" >
     <i type="int" name="IMIX">     4</i>
     <i type="int" name="MAXMIX">   -45</i>
     <i name="WC">    100.00000000</i>
     <i type="int" name="INIMIX">     1</i>
     <i type="int" name="MIXPRE">     1</i>
     <i type="int" name="MREMOVE">     5</i>
    </separator>
   </separator>
   <separator name="electronic dipolcorrection" >
    <i type="logical" name="LDIPOL"> F  </i>
    <i type="logical" name="LMONO"> F  </i>
    <i type="int" name="IDIPOL">     0</i>
    <i name="EPSILON">      1.00000000</i>
    <v name="DIPOL">   -100.00000000   -100.00000000   -100.00000000</v>
    <i name="EFIELD">      0.00000000</i>
   </separator>
  </separator>
  <separator name="grids" >
   <i type="int" name="NGX">    42</i>
   <i type="int" name="NGY">    42</i>
   <i type="int" name="NGZ">   120</i>
   <i type="int" name="NGXF">    84</i>
   <i type="int" name="NGYF">    84</i>
   <i type="int" name="NGZF">   240</i>
   <i type="logical" name="ADDGRID"> T  </i>
  </separator>
  <separator name="ionic" >
   <i type="int" name="NSW">     0</i>
   <i type="int" name="IBRION">    -1</i>
   <i type="int" name="ISIF">     2</i>
   <i name="PSTRESS">      0.00000000</i>
   <i name="EDIFFG">      0.00001000</i>
   <i type="int" name="NFREE">     0</i>
   <i name="POTIM">      0.50000000</i>
   <i name="SMASS">     -3.00000000</i>
   <i name="SCALEE">      1.00000000</i>
  </separator>
  <separator name="ionic md" >
   <i name="TEBEG">      0.00010000</i>
   <i name="TEEND">      0.00010000</i>
   <i type="int" name="NBLOCK">     1</i>
   <i type="int" name="KBLOCK">     1</i>
   <i type="int" name="NPACO">   256</i>
   <i name="APACO">     16.00000000</i>
  </separator>
  <separator name="symmetry" >
   <i type="int" name="ISYM">     2</i>
   <i name="SYMPREC">      0.00001000</i>
  </separator>
  <separator name="dos" >
   <i type="logical" name="LORBIT"> F  </i>
   <v name="RWIGS">     -1.00000000     -1.00000000     -1.00000000</v>
   <i type="int" name="NEDOS">   301</i>
   <i name="EMIN">     10.00000000</i>
   <i name="EMAX">    -10.00000000</i>
   <i name="EFERMI">      0.00000000</i>
  </separator>
  <separator name="writing" >
   <i type="int" name="NWRITE">     2</i>
   <i type="logical" name="LWAVE"> F  </i>
   <i type="logical" name="LCHARG"> F  </i>
   <i type="logical" name="LPARD"> F  </i>
   <i type="logical" name="LVTOT"> F  </i>
   <i type="logical" name="LVHAR"> F  </i>
   <i type="logical" name="LELF"> F  </i>
   <i type="logical" name="LOPTICS"> F  </i>
   <v name="STM">      0.00000000      0.00000000      0.00000000      0.00000000      0.00000000      0.00000000      0.00000000</v>
  </separator>
  <separator name="performance" >
   <i type="int" name="NPAR">     4</i>
   <i type="int" name="NSIM">     4</i>
   <i type="int" name="NBLK">    -1</i>
   <i type="logical" name="LPLANE"> T  </i>
   <i type="logical" name="LSCALAPACK"> T  </i>
   <i type="logical" name="LSCAAWARE"> F  </i>
   <i type="logical" name="LSCALU"> F  </i>
   <i type="logical" name="LASYNC"> F  </i>
   <i type="logical" name="LORBITALREAL"> F  </i>
  </separator>
  <separator name="miscellaneous" >
   <i type="int" name="IDIOT">     3</i>
   <i type="logical" name="LMUSIC"> F  </i>
   <v name="POMASS">     87.62000000     63.54600000     16.00000000</v>
   <v name="DARWINR">      0.00000000      0.00000000      0.00000000</v>
   <v name="DARWINV">      1.00000000      1.00000000      1.00000000</v>
   <i type="logical" name="LCORR"> T  </i>
  </separator>
  <i type="logical" name="GGA_COMPAT"> T  </i>
  <i type="logical" name="LBERRY"> F  </i>
  <i type="int" name="ICORELEVEL">     0</i>
  <i type="logical" name="LDAU"> T  </i>
  <v type="int" name="LDAUTYPE">     2</v>
  <v type="int" name="LDAUL">     2</v>
  <v name="LDAUU">      0.00000000</v>
  <v name="LDAUJ">      0.00000000</v>
  <i type="int" name="LDAUPRINT">     0</i>
  <i type="int" name="I_CONSTRAINED_M">     0</i>
  <separator name="electronic exchange-correlation" >
   <i type="string" name="GGA">--</i>
   <i type="int" name="VOSKOWN">     0</i>
   <i type="logical" name="LHFCALC"> F  </i>
   <i type="string" name="PRECFOCK"></i>
   <i type="logical" name="LSYMGRAD"> F  </i>
   <i type="logical" name="LHFONE"> F  </i>
   <i type="logical" name="LRHFCALC"> F  </i>
   <i type="logical" name="LTHOMAS"> F  </i>
   <i type="logical" name="LMODELHF"> F  </i>
   <i name="ENCUT4O">     -1.00000000</i>
   <i type="int" name="EXXOEP">     0</i>
   <i type="int" name="FOURORBIT">     0</i>
   <i name="AEXX">      0.00000000</i>
   <i name="HFALPHA">      0.00000000</i>
   <i name="MCALPHA">      0.00000000</i>
   <i name="ALDAX">      1.00000000</i>
   <i name="AGGAX">      1.00000000</i>
   <i name="ALDAC">      1.00000000</i>
   <i name="AGGAC">      1.00000000</i>
   <i type="int" name="NKREDX">     1</i>
   <i type="int" name="NKREDY">     1</i>
   <i type="int" name="NKREDZ">     1</i>
   <i type="logical" name="SHIFTRED"> F  </i>
   <i type="logical" name="ODDONLY"> F  </i>
   <i type="logical" name="EVENONLY"> F  </i>
   <i type="int" name="LMAXFOCK">     0</i>
   <i type="int" name="NMAXFOCKAE">     0</i>
   <i type="logical" name="LFOCKAEDFT"> F  </i>
   <i name="HFSCREEN">      0.00000000</i>
   <i name="HFSCREENC">      0.00000000</i>
   <i type="int" name="NBANDSGWLOW">     0</i>
  </separator>
  <separator name="vdW DFT" >
   <i type="logical" name="LUSE_VDW"> F  </i>
   <i name="Zab_VDW">     -0.84910000</i>
   <i name="PARAM1">      0.12340000</i>
   <i name="PARAM2">      1.00000000</i>
   <i name="PARAM3">      0.00000000</i>
  </separator>
  <separator name="model GW" >
   <i type="int" name="MODEL_GW">     0</i>
   <i name="MODEL_EPS0">      8.08421053</i>
   <i name="MODEL_ALPHA">      1.00000000</i>
  </separator>
  <separator name="linear response parameters" >
   <i type="logical" name="LEPSILON"> F  </i>
   <i type="logical" name="LRPA"> F  </i>
   <i type="logical" name="LNABLA"> F  </i>
   <i type="logical" name="LVEL"> F  </i>
   <i type="int" name="KINTER">     0</i>
   <i name="CSHIFT">      0.10000000</i>
   <i name="OMEGAMAX">     -1.00000000</i>
   <i name="DEG_THRESHOLD">      0.00200000</i>
  </separator>
  <separator name="orbital magnetization" >
   <i type="logical" name="NUCIND"> F  </i>
   <v name="MAGPOS">      0.00000000      0.00000000      0.00000000</v>
   <i type="logical" name="LNICSALL"> T  </i>
   <i type="logical" name="ORBITALMAG"> F  </i>
   <i type="logical" name="LMAGBLOCH"> F  </i>
   <i type="logical" name="LCHIMAG"> F  </i>
   <i type="logical" name="LGAUGE"> T  </i>
   <i type="int" name="MAGATOM">     0</i>
   <v name="MAGDIPOL">      0.00000000      0.00000000      0.00000000</v>
   <v name="AVECCONST">      0.00000000      0.00000000      0.00000000</v>
  </separator>
  <separator name="response functions" >
   <i type="logical" name="LADDER"> F  </i>
   <i type="logical" name="LFXC"> F  </i>
   <i type="logical" name="LHARTREE"> T  </i>
   <i type="int" name="IBSE">     0</i>
   <i type="logical" name="LTCTE"> F  </i>
   <i type="logical" name="LTETE"> F  </i>
   <i type="logical" name="LTRIPLET"> F  </i>
   <i type="logical" name="LFXCEPS"> F  </i>
   <i type="logical" name="LFXHEG"> F  </i>
   <i type="logical" name="L2ORDER"> F  </i>
   <i type="logical" name="LUSEW"> F  </i>
   <i name="ENCUTGW">     -2.00000000</i>
   <i name="ENCUTGWSOFT">     -2.00000000</i>
   <i name="ENCUTLF">     -1.00000000</i>
   <i type="int" name="LMAXMP2">    -1</i>
   <i name="SCISSOR">      0.00000000</i>
   <i type="int" name="NOMEGA">     0</i>
   <i type="int" name="NOMEGAR">     0</i>
   <i type="int" name="NBANDSGW">    -1</i>
   <i type="int" name="NBANDSO">    -1</i>
   <i type="int" name="NBANDSV">    -1</i>
   <i type="int" name="NELM">   100</i>
   <i type="int" name="DIM">     3</i>
   <i type="int" name="ANTIRES">     0</i>
   <i name="OMEGAMAX">    -30.00000000</i>
   <i name="OMEGAMIN">    -30.00000000</i>
   <i name="OMEGATL">   -200.00000000</i>
   <i type="int" name="OMEGAGRID">     0</i>
   <i name="CSHIFT">     -0.10000000</i>
   <i type="logical" name="SELFENERGY"> F  </i>
   <i type="logical" name="LSPECTRAL"> F  </i>
   <i type="logical" name="ODDONLYGW"> F  </i>
   <i type="logical" name="EVENONLYGW"> F  </i>
   <i type="int" name="NKREDLFX">     1</i>
   <i type="int" name="NKREDLFY">     1</i>
   <i type="int" name="NKREDLFZ">     1</i>
   <i type="int" name="MAXMEM">  1800</i>
   <i type="int" name="TELESCOPE">     0</i>
   <i type="int" name="TAUPAR">     1</i>
  </separator>
  <separator name="External order field" >
   <i name="OFIELD_KAPPA">      0.00000000</i>
   <v name="OFIELD_K">      0.00000000      0.00000000      0.00000000</v>
   <i name="OFIELD_Q6_NEAR">      0.00000000</i>
   <i name="OFIELD_Q6_FAR">      0.00000000</i>
   <i name="OFIELD_A">      0.00000000</i>
  </separator>
 </parameters>
 <atominfo>
  <atoms>      38 </atoms>
  <types>       3 </types>
  <array name="atoms" >
   <dimension dim="1">ion</dimension>
   <field type="string">element</field>
   <field type="int">atomtype</field>
   <set>
    <rc><c>Sr</c><c>   1</c></rc>
    <rc><c>Sr</c><c>   1</c></rc>
    <rc><c>Sr</c><c>   1</c></rc>
    <rc><c>Sr</c><c>   1</c></rc>
    <rc><c>Sr</c><c>   1</c></rc>
    <rc><c>Sr</c><c>   1</c></rc>
    <rc><c>Sr</c><c>   1</c></rc>
    <rc><c>Sr</c><c>   1</c></rc>
    <rc><c>Cu</c><c>   2</c></rc>
    <rc><c>Cu</c><c>   2</c></rc>
    <rc><c>Cu</c><c>   2</c></rc>
    <rc><c>Cu</c><c>   2</c></rc>
    <rc><c>Cu</c><c>   2</c></rc>
    <rc><c>Cu</c><c>   2</c></rc>
    <rc><c>Cu</c><c>   2</c></rc>
    <rc><c>Cu</c><c>   2</c></rc>
    <rc><c>O </c><c>   3</c></rc>
    <rc><c>O </c><c>   3</c></rc>
    <rc><c>O </c><c>   3</c></rc>
    <rc><c>O </c><c>   3</c></rc>
    <rc><c>O </c><c>   3</c></rc>
    <rc><c>O </c><c>   3</c></rc>
    <rc><c>O </c><c>   3</c></rc>
    <rc><c>O </c><c>   3</c></rc>
    <rc><c>O </c><c>   3</c></rc>
    <rc><c>O </c><c>   3</c></rc>
    <rc><c>O </c><c>   3</c></rc>
    <rc><c>O </c><c>   3</c></rc>
    <rc><c>O </c><c>   3</c></rc>
    <rc><c>O </c><c>   3</c></rc>
    <rc><c>O </c><c>   3</c></rc>
    <rc><c>O </c><c>   3</c></rc>
    <rc><c>O </c><c>   3</c></rc>
    <rc><c>O </c><c>   3</c></rc>
    <rc><c>O </c><c>   3</c></rc>
    <rc><c>O </c><c>   3</c></rc>
    <rc><c>O </c><c>   3</c></rc>
    <rc><c>O </c><c>   3</c></rc>
   </set>
  </array>
  <array name="atomtypes" >
   <dimension dim="1">type</dimension>
   <field type="int">atomspertype</field>
   <field type="string">element</field>
   <field>mass</field>
   <field>valence</field>
   <field type="string">pseudopotential</field>
   <set>
    <rc><c>   8</c><c>Sr</c><c>     87.62000000</c><c>     10.00000000</c><c>  PAW_PBE Sr_sv 07Sep2000               </c></rc>
    <rc><c>   8</c><c>Cu</c><c>     63.54600000</c><c>     11.00000000</c><c>  PAW_PBE Cu 22Jun2005                  </c></rc>
    <rc><c>  22</c><c>O </c><c>     16.00000000</c><c>      6.00000000</c><c>  PAW_PBE O_s 07Sep2000                 </c></rc>
   </set>
  </array>
 </atominfo>
 <structure name="initialpos" >
  <crystal>
   <varray name="basis" >
    <v>       5.65685425       0.00000000       0.00000000 </v>
    <v>       0.00000000       5.65685425       0.00000000 </v>
    <v>       0.00000000       0.00000000      16.00000000 </v>
   </varray>
   <i name="volume">    512.00000000 </i>
   <varray name="rec_basis" >
    <v>       0.17677670       0.00000000       0.00000000 </v>
    <v>       0.00000000       0.17677670       0.00000000 </v>
    <v>       0.00000000       0.00000000       0.06250000 </v>
   </varray>
  </crystal>
  <varray name="positions" >
   <v>       0.00000000       0.50000000       0.00000000 </v>
   <v>       0.00000000       0.50000000       0.25000000 </v>
   <v>       0.50000000       0.00000000       0.00000000 </v>
   <v>       0.50000000       0.00000000       0.25000000 </v>
   <v>       0.50000000       0.00000000       0.50000000 </v>
   <v>       0.50000000       0.00000000       0.75000000 </v>
   <v>       0.00000000       0.50000000       0.50000000 </v>
   <v>       0.00000000       0.50000000       0.75000000 </v>
   <v>       0.00000000       0.00000000       0.12500000 </v>
   <v>       0.00000000       0.00000000       0.37500000 </v>
   <v>       0.50000000       0.50000000       0.12500000 </v>
   <v>       0.50000000       0.50000000       0.37500000 </v>
   <v>       0.50000000       0.50000000       0.62500000 </v>
   <v>       0.50000000       0.50000000       0.87500000 </v>
   <v>       0.00000000       0.00000000       0.62500000 </v>
   <v>       0.00000000       0.00000000       0.87500000 </v>
   <v>       0.00000000       0.00000000       0.25000000 </v>
   <v>       0.50000000       0.50000000       0.00000000 </v>
   <v>       0.50000000       0.50000000       0.25000000 </v>
   <v>       0.75000000       0.75000000       0.12500000 </v>
   <v>       0.75000000       0.75000000       0.37500000 </v>
   <v>       0.25000000       0.25000000       0.12500000 </v>
   <v>       0.25000000       0.25000000       0.37500000 </v>
   <v>       0.25000000       0.75000000       0.12500000 </v>
   <v>       0.25000000       0.75000000       0.37500000 </v>
   <v>       0.75000000       0.25000000       0.12500000 </v>
   <v>       0.75000000       0.25000000       0.37500000 </v>
   <v>       0.50000000       0.50000000       0.75000000 </v>
   <v>       0.00000000       0.00000000       0.50000000 </v>
   <v>       0.00000000       0.00000000       0.75000000 </v>
   <v>       0.25000000       0.25000000       0.62500000 </v>
   <v>       0.25000000       0.25000000       0.87500000 </v>
   <v>       0.75000000       0.75000000       0.62500000 </v>
   <v>       0.75000000       0.75000000       0.87500000 </v>
   <v>       0.75000000       0.25000000       0.62500000 </v>
   <v>       0.75000000       0.25000000       0.87500000 </v>
   <v>       0.25000000       0.75000000       0.62500000 </v>
   <v>       0.25000000       0.75000000       0.87500000 </v>
  </varray>
 </structure>
 <calculation>
  <scstep>
   <time name="dav">    7.73    7.82</time>
   <time name="total">    8.15    8.25</time>
   <energy>
    <i name="alphaZ">   1424.38512891 </i>
    <i name="ewald"> -20248.09212936 </i>
    <i name="hartreedc">  -7620.22981566 </i>
    <i name="XCdc">   1254.74759205 </i>
    <i name="pawpsdc">  22442.05010410 </i>
    <i name="pawaedc"> -23124.66503036 </i>
    <i name="eentropy">     -0.00481955 </i>
    <i name="bandstr">   2551.54957084 </i>
    <i name="atom">  27384.24824908 </i>
    <i name="e_fr_energy">   4063.98885004 </i>
    <i name="e_wo_entrp">   4063.99366959 </i>
    <i name="e_0_energy">   4063.99125982 </i>
   </energy>
  </scstep>
  <scstep>
   <time name="dav">    7.72    7.72</time>
   <time name="total">    7.72    7.74</time>
   <energy>
    <i name="e_fr_energy">    445.96173092 </i>
    <i name="e_wo_entrp">    445.97814869 </i>
    <i name="e_0_energy">    445.96993981 </i>
   </energy>
  </scstep>
  <scstep>
   <time name="dav">    7.59    7.60</time>
   <time name="total">    7.60    7.62</time>
   <energy>
    <i name="e_fr_energy">   -190.25018031 </i>
    <i name="e_wo_entrp">   -190.21127225 </i>
    <i name="e_0_energy">   -190.23072628 </i>
   </energy>
  </scstep>
  <scstep>
   <time name="dav">    9.65    9.66</time>
   <time name="total">    9.65    9.67</time>
   <energy>
    <i name="e_fr_energy">   -248.28215768 </i>
    <i name="e_wo_entrp">   -248.21912201 </i>
    <i name="e_0_energy">   -248.25063985 </i>
   </energy>
  </scstep>
  <scstep>
   <time name="dav">   11.88   11.89</time>
   <time name="total">   12.58   12.60</time>
   <energy>
    <i name="e_fr_energy">   -251.79790132 </i>
    <i name="e_wo_entrp">   -251.73583814 </i>
    <i name="e_0_energy">   -251.76686973 </i>
   </energy>
  </scstep>
  <scstep>
   <time name="dav">   10.79   10.80</time>
   <time name="total">   11.91   11.93</time>
   <energy>
    <i name="e_fr_energy">   -253.62286058 </i>
    <i name="e_wo_entrp">   -253.55977629 </i>
    <i name="e_0_energy">   -253.59131844 </i>
   </energy>
  </scstep>
  <scstep>
   <time name="dav">    9.99   10.00</time>
   <time name="total">   11.14   11.16</time>
   <energy>
    <i name="e_fr_energy">   -200.44891767 </i>
    <i name="e_wo_entrp">   -200.39985668 </i>
    <i name="e_0_energy">   -200.42438717 </i>
   </energy>
  </scstep>
  <scstep>
   <time name="dav">   10.62   10.63</time>
   <time name="total">   11.74   11.76</time>
   <energy>
    <i name="e_fr_energy">   -194.50228901 </i>
    <i name="e_wo_entrp">   -194.47239572 </i>
    <i name="e_0_energy">   -194.48734237 </i>
   </energy>
  </scstep>
  <scstep>
   <time name="dav">   11.02   11.02</time>
   <time name="total">   12.13   12.15</time>
   <energy>
    <i name="e_fr_energy">   -200.51517167 </i>
    <i name="e_wo_entrp">   -200.49687971 </i>
    <i name="e_0_energy">   -200.50602569 </i>
   </energy>
  </scstep>
  <scstep>
   <time name="dav">   10.70   10.70</time>
   <time name="total">   11.81   11.83</time>
   <energy>
    <i name="e_fr_energy">   -188.11737353 </i>
    <i name="e_wo_entrp">   -188.09603448 </i>
    <i name="e_0_energy">   -188.10670401 </i>
   </energy>
  </scstep>
  <scstep>
   <time name="dav">   11.08   11.09</time>
   <time name="total">   12.20   12.22</time>
   <energy>
    <i name="e_fr_energy">   -189.01561197 </i>
    <i name="e_wo_entrp">   -188.98905629 </i>
    <i name="e_0_energy">   -189.00233413 </i>
   </energy>
  </scstep>
  <scstep>
   <time name="dav">   10.69   10.69</time>
   <time name="total">   11.80   11.82</time>
   <energy>
    <i name="e_fr_energy">   -189.33759557 </i>
    <i name="e_wo_entrp">   -189.30276876 </i>
    <i name="e_0_energy">   -189.32018217 </i>
   </energy>
  </scstep>
  <scstep>
   <time name="dav">   10.43   10.44</time>
   <time name="total">   11.55   11.57</time>
   <energy>
    <i name="e_fr_energy">   -189.59632780 </i>
    <i name="e_wo_entrp">   -189.56727371 </i>
    <i name="e_0_energy">   -189.58180076 </i>
   </energy>
  </scstep>
  <scstep>
   <time name="dav">   10.53   10.53</time>
   <time name="total">   11.64   11.69</time>
   <energy>
    <i name="e_fr_energy">   -189.90686026 </i>
    <i name="e_wo_entrp">   -189.87557396 </i>
    <i name="e_0_energy">   -189.89121711 </i>
   </energy>
  </scstep>
  <scstep>
   <time name="dav">   10.79   10.79</time>
   <time name="total">   11.90   11.92</time>
   <energy>
    <i name="e_fr_energy">   -190.33033271 </i>
    <i name="e_wo_entrp">   -190.30190133 </i>
    <i name="e_0_energy">   -190.31611702 </i>
   </energy>
  </scstep>
  <scstep>
   <time name="dav">   10.79   10.79</time>
   <time name="total">   11.90   11.92</time>
   <energy>
    <i name="e_fr_energy">   -190.50238594 </i>
    <i name="e_wo_entrp">   -190.47465855 </i>
    <i name="e_0_energy">   -190.48852224 </i>
   </energy>
  </scstep>
  <scstep>
   <time name="dav">   10.27   10.28</time>
   <time name="total">   11.40   11.42</time>
   <energy>
    <i name="e_fr_energy">   -190.59807571 </i>
    <i name="e_wo_entrp">   -190.56944634 </i>
    <i name="e_0_energy">   -190.58376102 </i>
   </energy>
  </scstep>
  <scstep>
   <time name="dav">   10.30   10.30</time>
   <time name="total">   11.41   11.42</time>
   <energy>
    <i name="e_fr_energy">   -190.63710350 </i>
    <i name="e_wo_entrp">   -190.60923211 </i>
    <i name="e_0_energy">   -190.62316781 </i>
   </energy>
  </scstep>
  <scstep>
   <time name="dav">   10.61   10.61</time>
   <time name="total">   11.72   11.74</time>
   <energy>
    <i name="e_fr_energy">   -190.65317358 </i>
    <i name="e_wo_entrp">   -190.62471350 </i>
    <i name="e_0_energy">   -190.63894354 </i>
   </energy>
  </scstep>
  <scstep>
   <time name="dav">   10.87   10.87</time>
   <time name="total">   11.99   12.01</time>
   <energy>
    <i name="e_fr_energy">   -190.65331757 </i>
    <i name="e_wo_entrp">   -190.62455357 </i>
    <i name="e_0_energy">   -190.63893557 </i>
   </energy>
  </scstep>
  <scstep>
   <time name="dav">   11.06   11.07</time>
   <time name="total">   12.18   12.19</time>
   <energy>
    <i name="e_fr_energy">   -190.65462446 </i>
    <i name="e_wo_entrp">   -190.62598401 </i>
    <i name="e_0_energy">   -190.64030423 </i>
   </energy>
  </scstep>
  <scstep>
   <time name="dav">   11.51   11.51</time>
   <time name="total">   12.62   12.64</time>
   <energy>
    <i name="e_fr_energy">   -190.65558736 </i>
    <i name="e_wo_entrp">   -190.62687018 </i>
    <i name="e_0_energy">   -190.64122877 </i>
   </energy>
  </scstep>
  <scstep>
   <time name="dav">   11.39   11.39</time>
   <time name="total">   12.50   12.52</time>
   <energy>
    <i name="e_fr_energy">   -190.65624572 </i>
    <i name="e_wo_entrp">   -190.62751288 </i>
    <i name="e_0_energy">   -190.64187930 </i>
   </energy>
  </scstep>
  <scstep>
   <time name="dav">   11.66   11.66</time>
   <time name="total">   12.77   12.79</time>
   <energy>
    <i name="e_fr_energy">   -190.65687065 </i>
    <i name="e_wo_entrp">   -190.62796896 </i>
    <i name="e_0_energy">   -190.64241981 </i>
   </energy>
  </scstep>
  <scstep>
   <time name="dav">   10.57   10.58</time>
   <time name="total">   11.76   11.77</time>
   <energy>
    <i name="e_fr_energy">   -190.65749589 </i>
    <i name="e_wo_entrp">   -190.62861690 </i>
    <i name="e_0_energy">   -190.64305639 </i>
   </energy>
  </scstep>
  <scstep>
   <time name="dav">   10.98   10.98</time>
   <time name="total">   12.09   12.11</time>
   <energy>
    <i name="e_fr_energy">   -190.65772726 </i>
    <i name="e_wo_entrp">   -190.62882534 </i>
    <i name="e_0_energy">   -190.64327630 </i>
   </energy>
  </scstep>
  <scstep>
   <time name="dav">    9.61    9.62</time>
   <time name="total">   10.73   10.75</time>
   <energy>
    <i name="e_fr_energy">   -190.65736832 </i>
    <i name="e_wo_entrp">   -190.62853198 </i>
    <i name="e_0_energy">   -190.64295015 </i>
   </energy>
  </scstep>
  <scstep>
   <time name="dav">    9.37    9.38</time>
   <time name="total">   10.49   10.51</time>
   <energy>
    <i name="e_fr_energy">   -190.65778797 </i>
    <i name="e_wo_entrp">   -190.62889657 </i>
    <i name="e_0_energy">   -190.64334227 </i>
   </energy>
  </scstep>
  <scstep>
   <time name="dav">   10.81   10.81</time>
   <time name="total">   11.92   11.94</time>
   <energy>
    <i name="e_fr_energy">   -190.65815351 </i>
    <i name="e_wo_entrp">   -190.62920808 </i>
    <i name="e_0_energy">   -190.64368080 </i>
   </energy>
  </scstep>
  <scstep>
   <time name="dav">   11.07   11.09</time>
   <time name="total">   12.19   12.23</time>
   <energy>
    <i name="e_fr_energy">   -190.65855196 </i>
    <i name="e_wo_entrp">   -190.62951252 </i>
    <i name="e_0_energy">   -190.64403224 </i>
   </energy>
  </scstep>
  <scstep>
   <time name="dav">   10.69   10.70</time>
   <time name="total">   11.81   11.82</time>
   <energy>
    <i name="e_fr_energy">   -190.65891709 </i>
    <i name="e_wo_entrp">   -190.62982781 </i>
    <i name="e_0_energy">   -190.64437245 </i>
   </energy>
  </scstep>
  <scstep>
   <time name="dav">    9.86    9.86</time>
   <time name="total">   10.97   10.99</time>
   <energy>
    <i name="e_fr_energy">   -190.65773235 </i>
    <i name="e_wo_entrp">   -190.62874566 </i>
    <i name="e_0_energy">   -190.64323901 </i>
   </energy>
  </scstep>
  <scstep>
   <time name="dav">    9.45    9.45</time>
   <time name="total">   10.56   10.58</time>
   <energy>
    <i name="e_fr_energy">   -190.65886478 </i>
    <i name="e_wo_entrp">   -190.62976788 </i>
    <i name="e_0_energy">   -190.64431633 </i>
   </energy>
  </scstep>
  <scstep>
   <time name="dav">   10.53   10.54</time>
   <time name="total">   11.65   11.67</time>
   <energy>
    <i name="e_fr_energy">   -190.65917214 </i>
    <i name="e_wo_entrp">   -190.63004243 </i>
    <i name="e_0_energy">   -190.64460729 </i>
   </energy>
  </scstep>
  <scstep>
   <time name="dav">   10.43   10.43</time>
   <time name="total">   11.54   11.56</time>
   <energy>
    <i name="e_fr_energy">   -190.65943142 </i>
    <i name="e_wo_entrp">   -190.63019611 </i>
    <i name="e_0_energy">   -190.64481376 </i>
   </energy>
  </scstep>
  <scstep>
   <time name="dav">   11.28   11.29</time>
   <time name="total">   12.39   12.42</time>
   <energy>
    <i name="e_fr_energy">   -190.65975945 </i>
    <i name="e_wo_entrp">   -190.63043496 </i>
    <i name="e_0_energy">   -190.64509720 </i>
   </energy>
  </scstep>
  <scstep>
   <time name="dav">   10.53   10.56</time>
   <time name="total">   11.68   11.72</time>
   <energy>
    <i name="e_fr_energy">   -190.66005770 </i>
    <i name="e_wo_entrp">   -190.63070322 </i>
    <i name="e_0_energy">   -190.64538046 </i>
   </energy>
  </scstep>
  <scstep>
   <time name="dav">   10.25   10.25</time>
   <time name="total">   11.36   11.38</time>
   <energy>
    <i name="e_fr_energy">   -190.66015360 </i>
    <i name="e_wo_entrp">   -190.63077493 </i>
    <i name="e_0_energy">   -190.64546427 </i>
   </energy>
  </scstep>
  <scstep>
   <time name="dav">    9.04    9.04</time>
   <time name="total">   10.15   10.17</time>
   <energy>
    <i name="e_fr_energy">   -190.66008727 </i>
    <i name="e_wo_entrp">   -190.63071823 </i>
    <i name="e_0_energy">   -190.64540275 </i>
   </energy>
  </scstep>
  <scstep>
   <time name="dav">    8.86    8.86</time>
   <time name="total">    9.98   10.00</time>
   <energy>
    <i name="e_fr_energy">   -190.66021225 </i>
    <i name="e_wo_entrp">   -190.63081437 </i>
    <i name="e_0_energy">   -190.64551331 </i>
   </energy>
  </scstep>
  <scstep>
   <time name="dav">   10.81   10.81</time>
   <time name="total">   11.93   11.94</time>
   <energy>
    <i name="e_fr_energy">   -190.66029156 </i>
    <i name="e_wo_entrp">   -190.63086387 </i>
    <i name="e_0_energy">   -190.64557771 </i>
   </energy>
  </scstep>
  <scstep>
   <time name="dav">   10.58   10.59</time>
   <time name="total">   11.70   11.72</time>
   <energy>
    <i name="e_fr_energy">   -190.66036974 </i>
    <i name="e_wo_entrp">   -190.63089891 </i>
    <i name="e_0_energy">   -190.64563432 </i>
   </energy>
  </scstep>
  <scstep>
   <time name="dav">    9.88    9.88</time>
   <time name="total">   11.02   11.04</time>
   <energy>
    <i name="e_fr_energy">   -190.66045393 </i>
    <i name="e_wo_entrp">   -190.63096670 </i>
    <i name="e_0_energy">   -190.64571032 </i>
   </energy>
  </scstep>
  <scstep>
   <time name="dav">    8.41    8.42</time>
   <time name="total">    9.53    9.55</time>
   <energy>
    <i name="e_fr_energy">   -190.66048395 </i>
    <i name="e_wo_entrp">   -190.63098401 </i>
    <i name="e_0_energy">   -190.64573398 </i>
   </energy>
  </scstep>
  <scstep>
   <time name="dav">    8.37    8.37</time>
   <time name="total">    9.51    9.52</time>
   <energy>
    <i name="e_fr_energy">   -190.66051369 </i>
    <i name="e_wo_entrp">   -190.63099902 </i>
    <i name="e_0_energy">   -190.64575635 </i>
   </energy>
  </scstep>
  <scstep>
   <time name="dav">    9.69    9.69</time>
   <time name="total">   10.81   10.83</time>
   <energy>
    <i name="e_fr_energy">   -190.66054056 </i>
    <i name="e_wo_entrp">   -190.63101274 </i>
    <i name="e_0_energy">   -190.64577665 </i>
   </energy>
  </scstep>
  <scstep>
   <time name="dav">    7.69    7.69</time>
   <time name="total">    8.83    8.85</time>
   <energy>
    <i name="e_fr_energy">   -190.66056001 </i>
    <i name="e_wo_entrp">   -190.63102221 </i>
    <i name="e_0_energy">   -190.64579111 </i>
   </energy>
  </scstep>
  <scstep>
   <time name="dav">    7.06    7.07</time>
   <time name="total">    8.18    8.20</time>
   <energy>
    <i name="e_fr_energy">   -190.66057100 </i>
    <i name="e_wo_entrp">   -190.63102662 </i>
    <i name="e_0_energy">   -190.64579881 </i>
   </energy>
  </scstep>
  <scstep>
   <time name="dav">    7.04    7.04</time>
   <time name="total">    8.16    8.18</time>
   <energy>
    <i name="e_fr_energy">   -190.66055962 </i>
    <i name="e_wo_entrp">   -190.63101795 </i>
    <i name="e_0_energy">   -190.64578879 </i>
   </energy>
  </scstep>
  <scstep>
   <time name="dav">    5.68    5.69</time>
   <time name="total">    6.10    6.12</time>
   <energy>
    <i name="alphaZ">   1424.38512891 </i>
    <i name="ewald"> -20248.09212936 </i>
    <i name="hartreedc">  -7509.71184474 </i>
    <i name="XCdc">   1253.53513096 </i>
    <i name="pawpsdc">  35538.64505398 </i>
    <i name="pawaedc"> -36303.45291315 </i>
    <i name="eentropy">     -0.02954049 </i>
    <i name="bandstr">  -1730.18769391 </i>
    <i name="atom">  27384.24824908 </i>
    <i name="e_fr_energy">   -190.66055873 </i>
    <i name="e_wo_entrp">   -190.63101825 </i>
    <i name="e_0_energy">   -190.64578849 </i>
   </energy>
  </scstep>
  <structure>
   <crystal>
    <varray name="basis" >
     <v>       5.65685425       0.00000000       0.00000000 </v>
     <v>       0.00000000       5.65685425       0.00000000 </v>
     <v>       0.00000000       0.00000000      16.00000000 </v>
    </varray>
    <i name="volume">    512.00000000 </i>
    <varray name="rec_basis" >
     <v>       0.17677670       0.00000000       0.00000000 </v>
     <v>       0.00000000       0.17677670       0.00000000 </v>
     <v>       0.00000000       0.00000000       0.06250000 </v>
    </varray>
   </crystal>
   <varray name="positions" >
    <v>       0.00000000       0.50000000       0.00000000 </v>
    <v>       0.00000000       0.50000000       0.25000000 </v>
    <v>       0.50000000       0.00000000       0.00000000 </v>
    <v>       0.50000000       0.00000000       0.25000000 </v>
    <v>       0.50000000       0.00000000       0.50000000 </v>
    <v>       0.50000000       0.00000000       0.75000000 </v>
    <v>       0.00000000       0.50000000       0.50000000 </v>
    <v>       0.00000000       0.50000000       0.75000000 </v>
    <v>       0.00000000       0.00000000       0.12500000 </v>
    <v>       0.00000000       0.00000000       0.37500000 </v>
    <v>       0.50000000       0.50000000       0.12500000 </v>
    <v>       0.50000000       0.50000000       0.37500000 </v>
    <v>       0.50000000       0.50000000       0.62500000 </v>
    <v>       0.50000000       0.50000000       0.87500000 </v>
    <v>       0.00000000       0.00000000       0.62500000 </v>
    <v>       0.00000000       0.00000000       0.87500000 </v>
    <v>       0.00000000       0.00000000       0.25000000 </v>
    <v>       0.50000000       0.50000000       0.00000000 </v>
    <v>       0.50000000       0.50000000       0.25000000 </v>
    <v>       0.75000000       0.75000000       0.12500000 </v>
    <v>       0.75000000       0.75000000       0.37500000 </v>
    <v>       0.25000000       0.25000000       0.12500000 </v>
    <v>       0.25000000       0.25000000       0.37500000 </v>
    <v>       0.25000000       0.75000000       0.12500000 </v>
    <v>       0.25000000       0.75000000       0.37500000 </v>
    <v>       0.75000000       0.25000000       0.12500000 </v>
    <v>       0.75000000       0.25000000       0.37500000 </v>
    <v>       0.50000000       0.50000000       0.75000000 </v>
    <v>       0.00000000       0.00000000       0.50000000 </v>
    <v>       0.00000000       0.00000000       0.75000000 </v>
    <v>       0.25000000       0.25000000       0.62500000 </v>
    <v>       0.25000000       0.25000000       0.87500000 </v>
    <v>       0.75000000       0.75000000       0.62500000 </v>
    <v>       0.75000000       0.75000000       0.87500000 </v>
    <v>       0.75000000       0.25000000       0.62500000 </v>
    <v>       0.75000000       0.25000000       0.87500000 </v>
    <v>       0.25000000       0.75000000       0.62500000 </v>
    <v>       0.25000000       0.75000000       0.87500000 </v>
   </varray>
  </structure>
  <varray name="forces" >
   <v>       0.00000000       0.00000000       0.00000000 </v>
   <v>       0.00000000       0.00000000       0.00000000 </v>
   <v>       0.00000000       0.00000000       0.00000000 </v>
   <v>       0.00000000       0.00000000       0.00000000 </v>
   <v>       0.00000000       0.00000000       0.00000000 </v>
   <v>       0.00000000       0.00000000       0.00000000 </v>
   <v>       0.00000000       0.00000000       0.00000000 </v>
   <v>       0.00000000       0.00000000       0.00000000 </v>
   <v>       0.00000000       0.00000000       1.28801007 </v>
   <v>       0.00000000       0.00000000       0.05885775 </v>
   <v>       0.00000000       0.00000000      -0.05885775 </v>
   <v>       0.00000000       0.00000000      -1.28801007 </v>
   <v>       0.00000000       0.00000000       1.28801007 </v>
   <v>       0.00000000       0.00000000       0.05885775 </v>
   <v>       0.00000000       0.00000000      -0.05885775 </v>
   <v>       0.00000000       0.00000000      -1.28801007 </v>
   <v>       0.00000000       0.00000000       0.55143064 </v>
   <v>       0.00000000       0.00000000       0.00000000 </v>
   <v>       0.00000000       0.00000000      -0.55143064 </v>
   <v>       0.38532409       0.38532409      -0.53130559 </v>
   <v>      -0.38532409      -0.38532409       0.53130559 </v>
   <v>      -0.38532409      -0.38532409      -0.53130559 </v>
   <v>       0.38532409       0.38532409       0.53130559 </v>
   <v>      -0.38532409       0.38532409      -0.53130559 </v>
   <v>       0.38532409      -0.38532409       0.53130559 </v>
   <v>       0.38532409      -0.38532409      -0.53130559 </v>
   <v>      -0.38532409       0.38532409       0.53130559 </v>
   <v>       0.00000000       0.00000000       0.55143064 </v>
   <v>       0.00000000       0.00000000       0.00000000 </v>
   <v>       0.00000000       0.00000000      -0.55143064 </v>
   <v>       0.38532409       0.38532409      -0.53130559 </v>
   <v>      -0.38532409      -0.38532409       0.53130559 </v>
   <v>      -0.38532409      -0.38532409      -0.53130559 </v>
   <v>       0.38532409       0.38532409       0.53130559 </v>
   <v>      -0.38532409       0.38532409      -0.53130559 </v>
   <v>       0.38532409      -0.38532409       0.53130559 </v>
   <v>       0.38532409      -0.38532409      -0.53130559 </v>
   <v>      -0.38532409       0.38532409       0.53130559 </v>
  </varray>
  <varray name="stress" >
   <v>     -91.72221409       0.00000000       0.00000000 </v>
   <v>       0.00000000     -91.72221409       0.00000000 </v>
   <v>       0.00000000       0.00000000     -96.14954775 </v>
  </varray>
  <energy>
   <i name="e_fr_energy">   -190.66055873 </i>
   <i name="e_wo_entrp">   -190.64578849 </i>
   <i name="e_0_energy">     -0.02954049 </i>
  </energy>
  <time name="totalsc">  565.35  566.52</time>
  <eigenvalues>
   <array>
    <dimension dim="1">band</dimension>
    <dimension dim="2">kpoint</dimension>
    <dimension dim="3">spin</dimension>
    <field>eigene</field>
    <field>occ</field>
    <set>
     <set comment="spin 1">
      <set comment="kpoint 1">
       <r>  -30.7340    1.0000 </r>
       <r>  -30.7339    1.0000 </r>
       <r>  -30.7072    1.0000 </r>
       <r>  -30.7072    1.0000 </r>
       <r>  -30.0629    1.0000 </r>
       <r>  -30.0628    1.0000 </r>
       <r>  -30.0348    1.0000 </r>
       <r>  -30.0347    1.0000 </r>
       <r>  -15.0101    1.0000 </r>
       <r>  -14.9999    1.0000 </r>
       <r>  -14.9362    1.0000 </r>
       <r>  -14.9162    1.0000 </r>
       <r>  -14.3000    1.0000 </r>
       <r>  -14.3000    1.0000 </r>
       <r>  -14.1898    1.0000 </r>
       <r>  -14.1898    1.0000 </r>
       <r>  -14.1106    1.0000 </r>
       <r>  -14.1035    1.0000 </r>
       <r>  -14.1035    1.0000 </r>
       <r>  -14.0858    1.0000 </r>
       <r>  -14.0171    1.0000 </r>
       <r>  -13.9613    1.0000 </r>
       <r>  -13.9517    1.0000 </r>
       <r>  -13.9517    1.0000 </r>
       <r>  -13.8700    1.0000 </r>
       <r>  -13.7535    1.0000 </r>
       <r>  -13.6989    1.0000 </r>
       <r>  -13.6848    1.0000 </r>
       <r>  -13.6827    1.0000 </r>
       <r>  -13.6684    1.0000 </r>
       <r>  -12.7947    1.0000 </r>
       <r>  -12.7947    1.0000 </r>
       <r>  -12.7598    1.0000 </r>
       <r>  -12.7598    1.0000 </r>
       <r>  -12.6863    1.0000 </r>
       <r>  -12.6602    1.0000 </r>
       <r>  -12.6215    1.0000 </r>
       <r>  -12.6215    1.0000 </r>
       <r>  -12.5576    1.0000 </r>
       <r>  -12.5576    1.0000 </r>
       <r>  -12.4389    1.0000 </r>
       <r>  -12.3237    1.0000 </r>
       <r>  -12.0900    1.0000 </r>
       <r>  -12.0584    1.0000 </r>
       <r>  -12.0038    1.0000 </r>
       <r>  -12.0038    1.0000 </r>
       <r>  -12.0031    1.0000 </r>
       <r>  -12.0031    1.0000 </r>
       <r>  -12.0022    1.0000 </r>
       <r>  -12.0022    1.0000 </r>
       <r>  -11.9438    1.0000 </r>
       <r>  -11.9438    1.0000 </r>
       <r>  -11.8286    1.0000 </r>
       <r>  -11.7715    1.0000 </r>
       <r>   -3.3714    1.0000 </r>
       <r>   -3.2498    1.0000 </r>
       <r>   -3.1754    1.0000 </r>
       <r>   -3.1317    1.0000 </r>
       <r>   -2.5601    1.0000 </r>
       <r>   -2.5564    1.0000 </r>
       <r>   -2.5563    1.0000 </r>
       <r>   -2.5527    1.0000 </r>
       <r>   -2.5451    1.0000 </r>
       <r>   -2.4904    1.0000 </r>
       <r>   -2.4314    1.0000 </r>
       <r>   -2.2467    1.0000 </r>
       <r>   -2.2432    1.0000 </r>
       <r>   -2.2077    1.0000 </r>
       <r>   -2.1188    1.0000 </r>
       <r>   -2.0803    1.0000 </r>
       <r>   -2.0168    1.0000 </r>
       <r>   -2.0168    1.0000 </r>
       <r>   -1.8775    1.0000 </r>
       <r>   -1.8775    1.0000 </r>
       <r>   -1.8729    1.0000 </r>
       <r>   -1.8729    1.0000 </r>
       <r>   -1.6824    1.0000 </r>
       <r>   -1.6824    1.0000 </r>
       <r>   -1.5219    1.0000 </r>
       <r>   -1.4135    1.0000 </r>
       <r>   -1.3412    1.0000 </r>
       <r>   -1.3412    1.0000 </r>
       <r>   -1.3366    1.0000 </r>
       <r>   -1.3366    1.0000 </r>
       <r>   -1.1969    1.0000 </r>
       <r>   -1.1969    1.0000 </r>
       <r>   -1.1573    1.0000 </r>
       <r>   -1.1531    1.0000 </r>
       <r>   -1.1510    1.0000 </r>
       <r>   -1.1469    1.0000 </r>
       <r>   -1.1031    1.0000 </r>
       <r>   -1.1031    1.0000 </r>
       <r>   -0.9957    1.0000 </r>
       <r>   -0.9957    1.0000 </r>
       <r>   -0.9771    1.0000 </r>
       <r>   -0.9771    1.0000 </r>
       <r>   -0.9706    1.0000 </r>
       <r>   -0.9706    1.0000 </r>
       <r>   -0.9292    1.0000 </r>
       <r>   -0.9292    1.0000 </r>
       <r>   -0.4497    1.0000 </r>
       <r>   -0.4489    1.0000 </r>
       <r>    0.0869    1.0000 </r>
       <r>    0.0874    1.0000 </r>
       <r>    0.0885    1.0000 </r>
       <r>    0.0893    1.0000 </r>
       <r>    0.0898    1.0000 </r>
       <r>    0.2433    1.0000 </r>
       <r>    0.3731    1.0000 </r>
       <r>    0.7334    1.0000 </r>
       <r>    0.7547    1.0000 </r>
       <r>    0.7640    1.0000 </r>
       <r>    0.8545    1.0000 </r>
       <r>    0.9423    1.0000 </r>
       <r>    0.9523    1.0000 </r>
       <r>    1.0464    1.0000 </r>
       <r>    1.0986    1.0000 </r>
       <r>    1.1651    1.0000 </r>
       <r>    1.1651    1.0000 </r>
       <r>    1.1823    1.0000 </r>
       <r>    1.1823    1.0000 </r>
       <r>    1.1829    1.0000 </r>
       <r>    1.1829    1.0000 </r>
       <r>    1.1926    1.0000 </r>
       <r>    1.2096    1.0000 </r>
       <r>    1.2096    1.0000 </r>
       <r>    1.4224    1.0000 </r>
       <r>    1.4224    1.0000 </r>
       <r>    1.4278    1.0000 </r>
       <r>    1.5074    1.0000 </r>
       <r>    1.5074    1.0000 </r>
       <r>    1.5706    1.0000 </r>
       <r>    1.5706    1.0000 </r>
       <r>    1.5809    1.0000 </r>
       <r>    1.5809    1.0000 </r>
       <r>    1.6883    1.0000 </r>
       <r>    1.6883    1.0000 </r>
       <r>    1.8098    1.0000 </r>
       <r>    1.8098    1.0000 </r>
       <r>    1.9107    1.0000 </r>
       <r>    1.9107    1.0000 </r>
       <r>    1.9248    1.0000 </r>
       <r>    1.9256    1.0000 </r>
       <r>    1.9256    1.0000 </r>
       <r>    1.9553    1.0000 </r>
       <r>    1.9553    1.0000 </r>
       <r>    2.0277    1.0000 </r>
       <r>    2.2459    0.9991 </r>
       <r>    2.2459    0.9991 </r>
       <r>    2.3383    0.6974 </r>
       <r>    2.3724    0.3273 </r>
       <r>    2.3788    0.2650 </r>
       <r>    2.3990    0.1150 </r>
       <r>    2.4134    0.0538 </r>
       <r>    2.5594    0.0000 </r>
       <r>    3.5150    0.0000 </r>
       <r>    4.2067    0.0000 </r>
       <r>    4.2104    0.0000 </r>
       <r>    4.2107    0.0000 </r>
       <r>    4.2144    0.0000 </r>
       <r>    5.1395    0.0000 </r>
       <r>    5.1844    0.0000 </r>
       <r>    7.9653    0.0000 </r>
       <r>    8.0872    0.0000 </r>
       <r>    8.4597    0.0000 </r>
       <r>    8.4989    0.0000 </r>
       <r>    8.6921    0.0000 </r>
       <r>    8.9044    0.0000 </r>
       <r>    9.1219    0.0000 </r>
       <r>    9.1630    0.0000 </r>
       <r>    9.2420    0.0000 </r>
       <r>    9.2984    0.0000 </r>
       <r>    9.3233    0.0000 </r>
       <r>    9.3233    0.0000 </r>
       <r>    9.6727    0.0000 </r>
       <r>    9.7383    0.0000 </r>
       <r>   10.0363    0.0000 </r>
       <r>   10.0363    0.0000 </r>
       <r>   10.1751    0.0000 </r>
       <r>   10.1751    0.0000 </r>
       <r>   10.1752    0.0000 </r>
       <r>   10.1787    0.0000 </r>
       <r>   10.1902    0.0000 </r>
       <r>   10.1987    0.0000 </r>
       <r>   10.3565    0.0000 </r>
       <r>   10.3565    0.0000 </r>
       <r>   10.5061    0.0000 </r>
       <r>   10.7531    0.0000 </r>
       <r>   10.7531    0.0000 </r>
       <r>   10.7932    0.0000 </r>
       <r>   10.8199    0.0000 </r>
       <r>   10.9031    0.0000 </r>
       <r>   10.9907    0.0000 </r>
       <r>   11.2047    0.0000 </r>
       <r>   11.2047    0.0000 </r>
       <r>   11.2482    0.0000 </r>
       <r>   11.3214    0.0000 </r>
       <r>   11.6870    0.0000 </r>
       <r>   11.6959    0.0000 </r>
       <r>   11.7137    0.0000 </r>
      </set>
      <set comment="kpoint 2">
       <r>  -30.7300    1.0000 </r>
       <r>  -30.7299    1.0000 </r>
       <r>  -30.7110    1.0000 </r>
       <r>  -30.7110    1.0000 </r>
       <r>  -30.0586    1.0000 </r>
       <r>  -30.0585    1.0000 </r>
       <r>  -30.0387    1.0000 </r>
       <r>  -30.0387    1.0000 </r>
       <r>  -14.9246    1.0000 </r>
       <r>  -14.9214    1.0000 </r>
       <r>  -14.8899    1.0000 </r>
       <r>  -14.8699    1.0000 </r>
       <r>  -14.5287    1.0000 </r>
       <r>  -14.4085    1.0000 </r>
       <r>  -14.3989    1.0000 </r>
       <r>  -14.2280    1.0000 </r>
       <r>  -14.1641    1.0000 </r>
       <r>  -14.1270    1.0000 </r>
       <r>  -14.0476    1.0000 </r>
       <r>  -14.0467    1.0000 </r>
       <r>  -14.0313    1.0000 </r>
       <r>  -13.9120    1.0000 </r>
       <r>  -13.9108    1.0000 </r>
       <r>  -13.9061    1.0000 </r>
       <r>  -13.8819    1.0000 </r>
       <r>  -13.8105    1.0000 </r>
       <r>  -13.7742    1.0000 </r>
       <r>  -13.7700    1.0000 </r>
       <r>  -13.7511    1.0000 </r>
       <r>  -13.7119    1.0000 </r>
       <r>  -12.7895    1.0000 </r>
       <r>  -12.7749    1.0000 </r>
       <r>  -12.7716    1.0000 </r>
       <r>  -12.7415    1.0000 </r>
       <r>  -12.6055    1.0000 </r>
       <r>  -12.5997    1.0000 </r>
       <r>  -12.5893    1.0000 </r>
       <r>  -12.5544    1.0000 </r>
       <r>  -12.5094    1.0000 </r>
       <r>  -12.5034    1.0000 </r>
       <r>  -12.4432    1.0000 </r>
       <r>  -12.3615    1.0000 </r>
       <r>  -12.0267    1.0000 </r>
       <r>  -12.0155    1.0000 </r>
       <r>  -11.9979    1.0000 </r>
       <r>  -11.9979    1.0000 </r>
       <r>  -11.9978    1.0000 </r>
       <r>  -11.9536    1.0000 </r>
       <r>  -11.9167    1.0000 </r>
       <r>  -11.9165    1.0000 </r>
       <r>  -11.9110    1.0000 </r>
       <r>  -11.9018    1.0000 </r>
       <r>  -11.8484    1.0000 </r>
       <r>  -11.8168    1.0000 </r>
       <r>   -3.0951    1.0000 </r>
       <r>   -2.9512    1.0000 </r>
       <r>   -2.9264    1.0000 </r>
       <r>   -2.8645    1.0000 </r>
       <r>   -2.5394    1.0000 </r>
       <r>   -2.4584    1.0000 </r>
       <r>   -2.4276    1.0000 </r>
       <r>   -2.4219    1.0000 </r>
       <r>   -2.4214    1.0000 </r>
       <r>   -2.4147    1.0000 </r>
       <r>   -2.2277    1.0000 </r>
       <r>   -2.2191    1.0000 </r>
       <r>   -2.1481    1.0000 </r>
       <r>   -2.1139    1.0000 </r>
       <r>   -2.1062    1.0000 </r>
       <r>   -2.0643    1.0000 </r>
       <r>   -1.9809    1.0000 </r>
       <r>   -1.9774    1.0000 </r>
       <r>   -1.9172    1.0000 </r>
       <r>   -1.8546    1.0000 </r>
       <r>   -1.8447    1.0000 </r>
       <r>   -1.8195    1.0000 </r>
       <r>   -1.6924    1.0000 </r>
       <r>   -1.6421    1.0000 </r>
       <r>   -1.6231    1.0000 </r>
       <r>   -1.5863    1.0000 </r>
       <r>   -1.5544    1.0000 </r>
       <r>   -1.5342    1.0000 </r>
       <r>   -1.5144    1.0000 </r>
       <r>   -1.4893    1.0000 </r>
       <r>   -1.4785    1.0000 </r>
       <r>   -1.4783    1.0000 </r>
       <r>   -1.4069    1.0000 </r>
       <r>   -1.4067    1.0000 </r>
       <r>   -1.3991    1.0000 </r>
       <r>   -1.3322    1.0000 </r>
       <r>   -1.3143    1.0000 </r>
       <r>   -1.3002    1.0000 </r>
       <r>   -1.2924    1.0000 </r>
       <r>   -1.2437    1.0000 </r>
       <r>   -1.1825    1.0000 </r>
       <r>   -1.1768    1.0000 </r>
       <r>   -1.1311    1.0000 </r>
       <r>   -1.0728    1.0000 </r>
       <r>   -1.0518    1.0000 </r>
       <r>   -1.0391    1.0000 </r>
       <r>   -0.2190    1.0000 </r>
       <r>   -0.2176    1.0000 </r>
       <r>    0.3002    1.0000 </r>
       <r>    0.3205    1.0000 </r>
       <r>    0.5282    1.0000 </r>
       <r>    0.5591    1.0000 </r>
       <r>    0.5619    1.0000 </r>
       <r>    0.5684    1.0000 </r>
       <r>    0.6035    1.0000 </r>
       <r>    0.6476    1.0000 </r>
       <r>    0.6539    1.0000 </r>
       <r>    0.8039    1.0000 </r>
       <r>    0.8661    1.0000 </r>
       <r>    0.8837    1.0000 </r>
       <r>    0.8884    1.0000 </r>
       <r>    1.0013    1.0000 </r>
       <r>    1.0386    1.0000 </r>
       <r>    1.0971    1.0000 </r>
       <r>    1.1072    1.0000 </r>
       <r>    1.1174    1.0000 </r>
       <r>    1.1441    1.0000 </r>
       <r>    1.1576    1.0000 </r>
       <r>    1.1627    1.0000 </r>
       <r>    1.1703    1.0000 </r>
       <r>    1.2004    1.0000 </r>
       <r>    1.2174    1.0000 </r>
       <r>    1.2262    1.0000 </r>
       <r>    1.3185    1.0000 </r>
       <r>    1.3199    1.0000 </r>
       <r>    1.3233    1.0000 </r>
       <r>    1.4243    1.0000 </r>
       <r>    1.4263    1.0000 </r>
       <r>    1.4967    1.0000 </r>
       <r>    1.5664    1.0000 </r>
       <r>    1.5858    1.0000 </r>
       <r>    1.5984    1.0000 </r>
       <r>    1.6854    1.0000 </r>
       <r>    1.6886    1.0000 </r>
       <r>    1.7971    1.0000 </r>
       <r>    1.8041    1.0000 </r>
       <r>    1.8228    1.0000 </r>
       <r>    1.9409    1.0000 </r>
       <r>    1.9510    1.0000 </r>
       <r>    1.9762    1.0000 </r>
       <r>    2.1066    1.0000 </r>
       <r>    2.1374    1.0000 </r>
       <r>    2.1524    1.0000 </r>
       <r>    2.1594    1.0000 </r>
       <r>    2.1667    1.0000 </r>
       <r>    2.1967    1.0000 </r>
       <r>    2.2082    1.0000 </r>
       <r>    2.2108    1.0000 </r>
       <r>    2.4538    0.0030 </r>
       <r>    2.6266    0.0000 </r>
       <r>    2.8917    0.0000 </r>
       <r>    3.5306    0.0000 </r>
       <r>    3.7550    0.0000 </r>
       <r>    3.7669    0.0000 </r>
       <r>    3.7896    0.0000 </r>
       <r>    3.7936    0.0000 </r>
       <r>    5.4241    0.0000 </r>
       <r>    5.4935    0.0000 </r>
       <r>    8.3190    0.0000 </r>
       <r>    8.5218    0.0000 </r>
       <r>    8.6959    0.0000 </r>
       <r>    8.7016    0.0000 </r>
       <r>    8.9905    0.0000 </r>
       <r>    9.1459    0.0000 </r>
       <r>    9.2642    0.0000 </r>
       <r>    9.3511    0.0000 </r>
       <r>    9.3809    0.0000 </r>
       <r>    9.3887    0.0000 </r>
       <r>    9.4821    0.0000 </r>
       <r>    9.5617    0.0000 </r>
       <r>    9.6408    0.0000 </r>
       <r>    9.7374    0.0000 </r>
       <r>    9.8956    0.0000 </r>
       <r>   10.0401    0.0000 </r>
       <r>   10.0567    0.0000 </r>
       <r>   10.0914    0.0000 </r>
       <r>   10.1296    0.0000 </r>
       <r>   10.2272    0.0000 </r>
       <r>   10.3180    0.0000 </r>
       <r>   10.3960    0.0000 </r>
       <r>   10.4531    0.0000 </r>
       <r>   10.5068    0.0000 </r>
       <r>   10.5234    0.0000 </r>
       <r>   10.6696    0.0000 </r>
       <r>   10.7593    0.0000 </r>
       <r>   10.8292    0.0000 </r>
       <r>   10.9465    0.0000 </r>
       <r>   10.9890    0.0000 </r>
       <r>   11.0410    0.0000 </r>
       <r>   11.1262    0.0000 </r>
       <r>   11.2346    0.0000 </r>
       <r>   11.2836    0.0000 </r>
       <r>   11.3166    0.0000 </r>
       <r>   11.3252    0.0000 </r>
       <r>   11.4211    0.0000 </r>
       <r>   11.4452    0.0000 </r>
      </set>
      <set comment="kpoint 3">
       <r>  -30.7205    1.0000 </r>
       <r>  -30.7205    1.0000 </r>
       <r>  -30.7202    1.0000 </r>
       <r>  -30.7202    1.0000 </r>
       <r>  -30.0485    1.0000 </r>
       <r>  -30.0485    1.0000 </r>
       <r>  -30.0484    1.0000 </r>
       <r>  -30.0484    1.0000 </r>
       <r>  -14.8648    1.0000 </r>
       <r>  -14.8648    1.0000 </r>
       <r>  -14.7181    1.0000 </r>
       <r>  -14.7181    1.0000 </r>
       <r>  -14.5930    1.0000 </r>
       <r>  -14.5930    1.0000 </r>
       <r>  -14.5659    1.0000 </r>
       <r>  -14.5659    1.0000 </r>
       <r>  -14.0828    1.0000 </r>
       <r>  -14.0828    1.0000 </r>
       <r>  -14.0379    1.0000 </r>
       <r>  -14.0379    1.0000 </r>
       <r>  -13.9622    1.0000 </r>
       <r>  -13.9622    1.0000 </r>
       <r>  -13.9089    1.0000 </r>
       <r>  -13.9089    1.0000 </r>
       <r>  -13.9055    1.0000 </r>
       <r>  -13.9055    1.0000 </r>
       <r>  -13.8139    1.0000 </r>
       <r>  -13.8139    1.0000 </r>
       <r>  -13.8045    1.0000 </r>
       <r>  -13.8045    1.0000 </r>
       <r>  -12.7945    1.0000 </r>
       <r>  -12.7945    1.0000 </r>
       <r>  -12.7389    1.0000 </r>
       <r>  -12.7389    1.0000 </r>
       <r>  -12.5646    1.0000 </r>
       <r>  -12.5646    1.0000 </r>
       <r>  -12.4778    1.0000 </r>
       <r>  -12.4778    1.0000 </r>
       <r>  -12.4689    1.0000 </r>
       <r>  -12.4689    1.0000 </r>
       <r>  -12.4187    1.0000 </r>
       <r>  -12.4187    1.0000 </r>
       <r>  -11.9929    1.0000 </r>
       <r>  -11.9929    1.0000 </r>
       <r>  -11.9777    1.0000 </r>
       <r>  -11.9777    1.0000 </r>
       <r>  -11.9277    1.0000 </r>
       <r>  -11.9277    1.0000 </r>
       <r>  -11.9099    1.0000 </r>
       <r>  -11.9099    1.0000 </r>
       <r>  -11.8411    1.0000 </r>
       <r>  -11.8411    1.0000 </r>
       <r>  -11.8285    1.0000 </r>
       <r>  -11.8285    1.0000 </r>
       <r>   -2.7248    1.0000 </r>
       <r>   -2.7248    1.0000 </r>
       <r>   -2.3669    1.0000 </r>
       <r>   -2.3669    1.0000 </r>
       <r>   -2.2512    1.0000 </r>
       <r>   -2.2512    1.0000 </r>
       <r>   -2.2426    1.0000 </r>
       <r>   -2.2426    1.0000 </r>
       <r>   -2.1269    1.0000 </r>
       <r>   -2.1269    1.0000 </r>
       <r>   -2.1153    1.0000 </r>
       <r>   -2.1153    1.0000 </r>
       <r>   -2.1022    1.0000 </r>
       <r>   -2.1022    1.0000 </r>
       <r>   -2.1021    1.0000 </r>
       <r>   -2.1021    1.0000 </r>
       <r>   -1.9994    1.0000 </r>
       <r>   -1.9994    1.0000 </r>
       <r>   -1.9365    1.0000 </r>
       <r>   -1.9365    1.0000 </r>
       <r>   -1.9269    1.0000 </r>
       <r>   -1.9269    1.0000 </r>
       <r>   -1.8572    1.0000 </r>
       <r>   -1.8572    1.0000 </r>
       <r>   -1.7448    1.0000 </r>
       <r>   -1.7448    1.0000 </r>
       <r>   -1.7060    1.0000 </r>
       <r>   -1.7060    1.0000 </r>
       <r>   -1.6795    1.0000 </r>
       <r>   -1.6795    1.0000 </r>
       <r>   -1.6700    1.0000 </r>
       <r>   -1.6700    1.0000 </r>
       <r>   -1.6308    1.0000 </r>
       <r>   -1.6308    1.0000 </r>
       <r>   -1.6197    1.0000 </r>
       <r>   -1.6197    1.0000 </r>
       <r>   -1.5592    1.0000 </r>
       <r>   -1.5592    1.0000 </r>
       <r>   -1.4241    1.0000 </r>
       <r>   -1.4241    1.0000 </r>
       <r>   -1.3903    1.0000 </r>
       <r>   -1.3903    1.0000 </r>
       <r>   -1.3458    1.0000 </r>
       <r>   -1.3458    1.0000 </r>
       <r>   -1.1360    1.0000 </r>
       <r>   -1.1360    1.0000 </r>
       <r>   -0.0361    1.0000 </r>
       <r>   -0.0361    1.0000 </r>
       <r>    0.4450    1.0000 </r>
       <r>    0.4450    1.0000 </r>
       <r>    0.5160    1.0000 </r>
       <r>    0.5160    1.0000 </r>
       <r>    0.8656    1.0000 </r>
       <r>    0.8656    1.0000 </r>
       <r>    0.8890    1.0000 </r>
       <r>    0.8890    1.0000 </r>
       <r>    0.9000    1.0000 </r>
       <r>    0.9000    1.0000 </r>
       <r>    0.9053    1.0000 </r>
       <r>    0.9053    1.0000 </r>
       <r>    1.0461    1.0000 </r>
       <r>    1.0461    1.0000 </r>
       <r>    1.0469    1.0000 </r>
       <r>    1.0469    1.0000 </r>
       <r>    1.0721    1.0000 </r>
       <r>    1.0721    1.0000 </r>
       <r>    1.1155    1.0000 </r>
       <r>    1.1155    1.0000 </r>
       <r>    1.1303    1.0000 </r>
       <r>    1.1303    1.0000 </r>
       <r>    1.2084    1.0000 </r>
       <r>    1.2084    1.0000 </r>
       <r>    1.2508    1.0000 </r>
       <r>    1.2508    1.0000 </r>
       <r>    1.3007    1.0000 </r>
       <r>    1.3007    1.0000 </r>
       <r>    1.3717    1.0000 </r>
       <r>    1.3717    1.0000 </r>
       <r>    1.3853    1.0000 </r>
       <r>    1.3853    1.0000 </r>
       <r>    1.4254    1.0000 </r>
       <r>    1.4254    1.0000 </r>
       <r>    1.5261    1.0000 </r>
       <r>    1.5261    1.0000 </r>
       <r>    1.5594    1.0000 </r>
       <r>    1.5594    1.0000 </r>
       <r>    1.7330    1.0000 </r>
       <r>    1.7330    1.0000 </r>
       <r>    1.9324    1.0000 </r>
       <r>    1.9324    1.0000 </r>
       <r>    1.9944    1.0000 </r>
       <r>    1.9944    1.0000 </r>
       <r>    2.0436    1.0000 </r>
       <r>    2.0436    1.0000 </r>
       <r>    2.7154    0.0000 </r>
       <r>    2.7154    0.0000 </r>
       <r>    2.7842    0.0000 </r>
       <r>    2.7842    0.0000 </r>
       <r>    2.8456    0.0000 </r>
       <r>    2.8456    0.0000 </r>
       <r>    2.9359    0.0000 </r>
       <r>    2.9359    0.0000 </r>
       <r>    2.9366    0.0000 </r>
       <r>    2.9366    0.0000 </r>
       <r>    3.3435    0.0000 </r>
       <r>    3.3435    0.0000 </r>
       <r>    5.8595    0.0000 </r>
       <r>    5.8595    0.0000 </r>
       <r>    8.2725    0.0000 </r>
       <r>    8.2725    0.0000 </r>
       <r>    9.0345    0.0000 </r>
       <r>    9.0345    0.0000 </r>
       <r>    9.0378    0.0000 </r>
       <r>    9.0378    0.0000 </r>
       <r>    9.4486    0.0000 </r>
       <r>    9.4486    0.0000 </r>
       <r>    9.5832    0.0000 </r>
       <r>    9.5832    0.0000 </r>
       <r>    9.7778    0.0000 </r>
       <r>    9.7778    0.0000 </r>
       <r>    9.9209    0.0000 </r>
       <r>    9.9209    0.0000 </r>
       <r>    9.9600    0.0000 </r>
       <r>    9.9600    0.0000 </r>
       <r>   10.0989    0.0000 </r>
       <r>   10.0989    0.0000 </r>
       <r>   10.1460    0.0000 </r>
       <r>   10.1460    0.0000 </r>
       <r>   10.3220    0.0000 </r>
       <r>   10.3220    0.0000 </r>
       <r>   10.5083    0.0000 </r>
       <r>   10.5083    0.0000 </r>
       <r>   10.6597    0.0000 </r>
       <r>   10.6597    0.0000 </r>
       <r>   11.0927    0.0000 </r>
       <r>   11.0927    0.0000 </r>
       <r>   11.1052    0.0000 </r>
       <r>   11.1052    0.0000 </r>
       <r>   11.1647    0.0000 </r>
       <r>   11.1647    0.0000 </r>
       <r>   11.1690    0.0000 </r>
       <r>   11.1690    0.0000 </r>
       <r>   11.2240    0.0000 </r>
       <r>   11.2240    0.0000 </r>
       <r>   11.2892    0.0000 </r>
       <r>   11.2892    0.0000 </r>
      </set>
      <set comment="kpoint 4">
       <r>  -30.7271    1.0000 </r>
       <r>  -30.7270    1.0000 </r>
       <r>  -30.7137    1.0000 </r>
       <r>  -30.7136    1.0000 </r>
       <r>  -30.0555    1.0000 </r>
       <r>  -30.0554    1.0000 </r>
       <r>  -30.0415    1.0000 </r>
       <r>  -30.0414    1.0000 </r>
       <r>  -14.9354    1.0000 </r>
       <r>  -14.8702    1.0000 </r>
       <r>  -14.8655    1.0000 </r>
       <r>  -14.7771    1.0000 </r>
       <r>  -14.6150    1.0000 </r>
       <r>  -14.5012    1.0000 </r>
       <r>  -14.4749    1.0000 </r>
       <r>  -14.1531    1.0000 </r>
       <r>  -14.1462    1.0000 </r>
       <r>  -14.1389    1.0000 </r>
       <r>  -14.1356    1.0000 </r>
       <r>  -14.1160    1.0000 </r>
       <r>  -14.0653    1.0000 </r>
       <r>  -14.0275    1.0000 </r>
       <r>  -14.0052    1.0000 </r>
       <r>  -13.8929    1.0000 </r>
       <r>  -13.8904    1.0000 </r>
       <r>  -13.7949    1.0000 </r>
       <r>  -13.7832    1.0000 </r>
       <r>  -13.7827    1.0000 </r>
       <r>  -13.7417    1.0000 </r>
       <r>  -13.7356    1.0000 </r>
       <r>  -12.7805    1.0000 </r>
       <r>  -12.7782    1.0000 </r>
       <r>  -12.7633    1.0000 </r>
       <r>  -12.7408    1.0000 </r>
       <r>  -12.5863    1.0000 </r>
       <r>  -12.5824    1.0000 </r>
       <r>  -12.5611    1.0000 </r>
       <r>  -12.5274    1.0000 </r>
       <r>  -12.4433    1.0000 </r>
       <r>  -12.4217    1.0000 </r>
       <r>  -12.4063    1.0000 </r>
       <r>  -12.3746    1.0000 </r>
       <r>  -11.9912    1.0000 </r>
       <r>  -11.9839    1.0000 </r>
       <r>  -11.9833    1.0000 </r>
       <r>  -11.9728    1.0000 </r>
       <r>  -11.9723    1.0000 </r>
       <r>  -11.9623    1.0000 </r>
       <r>  -11.8701    1.0000 </r>
       <r>  -11.8638    1.0000 </r>
       <r>  -11.8489    1.0000 </r>
       <r>  -11.8471    1.0000 </r>
       <r>  -11.8387    1.0000 </r>
       <r>  -11.8365    1.0000 </r>
       <r>   -3.0501    1.0000 </r>
       <r>   -2.9138    1.0000 </r>
       <r>   -2.9135    1.0000 </r>
       <r>   -2.8422    1.0000 </r>
       <r>   -2.5812    1.0000 </r>
       <r>   -2.5102    1.0000 </r>
       <r>   -2.2736    1.0000 </r>
       <r>   -2.1866    1.0000 </r>
       <r>   -2.1663    1.0000 </r>
       <r>   -2.1602    1.0000 </r>
       <r>   -2.1546    1.0000 </r>
       <r>   -2.1499    1.0000 </r>
       <r>   -2.1343    1.0000 </r>
       <r>   -2.0659    1.0000 </r>
       <r>   -2.0623    1.0000 </r>
       <r>   -2.0539    1.0000 </r>
       <r>   -2.0398    1.0000 </r>
       <r>   -2.0033    1.0000 </r>
       <r>   -1.9911    1.0000 </r>
       <r>   -1.9531    1.0000 </r>
       <r>   -1.9279    1.0000 </r>
       <r>   -1.9019    1.0000 </r>
       <r>   -1.8912    1.0000 </r>
       <r>   -1.8756    1.0000 </r>
       <r>   -1.8700    1.0000 </r>
       <r>   -1.7284    1.0000 </r>
       <r>   -1.6885    1.0000 </r>
       <r>   -1.6410    1.0000 </r>
       <r>   -1.5830    1.0000 </r>
       <r>   -1.5518    1.0000 </r>
       <r>   -1.5008    1.0000 </r>
       <r>   -1.4677    1.0000 </r>
       <r>   -1.4577    1.0000 </r>
       <r>   -1.4351    1.0000 </r>
       <r>   -1.4166    1.0000 </r>
       <r>   -1.4086    1.0000 </r>
       <r>   -1.3540    1.0000 </r>
       <r>   -1.3414    1.0000 </r>
       <r>   -1.2325    1.0000 </r>
       <r>   -1.2308    1.0000 </r>
       <r>   -1.2176    1.0000 </r>
       <r>   -1.0970    1.0000 </r>
       <r>   -0.8330    1.0000 </r>
       <r>   -0.6810    1.0000 </r>
       <r>   -0.6357    1.0000 </r>
       <r>   -0.5547    1.0000 </r>
       <r>   -0.2462    1.0000 </r>
       <r>   -0.1719    1.0000 </r>
       <r>    0.2456    1.0000 </r>
       <r>    0.2885    1.0000 </r>
       <r>    0.3538    1.0000 </r>
       <r>    0.4220    1.0000 </r>
       <r>    0.4731    1.0000 </r>
       <r>    0.4879    1.0000 </r>
       <r>    0.6218    1.0000 </r>
       <r>    0.6281    1.0000 </r>
       <r>    0.8041    1.0000 </r>
       <r>    0.8285    1.0000 </r>
       <r>    0.8285    1.0000 </r>
       <r>    0.8817    1.0000 </r>
       <r>    0.8962    1.0000 </r>
       <r>    0.9495    1.0000 </r>
       <r>    0.9794    1.0000 </r>
       <r>    1.0313    1.0000 </r>
       <r>    1.0339    1.0000 </r>
       <r>    1.0599    1.0000 </r>
       <r>    1.1012    1.0000 </r>
       <r>    1.1016    1.0000 </r>
       <r>    1.1180    1.0000 </r>
       <r>    1.1285    1.0000 </r>
       <r>    1.1389    1.0000 </r>
       <r>    1.1629    1.0000 </r>
       <r>    1.1901    1.0000 </r>
       <r>    1.2931    1.0000 </r>
       <r>    1.3585    1.0000 </r>
       <r>    1.3939    1.0000 </r>
       <r>    1.4107    1.0000 </r>
       <r>    1.4824    1.0000 </r>
       <r>    1.5130    1.0000 </r>
       <r>    1.5244    1.0000 </r>
       <r>    1.5660    1.0000 </r>
       <r>    1.5681    1.0000 </r>
       <r>    1.6400    1.0000 </r>
       <r>    1.7031    1.0000 </r>
       <r>    1.7324    1.0000 </r>
       <r>    1.7451    1.0000 </r>
       <r>    1.7572    1.0000 </r>
       <r>    1.8059    1.0000 </r>
       <r>    1.8090    1.0000 </r>
       <r>    1.8152    1.0000 </r>
       <r>    1.8635    1.0000 </r>
       <r>    1.9050    1.0000 </r>
       <r>    2.0090    1.0000 </r>
       <r>    2.0264    1.0000 </r>
       <r>    2.0755    1.0000 </r>
       <r>    2.1031    1.0000 </r>
       <r>    2.1541    1.0000 </r>
       <r>    2.1776    1.0000 </r>
       <r>    2.6032    0.0000 </r>
       <r>    2.8289    0.0000 </r>
       <r>    3.0080    0.0000 </r>
       <r>    3.1920    0.0000 </r>
       <r>    3.3600    0.0000 </r>
       <r>    3.3947    0.0000 </r>
       <r>    3.4814    0.0000 </r>
       <r>    3.8400    0.0000 </r>
       <r>    5.7439    0.0000 </r>
       <r>    5.8270    0.0000 </r>
       <r>    8.4269    0.0000 </r>
       <r>    8.6800    0.0000 </r>
       <r>    8.7981    0.0000 </r>
       <r>    8.8554    0.0000 </r>
       <r>    8.8801    0.0000 </r>
       <r>    8.9127    0.0000 </r>
       <r>    9.2904    0.0000 </r>
       <r>    9.5780    0.0000 </r>
       <r>    9.6159    0.0000 </r>
       <r>    9.6463    0.0000 </r>
       <r>    9.8363    0.0000 </r>
       <r>    9.9717    0.0000 </r>
       <r>    9.9804    0.0000 </r>
       <r>    9.9837    0.0000 </r>
       <r>   10.1014    0.0000 </r>
       <r>   10.1683    0.0000 </r>
       <r>   10.1978    0.0000 </r>
       <r>   10.2460    0.0000 </r>
       <r>   10.3211    0.0000 </r>
       <r>   10.3424    0.0000 </r>
       <r>   10.4011    0.0000 </r>
       <r>   10.4575    0.0000 </r>
       <r>   10.5900    0.0000 </r>
       <r>   10.6055    0.0000 </r>
       <r>   10.6268    0.0000 </r>
       <r>   10.7482    0.0000 </r>
       <r>   10.8103    0.0000 </r>
       <r>   10.8205    0.0000 </r>
       <r>   10.8714    0.0000 </r>
       <r>   11.1044    0.0000 </r>
       <r>   11.1703    0.0000 </r>
       <r>   11.1916    0.0000 </r>
       <r>   11.1919    0.0000 </r>
       <r>   11.2001    0.0000 </r>
       <r>   11.3286    0.0000 </r>
       <r>   11.3482    0.0000 </r>
       <r>   11.3499    0.0000 </r>
       <r>   11.3788    0.0000 </r>
      </set>
      <set comment="kpoint 5">
       <r>  -30.7203    1.0000 </r>
       <r>  -30.7203    1.0000 </r>
       <r>  -30.7202    1.0000 </r>
       <r>  -30.7202    1.0000 </r>
       <r>  -30.0483    1.0000 </r>
       <r>  -30.0483    1.0000 </r>
       <r>  -30.0482    1.0000 </r>
       <r>  -30.0482    1.0000 </r>
       <r>  -14.9264    1.0000 </r>
       <r>  -14.9264    1.0000 </r>
       <r>  -14.7095    1.0000 </r>
       <r>  -14.7095    1.0000 </r>
       <r>  -14.5966    1.0000 </r>
       <r>  -14.5966    1.0000 </r>
       <r>  -14.4760    1.0000 </r>
       <r>  -14.4760    1.0000 </r>
       <r>  -14.1420    1.0000 </r>
       <r>  -14.1420    1.0000 </r>
       <r>  -14.1015    1.0000 </r>
       <r>  -14.1015    1.0000 </r>
       <r>  -14.0139    1.0000 </r>
       <r>  -14.0139    1.0000 </r>
       <r>  -13.9989    1.0000 </r>
       <r>  -13.9989    1.0000 </r>
       <r>  -13.9447    1.0000 </r>
       <r>  -13.9447    1.0000 </r>
       <r>  -13.7760    1.0000 </r>
       <r>  -13.7760    1.0000 </r>
       <r>  -13.7518    1.0000 </r>
       <r>  -13.7518    1.0000 </r>
       <r>  -12.7863    1.0000 </r>
       <r>  -12.7863    1.0000 </r>
       <r>  -12.7431    1.0000 </r>
       <r>  -12.7431    1.0000 </r>
       <r>  -12.5732    1.0000 </r>
       <r>  -12.5732    1.0000 </r>
       <r>  -12.4604    1.0000 </r>
       <r>  -12.4604    1.0000 </r>
       <r>  -12.4466    1.0000 </r>
       <r>  -12.4466    1.0000 </r>
       <r>  -12.3375    1.0000 </r>
       <r>  -12.3375    1.0000 </r>
       <r>  -11.9739    1.0000 </r>
       <r>  -11.9739    1.0000 </r>
       <r>  -11.9675    1.0000 </r>
       <r>  -11.9675    1.0000 </r>
       <r>  -11.9070    1.0000 </r>
       <r>  -11.9070    1.0000 </r>
       <r>  -11.9064    1.0000 </r>
       <r>  -11.9064    1.0000 </r>
       <r>  -11.7883    1.0000 </r>
       <r>  -11.7883    1.0000 </r>
       <r>  -11.7761    1.0000 </r>
       <r>  -11.7761    1.0000 </r>
       <r>   -2.8760    1.0000 </r>
       <r>   -2.8760    1.0000 </r>
       <r>   -2.6773    1.0000 </r>
       <r>   -2.6773    1.0000 </r>
       <r>   -2.6027    1.0000 </r>
       <r>   -2.6027    1.0000 </r>
       <r>   -2.5861    1.0000 </r>
       <r>   -2.5861    1.0000 </r>
       <r>   -2.4425    1.0000 </r>
       <r>   -2.4425    1.0000 </r>
       <r>   -2.2184    1.0000 </r>
       <r>   -2.2184    1.0000 </r>
       <r>   -2.1799    1.0000 </r>
       <r>   -2.1799    1.0000 </r>
       <r>   -1.9497    1.0000 </r>
       <r>   -1.9497    1.0000 </r>
       <r>   -1.9463    1.0000 </r>
       <r>   -1.9463    1.0000 </r>
       <r>   -1.7393    1.0000 </r>
       <r>   -1.7393    1.0000 </r>
       <r>   -1.7308    1.0000 </r>
       <r>   -1.7308    1.0000 </r>
       <r>   -1.6607    1.0000 </r>
       <r>   -1.6607    1.0000 </r>
       <r>   -1.6518    1.0000 </r>
       <r>   -1.6518    1.0000 </r>
       <r>   -1.6170    1.0000 </r>
       <r>   -1.6170    1.0000 </r>
       <r>   -1.5757    1.0000 </r>
       <r>   -1.5757    1.0000 </r>
       <r>   -1.4746    1.0000 </r>
       <r>   -1.4746    1.0000 </r>
       <r>   -1.4062    1.0000 </r>
       <r>   -1.4062    1.0000 </r>
       <r>   -1.3483    1.0000 </r>
       <r>   -1.3483    1.0000 </r>
       <r>   -1.2581    1.0000 </r>
       <r>   -1.2581    1.0000 </r>
       <r>   -1.1846    1.0000 </r>
       <r>   -1.1846    1.0000 </r>
       <r>   -1.1085    1.0000 </r>
       <r>   -1.1085    1.0000 </r>
       <r>   -1.0883    1.0000 </r>
       <r>   -1.0883    1.0000 </r>
       <r>   -1.0171    1.0000 </r>
       <r>   -1.0171    1.0000 </r>
       <r>   -0.0846    1.0000 </r>
       <r>   -0.0846    1.0000 </r>
       <r>    0.3002    1.0000 </r>
       <r>    0.3002    1.0000 </r>
       <r>    0.4949    1.0000 </r>
       <r>    0.4949    1.0000 </r>
       <r>    0.5133    1.0000 </r>
       <r>    0.5133    1.0000 </r>
       <r>    0.6630    1.0000 </r>
       <r>    0.6630    1.0000 </r>
       <r>    0.7573    1.0000 </r>
       <r>    0.7573    1.0000 </r>
       <r>    0.8732    1.0000 </r>
       <r>    0.8732    1.0000 </r>
       <r>    0.9456    1.0000 </r>
       <r>    0.9456    1.0000 </r>
       <r>    0.9579    1.0000 </r>
       <r>    0.9579    1.0000 </r>
       <r>    0.9643    1.0000 </r>
       <r>    0.9643    1.0000 </r>
       <r>    1.0322    1.0000 </r>
       <r>    1.0322    1.0000 </r>
       <r>    1.0487    1.0000 </r>
       <r>    1.0487    1.0000 </r>
       <r>    1.0898    1.0000 </r>
       <r>    1.0898    1.0000 </r>
       <r>    1.2197    1.0000 </r>
       <r>    1.2197    1.0000 </r>
       <r>    1.3698    1.0000 </r>
       <r>    1.3698    1.0000 </r>
       <r>    1.4429    1.0000 </r>
       <r>    1.4429    1.0000 </r>
       <r>    1.4851    1.0000 </r>
       <r>    1.4851    1.0000 </r>
       <r>    1.5499    1.0000 </r>
       <r>    1.5499    1.0000 </r>
       <r>    1.5994    1.0000 </r>
       <r>    1.5994    1.0000 </r>
       <r>    1.6938    1.0000 </r>
       <r>    1.6938    1.0000 </r>
       <r>    1.7285    1.0000 </r>
       <r>    1.7285    1.0000 </r>
       <r>    1.8567    1.0000 </r>
       <r>    1.8567    1.0000 </r>
       <r>    1.9132    1.0000 </r>
       <r>    1.9132    1.0000 </r>
       <r>    1.9615    1.0000 </r>
       <r>    1.9615    1.0000 </r>
       <r>    2.0076    1.0000 </r>
       <r>    2.0076    1.0000 </r>
       <r>    2.1412    1.0000 </r>
       <r>    2.1412    1.0000 </r>
       <r>    2.5008    0.0000 </r>
       <r>    2.5008    0.0000 </r>
       <r>    2.6406    0.0000 </r>
       <r>    2.6406    0.0000 </r>
       <r>    3.1016    0.0000 </r>
       <r>    3.1016    0.0000 </r>
       <r>    3.7469    0.0000 </r>
       <r>    3.7469    0.0000 </r>
       <r>    6.2329    0.0000 </r>
       <r>    6.2329    0.0000 </r>
       <r>    8.1038    0.0000 </r>
       <r>    8.1038    0.0000 </r>
       <r>    8.6694    0.0000 </r>
       <r>    8.6694    0.0000 </r>
       <r>    9.1714    0.0000 </r>
       <r>    9.1714    0.0000 </r>
       <r>    9.6079    0.0000 </r>
       <r>    9.6079    0.0000 </r>
       <r>   10.0133    0.0000 </r>
       <r>   10.0133    0.0000 </r>
       <r>   10.1150    0.0000 </r>
       <r>   10.1150    0.0000 </r>
       <r>   10.1655    0.0000 </r>
       <r>   10.1655    0.0000 </r>
       <r>   10.2240    0.0000 </r>
       <r>   10.2240    0.0000 </r>
       <r>   10.4120    0.0000 </r>
       <r>   10.4120    0.0000 </r>
       <r>   10.4805    0.0000 </r>
       <r>   10.4805    0.0000 </r>
       <r>   10.4849    0.0000 </r>
       <r>   10.4849    0.0000 </r>
       <r>   10.6209    0.0000 </r>
       <r>   10.6209    0.0000 </r>
       <r>   10.7960    0.0000 </r>
       <r>   10.7960    0.0000 </r>
       <r>   11.1274    0.0000 </r>
       <r>   11.1274    0.0000 </r>
       <r>   11.1447    0.0000 </r>
       <r>   11.1447    0.0000 </r>
       <r>   11.2245    0.0000 </r>
       <r>   11.2245    0.0000 </r>
       <r>   11.3277    0.0000 </r>
       <r>   11.3277    0.0000 </r>
       <r>   11.3483    0.0000 </r>
       <r>   11.3484    0.0000 </r>
       <r>   11.4501    0.0000 </r>
       <r>   11.4521    0.0000 </r>
      </set>
      <set comment="kpoint 6">
       <r>  -30.7202    1.0000 </r>
       <r>  -30.7202    1.0000 </r>
       <r>  -30.7201    1.0000 </r>
       <r>  -30.7201    1.0000 </r>
       <r>  -30.0481    1.0000 </r>
       <r>  -30.0481    1.0000 </r>
       <r>  -30.0480    1.0000 </r>
       <r>  -30.0480    1.0000 </r>
       <r>  -14.9844    1.0000 </r>
       <r>  -14.9844    1.0000 </r>
       <r>  -14.7059    1.0000 </r>
       <r>  -14.7059    1.0000 </r>
       <r>  -14.6077    1.0000 </r>
       <r>  -14.6077    1.0000 </r>
       <r>  -14.2856    1.0000 </r>
       <r>  -14.2856    1.0000 </r>
       <r>  -14.1732    1.0000 </r>
       <r>  -14.1732    1.0000 </r>
       <r>  -14.1729    1.0000 </r>
       <r>  -14.1729    1.0000 </r>
       <r>  -14.1145    1.0000 </r>
       <r>  -14.1145    1.0000 </r>
       <r>  -14.0943    1.0000 </r>
       <r>  -14.0943    1.0000 </r>
       <r>  -13.9855    1.0000 </r>
       <r>  -13.9855    1.0000 </r>
       <r>  -13.7660    1.0000 </r>
       <r>  -13.7660    1.0000 </r>
       <r>  -13.7277    1.0000 </r>
       <r>  -13.7277    1.0000 </r>
       <r>  -12.7856    1.0000 </r>
       <r>  -12.7856    1.0000 </r>
       <r>  -12.7448    1.0000 </r>
       <r>  -12.7448    1.0000 </r>
       <r>  -12.5704    1.0000 </r>
       <r>  -12.5704    1.0000 </r>
       <r>  -12.4457    1.0000 </r>
       <r>  -12.4457    1.0000 </r>
       <r>  -12.4144    1.0000 </r>
       <r>  -12.4144    1.0000 </r>
       <r>  -12.2654    1.0000 </r>
       <r>  -12.2654    1.0000 </r>
       <r>  -11.9638    1.0000 </r>
       <r>  -11.9638    1.0000 </r>
       <r>  -11.9632    1.0000 </r>
       <r>  -11.9632    1.0000 </r>
       <r>  -11.9034    1.0000 </r>
       <r>  -11.9034    1.0000 </r>
       <r>  -11.8864    1.0000 </r>
       <r>  -11.8864    1.0000 </r>
       <r>  -11.7322    1.0000 </r>
       <r>  -11.7322    1.0000 </r>
       <r>  -11.7132    1.0000 </r>
       <r>  -11.7132    1.0000 </r>
       <r>   -3.0116    1.0000 </r>
       <r>   -3.0116    1.0000 </r>
       <r>   -2.8483    1.0000 </r>
       <r>   -2.8483    1.0000 </r>
       <r>   -2.7524    1.0000 </r>
       <r>   -2.7524    1.0000 </r>
       <r>   -2.7492    1.0000 </r>
       <r>   -2.7492    1.0000 </r>
       <r>   -2.4917    1.0000 </r>
       <r>   -2.4917    1.0000 </r>
       <r>   -2.3373    1.0000 </r>
       <r>   -2.3373    1.0000 </r>
       <r>   -2.1795    1.0000 </r>
       <r>   -2.1795    1.0000 </r>
       <r>   -2.0303    1.0000 </r>
       <r>   -2.0303    1.0000 </r>
       <r>   -2.0106    1.0000 </r>
       <r>   -2.0106    1.0000 </r>
       <r>   -1.6973    1.0000 </r>
[...]
       <r>     7.5299     0.0000   162.0000 </r>
       <r>     7.6865     0.0000   162.0000 </r>
       <r>     7.8431     0.0007   162.0001 </r>
       <r>     7.9997     1.3897   162.2177 </r>
       <r>     8.1563     3.9679   162.8391 </r>
       <r>     8.3129     2.3117   163.2011 </r>
       <r>     8.4695     2.9587   163.6644 </r>
       <r>     8.6261     2.6695   164.0825 </r>
       <r>     8.7826     8.3840   165.3954 </r>
       <r>     8.9392     5.8668   166.3141 </r>
       <r>     9.0958     5.3104   167.1457 </r>
       <r>     9.2524     6.9309   168.2311 </r>
       <r>     9.4090     8.2640   169.5252 </r>
       <r>     9.5656     6.2985   170.5115 </r>
       <r>     9.7222    11.6595   172.3374 </r>
       <r>     9.8788     5.5666   173.2091 </r>
       <r>    10.0354    12.8825   175.2265 </r>
       <r>    10.1920    20.9922   178.5138 </r>
       <r>    10.3486    15.6190   180.9597 </r>
       <r>    10.5052    19.8358   184.0660 </r>
       <r>    10.6618    15.7214   186.5279 </r>
       <r>    10.8184    11.8422   188.3824 </r>
       <r>    10.9750     9.7031   189.9019 </r>
       <r>    11.1316    12.0032   191.7815 </r>
       <r>    11.2882    24.2111   195.5729 </r>
       <r>    11.4448    20.6962   198.8139 </r>
       <r>    11.6014     3.8999   199.4246 </r>
       <r>    11.7580     2.0558   199.7466 </r>
       <r>    11.9146     1.1420   199.9254 </r>
       <r>    12.0712     0.4763   200.0000 </r>
       <r>    12.2278     0.0000   200.0000 </r>
       <r>    12.3844     0.0000   200.0000 </r>
       <r>    12.5410     0.0000   200.0000 </r>
       <r>    12.6976     0.0000   200.0000 </r>
       <r>    12.8542     0.0000   200.0000 </r>
       <r>    13.0108     0.0000   200.0000 </r>
       <r>    13.1674     0.0000   200.0000 </r>
       <r>    13.3240     0.0000   200.0000 </r>
       <r>    13.4806     0.0000   200.0000 </r>
       <r>    13.6372     0.0000   200.0000 </r>
       <r>    13.7938     0.0000   200.0000 </r>
       <r>    13.9504     0.0000   200.0000 </r>
       <r>    14.1070     0.0000   200.0000 </r>
      </set>
      <set comment="spin 2">
       <r>   -32.8724     0.0000     0.0000 </r>
       <r>   -32.7158     0.0000     0.0000 </r>
       <r>   -32.5592     0.0000     0.0000 </r>
       <r>   -32.4026     0.0000     0.0000 </r>
       <r>   -32.2460     0.0000     0.0000 </r>
       <r>   -32.0894     0.0000     0.0000 </r>
       <r>   -31.9328     0.0000     0.0000 </r>
       <r>   -31.7762     0.0000     0.0000 </r>
       <r>   -31.6196     0.0000     0.0000 </r>
       <r>   -31.4630     0.0000     0.0000 </r>
       <r>   -31.3064     0.0000     0.0000 </r>
       <r>   -31.1498     0.0000     0.0000 </r>
       <r>   -30.9932     0.0000     0.0000 </r>
       <r>   -30.8366     0.0210     0.0033 </r>
       <r>   -30.6800    22.6046     3.5431 </r>
       <r>   -30.5234     2.9175     4.0000 </r>
       <r>   -30.3668     0.0000     4.0000 </r>
       <r>   -30.2102     0.0001     4.0000 </r>
       <r>   -30.0536    12.0430     5.8859 </r>
       <r>   -29.8970    13.4998     8.0000 </r>
       <r>   -29.7404     0.0002     8.0000 </r>
       <r>   -29.5838     0.0000     8.0000 </r>
       <r>   -29.4272     0.0000     8.0000 </r>
       <r>   -29.2706     0.0000     8.0000 </r>
       <r>   -29.1140     0.0000     8.0000 </r>
       <r>   -28.9574     0.0000     8.0000 </r>
       <r>   -28.8008     0.0000     8.0000 </r>
       <r>   -28.6443     0.0000     8.0000 </r>
       <r>   -28.4877     0.0000     8.0000 </r>
       <r>   -28.3311     0.0000     8.0000 </r>
       <r>   -28.1745     0.0000     8.0000 </r>
       <r>   -28.0179     0.0000     8.0000 </r>
       <r>   -27.8613     0.0000     8.0000 </r>
       <r>   -27.7047     0.0000     8.0000 </r>
       <r>   -27.5481     0.0000     8.0000 </r>
       <r>   -27.3915     0.0000     8.0000 </r>
       <r>   -27.2349     0.0000     8.0000 </r>
       <r>   -27.0783     0.0000     8.0000 </r>
       <r>   -26.9217     0.0000     8.0000 </r>
       <r>   -26.7651     0.0000     8.0000 </r>
       <r>   -26.6085     0.0000     8.0000 </r>
       <r>   -26.4519     0.0000     8.0000 </r>
       <r>   -26.2953     0.0000     8.0000 </r>
       <r>   -26.1387     0.0000     8.0000 </r>
       <r>   -25.9821     0.0000     8.0000 </r>
       <r>   -25.8255     0.0000     8.0000 </r>
       <r>   -25.6689     0.0000     8.0000 </r>
       <r>   -25.5123     0.0000     8.0000 </r>
       <r>   -25.3557     0.0000     8.0000 </r>
       <r>   -25.1991     0.0000     8.0000 </r>
       <r>   -25.0425     0.0000     8.0000 </r>
       <r>   -24.8859     0.0000     8.0000 </r>
       <r>   -24.7293     0.0000     8.0000 </r>
       <r>   -24.5727     0.0000     8.0000 </r>
       <r>   -24.4161     0.0000     8.0000 </r>
       <r>   -24.2595     0.0000     8.0000 </r>
       <r>   -24.1029     0.0000     8.0000 </r>
       <r>   -23.9463     0.0000     8.0000 </r>
       <r>   -23.7897     0.0000     8.0000 </r>
       <r>   -23.6331     0.0000     8.0000 </r>
       <r>   -23.4765     0.0000     8.0000 </r>
       <r>   -23.3199     0.0000     8.0000 </r>
       <r>   -23.1633     0.0000     8.0000 </r>
       <r>   -23.0067     0.0000     8.0000 </r>
       <r>   -22.8501     0.0000     8.0000 </r>
       <r>   -22.6935     0.0000     8.0000 </r>
       <r>   -22.5369     0.0000     8.0000 </r>
       <r>   -22.3803     0.0000     8.0000 </r>
       <r>   -22.2237     0.0000     8.0000 </r>
       <r>   -22.0671     0.0000     8.0000 </r>
       <r>   -21.9105     0.0000     8.0000 </r>
       <r>   -21.7539     0.0000     8.0000 </r>
       <r>   -21.5973     0.0000     8.0000 </r>
       <r>   -21.4407     0.0000     8.0000 </r>
       <r>   -21.2841     0.0000     8.0000 </r>
       <r>   -21.1276     0.0000     8.0000 </r>
       <r>   -20.9710     0.0000     8.0000 </r>
       <r>   -20.8144     0.0000     8.0000 </r>
       <r>   -20.6578     0.0000     8.0000 </r>
       <r>   -20.5012     0.0000     8.0000 </r>
       <r>   -20.3446     0.0000     8.0000 </r>
       <r>   -20.1880     0.0000     8.0000 </r>
       <r>   -20.0314     0.0000     8.0000 </r>
       <r>   -19.8748     0.0000     8.0000 </r>
       <r>   -19.7182     0.0000     8.0000 </r>
       <r>   -19.5616     0.0000     8.0000 </r>
       <r>   -19.4050     0.0000     8.0000 </r>
       <r>   -19.2484     0.0000     8.0000 </r>
       <r>   -19.0918     0.0000     8.0000 </r>
       <r>   -18.9352     0.0000     8.0000 </r>
       <r>   -18.7786     0.0000     8.0000 </r>
       <r>   -18.6220     0.0000     8.0000 </r>
       <r>   -18.4654     0.0000     8.0000 </r>
       <r>   -18.3088     0.0000     8.0000 </r>
       <r>   -18.1522     0.0000     8.0000 </r>
       <r>   -17.9956     0.0000     8.0000 </r>
       <r>   -17.8390     0.0000     8.0000 </r>
       <r>   -17.6824     0.0000     8.0000 </r>
       <r>   -17.5258     0.0000     8.0000 </r>
       <r>   -17.3692     0.0000     8.0000 </r>
       <r>   -17.2126     0.0000     8.0000 </r>
       <r>   -17.0560     0.0000     8.0000 </r>
       <r>   -16.8994     0.0000     8.0000 </r>
       <r>   -16.7428     0.0000     8.0000 </r>
       <r>   -16.5862     0.0000     8.0000 </r>
       <r>   -16.4296     0.0000     8.0000 </r>
       <r>   -16.2730     0.0000     8.0000 </r>
       <r>   -16.1164     0.0000     8.0000 </r>
       <r>   -15.9598     0.0000     8.0000 </r>
       <r>   -15.8032     0.0000     8.0000 </r>
       <r>   -15.6466     0.0000     8.0000 </r>
       <r>   -15.4900     0.0000     8.0000 </r>
       <r>   -15.3334     0.0000     8.0000 </r>
       <r>   -15.1768     0.0000     8.0000 </r>
       <r>   -15.0202     0.0000     8.0000 </r>
       <r>   -14.8636     0.2044     8.0320 </r>
       <r>   -14.7070     9.5782     9.5319 </r>
       <r>   -14.5504    11.0002    11.2545 </r>
       <r>   -14.3938    10.9197    12.9645 </r>
       <r>   -14.2372    10.8122    14.6577 </r>
       <r>   -14.0806     5.0266    15.4449 </r>
       <r>   -13.9240    15.8690    17.9299 </r>
       <r>   -13.7674    26.6564    22.1043 </r>
       <r>   -13.6109    22.3213    25.5997 </r>
       <r>   -13.4543    26.2412    29.7090 </r>
       <r>   -13.2977     1.8580    30.0000 </r>
       <r>   -13.1411     0.0000    30.0000 </r>
       <r>   -12.9845     0.0000    30.0000 </r>
       <r>   -12.8279     1.0687    30.1674 </r>
       <r>   -12.6713    23.8784    33.9067 </r>
       <r>   -12.5147    19.6566    36.9848 </r>
       <r>   -12.3581    23.5715    40.6761 </r>
       <r>   -12.2015     8.0690    41.9397 </r>
       <r>   -12.0449     2.7787    42.3748 </r>
       <r>   -11.8883    41.8355    48.9262 </r>
       <r>   -11.7317    28.7019    53.4208 </r>
       <r>   -11.5751     3.6960    53.9996 </r>
       <r>   -11.4185     0.0025    54.0000 </r>
       <r>   -11.2619     0.0000    54.0000 </r>
       <r>   -11.1053     0.0000    54.0000 </r>
       <r>   -10.9487     0.0000    54.0000 </r>
       <r>   -10.7921     0.0000    54.0000 </r>
       <r>   -10.6355     0.0000    54.0000 </r>
       <r>   -10.4789     0.0000    54.0000 </r>
       <r>   -10.3223     0.0000    54.0000 </r>
       <r>   -10.1657     0.0000    54.0000 </r>
       <r>   -10.0091     0.0000    54.0000 </r>
       <r>    -9.8525     0.0000    54.0000 </r>
       <r>    -9.6959     0.0000    54.0000 </r>
       <r>    -9.5393     0.0000    54.0000 </r>
       <r>    -9.3827     0.0000    54.0000 </r>
       <r>    -9.2261     0.0000    54.0000 </r>
       <r>    -9.0695     0.0000    54.0000 </r>
       <r>    -8.9129     0.0000    54.0000 </r>
       <r>    -8.7563     0.0000    54.0000 </r>
       <r>    -8.5997     0.0000    54.0000 </r>
       <r>    -8.4431     0.0000    54.0000 </r>
       <r>    -8.2865     0.0000    54.0000 </r>
       <r>    -8.1299     0.0000    54.0000 </r>
       <r>    -7.9733     0.0000    54.0000 </r>
       <r>    -7.8167     0.0000    54.0000 </r>
       <r>    -7.6601     0.0000    54.0000 </r>
       <r>    -7.5035     0.0000    54.0000 </r>
       <r>    -7.3469     0.0000    54.0000 </r>
       <r>    -7.1903     0.0000    54.0000 </r>
       <r>    -7.0337     0.0000    54.0000 </r>
       <r>    -6.8771     0.0000    54.0000 </r>
       <r>    -6.7205     0.0000    54.0000 </r>
       <r>    -6.5639     0.0000    54.0000 </r>
       <r>    -6.4073     0.0000    54.0000 </r>
       <r>    -6.2507     0.0000    54.0000 </r>
       <r>    -6.0942     0.0000    54.0000 </r>
       <r>    -5.9376     0.0000    54.0000 </r>
       <r>    -5.7810     0.0000    54.0000 </r>
       <r>    -5.6244     0.0000    54.0000 </r>
       <r>    -5.4678     0.0000    54.0000 </r>
       <r>    -5.3112     0.0000    54.0000 </r>
       <r>    -5.1546     0.0000    54.0000 </r>
       <r>    -4.9980     0.0000    54.0000 </r>
       <r>    -4.8414     0.0000    54.0000 </r>
       <r>    -4.6848     0.0000    54.0000 </r>
       <r>    -4.5282     0.0000    54.0000 </r>
       <r>    -4.3716     0.0000    54.0000 </r>
       <r>    -4.2150     0.0000    54.0000 </r>
       <r>    -4.0584     0.0000    54.0000 </r>
       <r>    -3.9018     0.0000    54.0000 </r>
       <r>    -3.7452     0.0000    54.0000 </r>
       <r>    -3.5886     0.0000    54.0000 </r>
       <r>    -3.4320     0.0000    54.0000 </r>
       <r>    -3.2754     0.1877    54.0294 </r>
       <r>    -3.1188     0.9037    54.1709 </r>
       <r>    -2.9622     4.2646    54.8387 </r>
       <r>    -2.8056    13.2912    56.9201 </r>
       <r>    -2.6490    13.8917    59.0955 </r>
       <r>    -2.4924    12.3684    61.0324 </r>
       <r>    -2.3358     7.2307    62.1647 </r>
       <r>    -2.1792    18.4769    65.0582 </r>
       <r>    -2.0226    26.1590    69.1546 </r>
       <r>    -1.8660    31.0112    74.0109 </r>
       <r>    -1.7094    29.6780    78.6584 </r>
       <r>    -1.5528    13.0658    80.7045 </r>
       <r>    -1.3962    25.6278    84.7177 </r>
       <r>    -1.2396    36.8795    90.4930 </r>
       <r>    -1.0830    27.4289    94.7883 </r>
       <r>    -0.9264    19.2782    97.8072 </r>
       <r>    -0.7698     4.5263    98.5160 </r>
       <r>    -0.6132     2.7167    98.9415 </r>
       <r>    -0.4566     3.9572    99.5611 </r>
       <r>    -0.3000     2.5601    99.9621 </r>
       <r>    -0.1434     4.6296   100.6870 </r>
       <r>     0.0132     6.0537   101.6350 </r>
       <r>     0.1698     4.7074   102.3722 </r>
       <r>     0.3264     0.8971   102.5127 </r>
       <r>     0.4830     9.6028   104.0165 </r>
       <r>     0.6396    17.0318   106.6836 </r>
       <r>     0.7962    16.4447   109.2588 </r>
       <r>     0.9528    15.2133   111.6412 </r>
       <r>     1.1094    25.6364   115.6558 </r>
       <r>     1.2660    35.0638   121.1467 </r>
       <r>     1.4225    37.1451   126.9636 </r>
       <r>     1.5791    22.0094   130.4102 </r>
       <r>     1.7357    23.0869   134.0255 </r>
       <r>     1.8923    27.5875   138.3457 </r>
       <r>     2.0489    22.5225   141.8727 </r>
       <r>     2.2055    25.0291   145.7922 </r>
       <r>     2.3621    17.8628   148.5894 </r>
       <r>     2.5187    17.6604   151.3550 </r>
       <r>     2.6753     9.4192   152.8300 </r>
       <r>     2.8319     9.4481   154.3096 </r>
       <r>     2.9885     4.9850   155.0902 </r>
       <r>     3.1451     2.3762   155.4624 </r>
       <r>     3.3017     6.7888   156.5255 </r>
       <r>     3.4583     2.1989   156.8698 </r>
       <r>     3.6149     5.7531   157.7707 </r>
       <r>     3.7715     1.1176   157.9457 </r>
       <r>     3.9281     9.6418   159.4556 </r>
       <r>     4.0847     1.8745   159.7492 </r>
       <r>     4.2413     0.0985   159.7646 </r>
       <r>     4.3979     1.4997   159.9994 </r>
       <r>     4.5545     0.0035   160.0000 </r>
       <r>     4.7111     0.0000   160.0000 </r>
       <r>     4.8677     0.0000   160.0000 </r>
       <r>     5.0243     0.0000   160.0000 </r>
       <r>     5.1809     0.2519   160.0394 </r>
       <r>     5.3375     0.5454   160.1248 </r>
       <r>     5.4941     1.4402   160.3504 </r>
       <r>     5.6507     1.7505   160.6245 </r>
       <r>     5.8073     1.3890   160.8420 </r>
       <r>     5.9639     3.3352   161.3643 </r>
       <r>     6.1205     0.0684   161.3750 </r>
       <r>     6.2771     2.0929   161.7028 </r>
       <r>     6.4337     1.0999   161.8750 </r>
       <r>     6.5903     0.0000   161.8750 </r>
       <r>     6.7469     0.0100   161.8766 </r>
       <r>     6.9035     0.7768   161.9982 </r>
       <r>     7.0601     0.0114   162.0000 </r>
       <r>     7.2167     0.0000   162.0000 </r>
       <r>     7.3733     0.0000   162.0000 </r>
       <r>     7.5299     0.0000   162.0000 </r>
       <r>     7.6865     0.0000   162.0000 </r>
       <r>     7.8431     0.0003   162.0000 </r>
       <r>     7.9997     1.2342   162.1933 </r>
       <r>     8.1563     3.9929   162.8186 </r>
       <r>     8.3129     2.3646   163.1889 </r>
       <r>     8.4695     2.5896   163.5944 </r>
       <r>     8.6261     2.8212   164.0362 </r>
       <r>     8.7826     8.2549   165.3289 </r>
       <r>     8.9392     5.2699   166.1541 </r>
       <r>     9.0958     5.6713   167.0423 </r>
       <r>     9.2524     6.0788   167.9942 </r>
       <r>     9.4090     9.2359   169.4405 </r>
       <r>     9.5656     5.1474   170.2466 </r>
       <r>     9.7222    12.1490   172.1491 </r>
       <r>     9.8788     5.7380   173.0476 </r>
       <r>    10.0354    10.7971   174.7384 </r>
       <r>    10.1920    20.6010   177.9645 </r>
       <r>    10.3486    16.6226   180.5676 </r>
       <r>    10.5052    18.0650   183.3965 </r>
       <r>    10.6618    17.7715   186.1795 </r>
       <r>    10.8184    11.0845   187.9153 </r>
       <r>    10.9750    11.7442   189.7544 </r>
       <r>    11.1316     8.8601   191.1419 </r>
       <r>    11.2882    25.0792   195.0693 </r>
       <r>    11.4448    21.3502   198.4126 </r>
       <r>    11.6014     6.2107   199.3852 </r>
       <r>    11.7580     1.6282   199.6402 </r>
       <r>    11.9146     1.5199   199.8782 </r>
       <r>    12.0712     0.7758   199.9997 </r>
       <r>    12.2278     0.0019   200.0000 </r>
       <r>    12.3844     0.0000   200.0000 </r>
       <r>    12.5410     0.0000   200.0000 </r>
       <r>    12.6976     0.0000   200.0000 </r>
       <r>    12.8542     0.0000   200.0000 </r>
       <r>    13.0108     0.0000   200.0000 </r>
       <r>    13.1674     0.0000   200.0000 </r>
       <r>    13.3240     0.0000   200.0000 </r>
       <r>    13.4806     0.0000   200.0000 </r>
       <r>    13.6372     0.0000   200.0000 </r>
       <r>    13.7938     0.0000   200.0000 </r>
       <r>    13.9504     0.0000   200.0000 </r>
       <r>    14.1070     0.0000   200.0000 </r>
      </set>
     </set>
    </array>
   </total>
  </dos>
 </calculation>
 <structure name="finalpos" >
  <crystal>
   <varray name="basis" >
    <v>       5.65685425       0.00000000       0.00000000 </v>
    <v>       0.00000000       5.65685425       0.00000000 </v>
    <v>       0.00000000       0.00000000      16.00000000 </v>
   </varray>
   <i name="volume">    512.00000000 </i>
   <varray name="rec_basis" >
    <v>       0.17677670       0.00000000       0.00000000 </v>
    <v>       0.00000000       0.17677670       0.00000000 </v>
    <v>       0.00000000       0.00000000       0.06250000 </v>
   </varray>
  </crystal>
  <varray name="positions" >
   <v>       0.00000000       0.50000000       0.00000000 </v>
   <v>       0.00000000       0.50000000       0.25000000 </v>
   <v>       0.50000000       0.00000000       0.00000000 </v>
   <v>       0.50000000       0.00000000       0.25000000 </v>
   <v>       0.50000000       0.00000000       0.50000000 </v>
   <v>       0.50000000       0.00000000       0.75000000 </v>
   <v>       0.00000000       0.50000000       0.50000000 </v>
   <v>       0.00000000       0.50000000       0.75000000 </v>
   <v>       0.00000000       0.00000000       0.12500000 </v>
   <v>       0.00000000       0.00000000       0.37500000 </v>
   <v>       0.50000000       0.50000000       0.12500000 </v>
   <v>       0.50000000       0.50000000       0.37500000 </v>
   <v>       0.50000000       0.50000000       0.62500000 </v>
   <v>       0.50000000       0.50000000       0.87500000 </v>
   <v>       0.00000000       0.00000000       0.62500000 </v>
   <v>       0.00000000       0.00000000       0.87500000 </v>
   <v>       0.00000000       0.00000000       0.25000000 </v>
   <v>       0.50000000       0.50000000       0.00000000 </v>
   <v>       0.50000000       0.50000000       0.25000000 </v>
   <v>       0.75000000       0.75000000       0.12500000 </v>
   <v>       0.75000000       0.75000000       0.37500000 </v>
   <v>       0.25000000       0.25000000       0.12500000 </v>
   <v>       0.25000000       0.25000000       0.37500000 </v>
   <v>       0.25000000       0.75000000       0.12500000 </v>
   <v>       0.25000000       0.75000000       0.37500000 </v>
   <v>       0.75000000       0.25000000       0.12500000 </v>
   <v>       0.75000000       0.25000000       0.37500000 </v>
   <v>       0.50000000       0.50000000       0.75000000 </v>
   <v>       0.00000000       0.00000000       0.50000000 </v>
   <v>       0.00000000       0.00000000       0.75000000 </v>
   <v>       0.25000000       0.25000000       0.62500000 </v>
   <v>       0.25000000       0.25000000       0.87500000 </v>
   <v>       0.75000000       0.75000000       0.62500000 </v>
   <v>       0.75000000       0.75000000       0.87500000 </v>
   <v>       0.75000000       0.25000000       0.62500000 </v>
   <v>       0.75000000       0.25000000       0.87500000 </v>
   <v>       0.25000000       0.75000000       0.62500000 </v>
   <v>       0.25000000       0.75000000       0.87500000 </v>
  </varray>
 </structure>
</modeling>
