<?xml version="1.0" encoding="ISO-8859-1"?>
<modeling>
 <generator>
  <i name="program" type="string">vasp </i>
  <i name="version" type="string">5.3.5  </i>
  <i name="subversion" type="string">31Mar14 (build Jun 20 2014 13:15:13) complex                          parallel </i>
  <i name="platform" type="string">LinuxIFC </i>
  <i name="date" type="string">2025 12 16 </i>
  <i name="time" type="string">17:25:59 </i>
 </generator>
 <incar>
  <i type="string" name="PREC">accurate</i>
  <i type="int" name="IALGO">    68</i>
  <i type="logical" name="ADDGRID"> T  </i>
  <i type="int" name="NELM">   100</i>
  <i type="int" name="NELMIN">     4</i>
  <i type="int" name="IBRION">     2</i>
  <i name="EDIFF">      0.00000100</i>
  <i name="EDIFFG">     -0.02000000</i>
  <i type="int" name="NSW">    30</i>
  <i type="int" name="ISIF">     3</i>
  <i name="ENCUT">    600.00000000</i>
  <i type="logical" name="LREAL"> F  </i>
  <i type="int" name="ISMEAR">     0</i>
  <i name="SIGMA">      0.10000000</i>
  <i type="logical" name="LWAVE"> F  </i>
  <i type="logical" name="LCHARG"> F  </i>
  <i type="int" name="NELM">   100</i>
 </incar>
 <kpoints>
  <generation param="Auto">
   <i name="subdivisionlength">     20.00000000 </i>
   <v type="int" name="divisions">       4        4        3 </v>
   <v name="usershift">      0.00000000       0.00000000       0.00000000 </v>
   <v name="genvec1">      0.25000000       0.00000000       0.00000000 </v>
   <v name="genvec2">      0.00000000       0.25000000       0.00000000 </v>
   <v name="genvec3">      0.00000000       0.00000000       0.33333333 </v>
   <v name="shift">      0.00000000       0.00000000       0.00000000 </v>
  </generation>
  <varray name="kpointlist" >
   <v>       0.00000000       0.00000000       0.00000000 </v>
   <v>       0.25000000       0.00000000       0.00000000 </v>
   <v>       0.50000000       0.00000000       0.00000000 </v>
   <v>       0.00000000       0.25000000       0.00000000 </v>
   <v>       0.25000000       0.25000000       0.00000000 </v>
   <v>       0.50000000       0.25000000       0.00000000 </v>
   <v>      -0.25000000       0.25000000       0.00000000 </v>
   <v>       0.00000000       0.50000000       0.00000000 </v>
   <v>       0.25000000       0.50000000       0.00000000 </v>
   <v>       0.50000000       0.50000000       0.00000000 </v>
   <v>       0.00000000       0.00000000       0.33333333 </v>
   <v>       0.25000000       0.00000000       0.33333333 </v>
   <v>       0.50000000       0.00000000       0.33333333 </v>
   <v>      -0.25000000       0.00000000       0.33333333 </v>
   <v>       0.00000000       0.25000000       0.33333333 </v>
   <v>       0.25000000       0.25000000       0.33333333 </v>
   <v>       0.50000000       0.25000000       0.33333333 </v>
   <v>      -0.25000000       0.25000000       0.33333333 </v>
   <v>       0.00000000       0.50000000       0.33333333 </v>
   <v>       0.25000000       0.50000000       0.33333333 </v>
   <v>       0.50000000       0.50000000       0.33333333 </v>
   <v>      -0.25000000       0.50000000       0.33333333 </v>
   <v>       0.00000000      -0.25000000       0.33333333 </v>
   <v>       0.25000000      -0.25000000       0.33333333 </v>
   <v>       0.50000000      -0.25000000       0.33333333 </v>
   <v>      -0.25000000      -0.25000000       0.33333333 </v>
  </varray>
  <varray name="weights" >
   <v>       0.02083333 </v>
   <v>       0.04166667 </v>
   <v>       0.02083333 </v>
   <v>       0.04166667 </v>
   <v>       0.04166667 </v>
   <v>       0.04166667 </v>
   <v>       0.04166667 </v>
   <v>       0.02083333 </v>
   <v>       0.04166667 </v>
   <v>       0.02083333 </v>
   <v>       0.04166667 </v>
   <v>       0.04166667 </v>
   <v>       0.04166667 </v>
   <v>       0.04166667 </v>
   <v>       0.04166667 </v>
   <v>       0.04166667 </v>
   <v>       0.04166667 </v>
   <v>       0.04166667 </v>
   <v>       0.04166667 </v>
   <v>       0.04166667 </v>
   <v>       0.04166667 </v>
   <v>       0.04166667 </v>
   <v>       0.04166667 </v>
   <v>       0.04166667 </v>
   <v>       0.04166667 </v>
   <v>       0.04166667 </v>
  </varray>
 </kpoints>
 <parameters>
  <separator name="general" >
   <i type="string" name="SYSTEM">unknown system</i>
   <i type="logical" name="LCOMPAT"> F  </i>
  </separator>
  <separator name="electronic" >
   <i type="string" name="PREC">accura</i>
   <i name="ENMAX">    600.00000000</i>
   <i name="ENAUG">    644.87300000</i>
   <i name="EDIFF">      0.00000100</i>
   <i type="int" name="IALGO">    68</i>
   <i type="int" name="IWAVPR">    11</i>
   <i type="int" name="NBANDS">    44</i>
   <i name="NELECT">     64.00000000</i>
   <i type="int" name="TURBO">     0</i>
   <i type="int" name="IRESTART">     0</i>
   <i type="int" name="NREBOOT">     0</i>
   <i type="int" name="NMIN">     0</i>
   <i name="EREF">      0.00000000</i>
   <separator name="electronic smearing" >
    <i type="int" name="ISMEAR">     0</i>
    <i name="SIGMA">      0.10000000</i>
    <i name="KSPACING">      0.50000000</i>
    <i type="logical" name="KGAMMA"> T  </i>
   </separator>
   <separator name="electronic projectors" >
    <i type="logical" name="LREAL"> F  </i>
    <v name="ROPT">      0.00000000      0.00000000      0.00000000      0.00000000</v>
    <i type="int" name="LMAXPAW">  -100</i>
    <i type="int" name="LMAXMIX">     2</i>
    <i type="logical" name="NLSPLINE"> F  </i>
   </separator>
   <separator name="electronic startup" >
    <i type="int" name="ISTART">     0</i>
    <i type="int" name="ICHARG">     2</i>
    <i type="int" name="INIWAV">     1</i>
   </separator>
   <separator name="electronic spin" >
    <i type="int" name="ISPIN">     1</i>
    <i type="logical" name="LNONCOLLINEAR"> F  </i>
    <v name="MAGMOM">      1.00000000      1.00000000      1.00000000      1.00000000      1.00000000      1.00000000      1.00000000      1.00000000      1.00000000      1.00000000      1.00000000      1.00000000      1.00000000      1.00000000      1.00000000      1.00000000</v>
    <i name="NUPDOWN">     -1.00000000</i>
    <i type="logical" name="LSORBIT"> F  </i>
    <v name="SAXIS">      0.00000000      0.00000000      1.00000000</v>
    <i type="logical" name="LSPIRAL"> F  </i>
    <v name="QSPIRAL">      0.00000000      0.00000000      0.00000000</v>
    <i type="logical" name="LZEROZ"> F  </i>
   </separator>
   <separator name="electronic exchange-correlation" >
    <i type="logical" name="LASPH"> F  </i>
    <i type="logical" name="LMETAGGA"> F  </i>
   </separator>
   <separator name="electronic convergence" >
    <i type="int" name="NELM">   100</i>
    <i type="int" name="NELMDL">     0</i>
    <i type="int" name="NELMIN">     4</i>
    <i name="ENINI">    600.00000000</i>
    <separator name="electronic convergence detail" >
     <i type="logical" name="LDIAG"> T  </i>
     <i type="logical" name="LSUBROT"> F  </i>
     <i name="WEIMIN">      0.00100000</i>
     <i name="EBREAK">      0.00000001</i>
     <i name="DEPER">      0.30000000</i>
     <i type="int" name="NRMM">     4</i>
     <i name="TIME">      0.40000000</i>
    </separator>
   </separator>
   <separator name="electronic mixer" >
    <i name="AMIX">      0.40000000</i>
    <i name="BMIX">      1.00000000</i>
    <i name="AMIN">      0.10000000</i>
    <i name="AMIX_MAG">      1.60000000</i>
    <i name="BMIX_MAG">      1.00000000</i>
    <separator name="electronic mixer details" >
     <i type="int" name="IMIX">     4</i>
     <i type="int" name="MAXMIX">   -45</i>
     <i name="WC">    100.00000000</i>
     <i type="int" name="INIMIX">     1</i>
     <i type="int" name="MIXPRE">     1</i>
     <i type="int" name="MREMOVE">     5</i>
    </separator>
   </separator>
   <separator name="electronic dipolcorrection" >
    <i type="logical" name="LDIPOL"> F  </i>
    <i type="logical" name="LMONO"> F  </i>
    <i type="int" name="IDIPOL">     0</i>
    <i name="EPSILON">      1.00000000</i>
    <v name="DIPOL">   -100.00000000   -100.00000000   -100.00000000</v>
    <i name="EFIELD">      0.00000000</i>
   </separator>
  </separator>
  <separator name="grids" >
   <i type="int" name="NGX">    48</i>
   <i type="int" name="NGY">    48</i>
   <i type="int" name="NGZ">    50</i>
   <i type="int" name="NGXF">    96</i>
   <i type="int" name="NGYF">    96</i>
   <i type="int" name="NGZF">   100</i>
   <i type="logical" name="ADDGRID"> T  </i>
  </separator>
  <separator name="ionic" >
   <i type="int" name="NSW">    30</i>
   <i type="int" name="IBRION">     2</i>
   <i type="int" name="ISIF">     3</i>
   <i name="PSTRESS">      0.00000000</i>
   <i name="EDIFFG">     -0.02000000</i>
   <i type="int" name="NFREE">     1</i>
   <i name="POTIM">      0.50000000</i>
   <i name="SMASS">     -3.00000000</i>
   <i name="SCALEE">      1.00000000</i>
  </separator>
  <separator name="ionic md" >
   <i name="TEBEG">      0.00010000</i>
   <i name="TEEND">      0.00010000</i>
   <i type="int" name="NBLOCK">     1</i>
   <i type="int" name="KBLOCK">    30</i>
   <i type="int" name="NPACO">   256</i>
   <i name="APACO">     16.00000000</i>
  </separator>
  <separator name="symmetry" >
   <i type="int" name="ISYM">     2</i>
   <i name="SYMPREC">      0.00001000</i>
  </separator>
  <separator name="dos" >
   <i type="logical" name="LORBIT"> F  </i>
   <v name="RWIGS">     -1.00000000     -1.00000000     -1.00000000     -1.00000000</v>
   <i type="int" name="NEDOS">   301</i>
   <i name="EMIN">     10.00000000</i>
   <i name="EMAX">    -10.00000000</i>
   <i name="EFERMI">      0.00000000</i>
  </separator>
  <separator name="writing" >
   <i type="int" name="NWRITE">     2</i>
   <i type="logical" name="LWAVE"> F  </i>
   <i type="logical" name="LCHARG"> F  </i>
   <i type="logical" name="LPARD"> F  </i>
   <i type="logical" name="LVTOT"> F  </i>
   <i type="logical" name="LVHAR"> F  </i>
   <i type="logical" name="LELF"> F  </i>
   <i type="logical" name="LOPTICS"> F  </i>
   <v name="STM">      0.00000000      0.00000000      0.00000000      0.00000000      0.00000000      0.00000000      0.00000000</v>
  </separator>
  <separator name="performance" >
   <i type="int" name="NPAR">     4</i>
   <i type="int" name="NSIM">     4</i>
   <i type="int" name="NBLK">    -1</i>
   <i type="logical" name="LPLANE"> T  </i>
   <i type="logical" name="LSCALAPACK"> T  </i>
   <i type="logical" name="LSCAAWARE"> F  </i>
   <i type="logical" name="LSCALU"> F  </i>
   <i type="logical" name="LASYNC"> F  </i>
   <i type="logical" name="LORBITALREAL"> F  </i>
  </separator>
  <separator name="miscellaneous" >
   <i type="int" name="IDIOT">     3</i>
   <i type="logical" name="LMUSIC"> F  </i>
   <v name="POMASS">     28.08500000     26.98100000     12.01100000     14.00100000</v>
   <v name="DARWINR">      0.00000000      0.00000000      0.00000000      0.00000000</v>
   <v name="DARWINV">      1.00000000      1.00000000      1.00000000      1.00000000</v>
   <i type="logical" name="LCORR"> T  </i>
  </separator>
  <i type="logical" name="GGA_COMPAT"> T  </i>
  <i type="logical" name="LBERRY"> F  </i>
  <i type="int" name="ICORELEVEL">     0</i>
  <i type="logical" name="LDAU"> F  </i>
  <i type="int" name="I_CONSTRAINED_M">     0</i>
  <separator name="electronic exchange-correlation" >
   <i type="string" name="GGA">--</i>
   <i type="int" name="VOSKOWN">     0</i>
   <i type="logical" name="LHFCALC"> F  </i>
   <i type="string" name="PRECFOCK"></i>
   <i type="logical" name="LSYMGRAD"> F  </i>
   <i type="logical" name="LHFONE"> F  </i>
   <i type="logical" name="LRHFCALC"> F  </i>
   <i type="logical" name="LTHOMAS"> F  </i>
   <i type="logical" name="LMODELHF"> F  </i>
   <i name="ENCUT4O">     -1.00000000</i>
   <i type="int" name="EXXOEP">     0</i>
   <i type="int" name="FOURORBIT">     0</i>
   <i name="AEXX">      0.00000000</i>
   <i name="HFALPHA">      0.00000000</i>
   <i name="MCALPHA">      0.00000000</i>
   <i name="ALDAX">      1.00000000</i>
   <i name="AGGAX">      1.00000000</i>
   <i name="ALDAC">      1.00000000</i>
   <i name="AGGAC">      1.00000000</i>
   <i type="int" name="NKREDX">     1</i>
   <i type="int" name="NKREDY">     1</i>
   <i type="int" name="NKREDZ">     1</i>
   <i type="logical" name="SHIFTRED"> F  </i>
   <i type="logical" name="ODDONLY"> F  </i>
   <i type="logical" name="EVENONLY"> F  </i>
   <i type="int" name="LMAXFOCK">     0</i>
   <i type="int" name="NMAXFOCKAE">     0</i>
   <i type="logical" name="LFOCKAEDFT"> F  </i>
   <i name="HFSCREEN">      0.00000000</i>
   <i name="HFSCREENC">      0.00000000</i>
   <i type="int" name="NBANDSGWLOW">     0</i>
  </separator>
  <separator name="vdW DFT" >
   <i type="logical" name="LUSE_VDW"> F  </i>
   <i name="Zab_VDW">     -0.84910000</i>
   <i name="PARAM1">      0.12340000</i>
   <i name="PARAM2">      1.00000000</i>
   <i name="PARAM3">      0.00000000</i>
  </separator>
  <separator name="model GW" >
   <i type="int" name="MODEL_GW">     0</i>
   <i name="MODEL_EPS0">      6.35491879</i>
   <i name="MODEL_ALPHA">      1.00000000</i>
  </separator>
  <separator name="linear response parameters" >
   <i type="logical" name="LEPSILON"> F  </i>
   <i type="logical" name="LRPA"> F  </i>
   <i type="logical" name="LNABLA"> F  </i>
   <i type="logical" name="LVEL"> F  </i>
   <i type="int" name="KINTER">     0</i>
   <i name="CSHIFT">      0.10000000</i>
   <i name="OMEGAMAX">     -1.00000000</i>
   <i name="DEG_THRESHOLD">      0.00200000</i>
  </separator>
  <separator name="orbital magnetization" >
   <i type="logical" name="NUCIND"> F  </i>
   <v name="MAGPOS">      0.00000000      0.00000000      0.00000000</v>
   <i type="logical" name="LNICSALL"> T  </i>
   <i type="logical" name="ORBITALMAG"> F  </i>
   <i type="logical" name="LMAGBLOCH"> F  </i>
   <i type="logical" name="LCHIMAG"> F  </i>
   <i type="logical" name="LGAUGE"> T  </i>
   <i type="int" name="MAGATOM">     0</i>
   <v name="MAGDIPOL">      0.00000000      0.00000000      0.00000000</v>
   <v name="AVECCONST">      0.00000000      0.00000000      0.00000000</v>
  </separator>
  <separator name="response functions" >
   <i type="logical" name="LADDER"> F  </i>
   <i type="logical" name="LFXC"> F  </i>
   <i type="logical" name="LHARTREE"> T  </i>
   <i type="int" name="IBSE">     0</i>
   <i type="logical" name="LTCTE"> F  </i>
   <i type="logical" name="LTETE"> F  </i>
   <i type="logical" name="LTRIPLET"> F  </i>
   <i type="logical" name="LFXCEPS"> F  </i>
   <i type="logical" name="LFXHEG"> F  </i>
   <i type="logical" name="L2ORDER"> F  </i>
   <i type="logical" name="LUSEW"> F  </i>
   <i name="ENCUTGW">     -2.00000000</i>
   <i name="ENCUTGWSOFT">     -2.00000000</i>
   <i name="ENCUTLF">     -1.00000000</i>
   <i type="int" name="LMAXMP2">    -1</i>
   <i name="SCISSOR">      0.00000000</i>
   <i type="int" name="NOMEGA">     0</i>
   <i type="int" name="NOMEGAR">     0</i>
   <i type="int" name="NBANDSGW">    -1</i>
   <i type="int" name="NBANDSO">    -1</i>
   <i type="int" name="NBANDSV">    -1</i>
   <i type="int" name="NELM">   100</i>
   <i type="int" name="DIM">     3</i>
   <i type="int" name="ANTIRES">     0</i>
   <i name="OMEGAMAX">    -30.00000000</i>
   <i name="OMEGAMIN">    -30.00000000</i>
   <i name="OMEGATL">   -200.00000000</i>
   <i type="int" name="OMEGAGRID">     0</i>
   <i name="CSHIFT">     -0.10000000</i>
   <i type="logical" name="SELFENERGY"> F  </i>
   <i type="logical" name="LSPECTRAL"> F  </i>
   <i type="logical" name="ODDONLYGW"> F  </i>
   <i type="logical" name="EVENONLYGW"> F  </i>
   <i type="int" name="NKREDLFX">     1</i>
   <i type="int" name="NKREDLFY">     1</i>
   <i type="int" name="NKREDLFZ">     1</i>
   <i type="int" name="MAXMEM">  1800</i>
   <i type="int" name="TELESCOPE">     0</i>
   <i type="int" name="TAUPAR">     1</i>
  </separator>
  <separator name="External order field" >
   <i name="OFIELD_KAPPA">      0.00000000</i>
   <v name="OFIELD_K">      0.00000000      0.00000000      0.00000000</v>
   <i name="OFIELD_Q6_NEAR">      0.00000000</i>
   <i name="OFIELD_Q6_FAR">      0.00000000</i>
   <i name="OFIELD_A">      0.00000000</i>
  </separator>
 </parameters>
 <atominfo>
  <atoms>      16 </atoms>
  <types>       4 </types>
  <array name="atoms" >
   <dimension dim="1">ion</dimension>
   <field type="string">element</field>
   <field type="int">atomtype</field>
   <set>
    <rc><c>Si</c><c>   1</c></rc>
    <rc><c>Si</c><c>   1</c></rc>
    <rc><c>Si</c><c>   1</c></rc>
    <rc><c>Si</c><c>   1</c></rc>
    <rc><c>Si</c><c>   1</c></rc>
    <rc><c>Si</c><c>   1</c></rc>
    <rc><c>Al</c><c>   2</c></rc>
    <rc><c>Al</c><c>   2</c></rc>
    <rc><c>C </c><c>   3</c></rc>
    <rc><c>C </c><c>   3</c></rc>
    <rc><c>C </c><c>   3</c></rc>
    <rc><c>C </c><c>   3</c></rc>
    <rc><c>C </c><c>   3</c></rc>
    <rc><c>C </c><c>   3</c></rc>
    <rc><c>N </c><c>   4</c></rc>
    <rc><c>N </c><c>   4</c></rc>
   </set>
  </array>
  <array name="atomtypes" >
   <dimension dim="1">type</dimension>
   <field type="int">atomspertype</field>
   <field type="string">element</field>
   <field>mass</field>
   <field>valence</field>
   <field type="string">pseudopotential</field>
   <set>
    <rc><c>   6</c><c>Si</c><c>     28.08500000</c><c>      4.00000000</c><c>  PAW_PBE Si 05Jan2001                  </c></rc>
    <rc><c>   2</c><c>Al</c><c>     26.98100000</c><c>      3.00000000</c><c>  PAW_PBE Al 04Jan2001                  </c></rc>
    <rc><c>   6</c><c>C </c><c>     12.01100000</c><c>      4.00000000</c><c>  PAW_PBE C 08Apr2002                   </c></rc>
    <rc><c>   2</c><c>N </c><c>     14.00100000</c><c>      5.00000000</c><c>  PAW_PBE N_s 07Sep2000                 </c></rc>
   </set>
  </array>
 </atominfo>
 <structure name="initialpos" >
  <crystal>
   <varray name="basis" >
    <v>       5.36756896       0.00132505       0.01556744 </v>
    <v>      -2.68232264       5.29155610       0.01738046 </v>
    <v>       0.01671976      -1.85444079       5.95695896 </v>
   </varray>
   <i name="volume">    169.46450103 </i>
   <varray name="rec_basis" >
    <v>       0.18619719       0.09428982       0.02883043 </v>
    <v>      -0.00021693       0.18867744       0.05873714 </v>
    <v>      -0.00048596      -0.00079691       0.16762417 </v>
   </varray>
  </crystal>
  <varray name="positions" >
   <v>       0.34806494       0.00528075       0.00249903 </v>
   <v>       0.82859074       0.00208452       0.75134893 </v>
   <v>       0.34126692       0.00317375       0.50196384 </v>
   <v>       0.41931403       0.50997397       0.87699145 </v>
   <v>       0.91743521       0.50084886       0.62920114 </v>
   <v>       0.41632500       0.49362582       0.37384554 </v>
   <v>       0.82307552       0.99167670       0.24646848 </v>
   <v>       0.91611538       0.50451695       0.12401731 </v>
   <v>       0.61170146       0.60360194       0.15225382 </v>
   <v>       0.15515828       0.63477468       0.89337363 </v>
   <v>       0.64925170       0.62435199       0.65132372 </v>
   <v>       0.72822313       0.11979108       0.01841357 </v>
   <v>       0.72798043       0.13120336       0.54468689 </v>
   <v>       0.23905959       0.12021041       0.28480189 </v>
   <v>       0.15538512       0.63260638       0.42289219 </v>
   <v>       0.22305256       0.12227885       0.77591855 </v>
  </varray>
 </structure>
 <calculation>
  <scstep>
   <time name="dav">    0.56    0.56</time>
   <time name="total">    0.62    0.63</time>
   <energy>
    <i name="alphaZ">     75.82784609 </i>
    <i name="ewald">  -2258.44400575 </i>
    <i name="hartreedc">   -273.53902085 </i>
    <i name="XCdc">     15.34655484 </i>
    <i name="pawpsdc">   1722.15218803 </i>
    <i name="pawaedc">  -1558.47049279 </i>
    <i name="eentropy">     -0.01097277 </i>
    <i name="bandstr">    411.35347277 </i>
    <i name="atom">   2137.47228169 </i>
    <i name="e_fr_energy">    271.68785126 </i>
    <i name="e_wo_entrp">    271.69882403 </i>
    <i name="e_0_energy">    271.69333765 </i>
   </energy>
  </scstep>
  <scstep>
   <time name="dav">    0.66    0.66</time>
   <time name="total">    0.66    0.67</time>
   <energy>
    <i name="e_fr_energy">   -106.91742744 </i>
    <i name="e_wo_entrp">   -106.91742744 </i>
    <i name="e_0_energy">   -106.91742744 </i>
   </energy>
  </scstep>
  <scstep>
   <time name="dav">    0.69    0.69</time>
   <time name="total">    0.69    0.71</time>
   <energy>
    <i name="e_fr_energy">   -133.57280814 </i>
    <i name="e_wo_entrp">   -133.57280814 </i>
    <i name="e_0_energy">   -133.57280814 </i>
   </energy>
  </scstep>
  <scstep>
   <time name="dav">    0.67    0.67</time>
   <time name="total">    0.67    0.69</time>
   <energy>
    <i name="e_fr_energy">   -134.26386075 </i>
    <i name="e_wo_entrp">   -134.26386075 </i>
    <i name="e_0_energy">   -134.26386075 </i>
   </energy>
  </scstep>
  <scstep>
   <time name="dav">    0.66    0.66</time>
   <time name="total">    0.73    0.75</time>
   <energy>
    <i name="e_fr_energy">   -134.28766786 </i>
    <i name="e_wo_entrp">   -134.28766786 </i>
    <i name="e_0_energy">   -134.28766786 </i>
   </energy>
  </scstep>
  <scstep>
   <time name="diag">    0.14    0.14</time>
   <time name="diis">    0.36    0.36</time>
   <time name="orth">    0.02    0.02</time>
   <time name="total">    0.65    0.66</time>
   <energy>
    <i name="e_fr_energy">   -117.70856490 </i>
    <i name="e_wo_entrp">   -117.70856490 </i>
    <i name="e_0_energy">   -117.70856490 </i>
   </energy>
  </scstep>
  <scstep>
   <time name="diag">    0.14    0.14</time>
   <time name="diis">    0.39    0.39</time>
   <time name="orth">    0.02    0.02</time>
   <time name="total">    0.67    0.69</time>
   <energy>
    <i name="e_fr_energy">   -117.54051341 </i>
    <i name="e_wo_entrp">   -117.54051341 </i>
    <i name="e_0_energy">   -117.54051341 </i>
   </energy>
  </scstep>
  <scstep>
   <time name="diag">    0.14    0.14</time>
   <time name="diis">    0.37    0.37</time>
   <time name="orth">    0.02    0.02</time>
   <time name="total">    0.65    0.66</time>
   <energy>
    <i name="e_fr_energy">   -117.44290398 </i>
    <i name="e_wo_entrp">   -117.44290398 </i>
    <i name="e_0_energy">   -117.44290398 </i>
   </energy>
  </scstep>
  <scstep>
   <time name="diag">    0.14    0.14</time>
   <time name="diis">    0.37    0.37</time>
   <time name="orth">    0.02    0.02</time>
   <time name="total">    0.65    0.67</time>
   <energy>
    <i name="e_fr_energy">   -117.44140004 </i>
    <i name="e_wo_entrp">   -117.44140004 </i>
    <i name="e_0_energy">   -117.44140004 </i>
   </energy>
  </scstep>
  <scstep>
   <time name="diag">    0.14    0.14</time>
   <time name="diis">    0.36    0.36</time>
   <time name="orth">    0.02    0.02</time>
   <time name="total">    0.64    0.66</time>
   <energy>
    <i name="e_fr_energy">   -117.43846979 </i>
    <i name="e_wo_entrp">   -117.43846979 </i>
    <i name="e_0_energy">   -117.43846979 </i>
   </energy>
  </scstep>
  <scstep>
   <time name="diag">    0.14    0.14</time>
   <time name="diis">    0.37    0.37</time>
   <time name="orth">    0.02    0.02</time>
   <time name="total">    0.65    0.66</time>
   <energy>
    <i name="e_fr_energy">   -117.43939527 </i>
    <i name="e_wo_entrp">   -117.43939527 </i>
    <i name="e_0_energy">   -117.43939527 </i>
   </energy>
  </scstep>
  <scstep>
   <time name="diag">    0.16    0.16</time>
   <time name="diis">    0.36    0.36</time>
   <time name="orth">    0.02    0.02</time>
   <time name="total">    0.67    0.68</time>
   <energy>
    <i name="e_fr_energy">   -117.43907043 </i>
    <i name="e_wo_entrp">   -117.43907043 </i>
    <i name="e_0_energy">   -117.43907043 </i>
   </energy>
  </scstep>
  <scstep>
   <time name="diag">    0.14    0.14</time>
   <time name="diis">    0.38    0.38</time>
   <time name="orth">    0.02    0.02</time>
   <time name="total">    0.66    0.67</time>
   <energy>
    <i name="e_fr_energy">   -117.43908367 </i>
    <i name="e_wo_entrp">   -117.43908367 </i>
    <i name="e_0_energy">   -117.43908367 </i>
   </energy>
  </scstep>
  <scstep>
   <time name="diag">    0.14    0.14</time>
   <time name="diis">    0.37    0.37</time>
   <time name="orth">    0.02    0.02</time>
   <time name="total">    0.65    0.67</time>
   <energy>
    <i name="e_fr_energy">   -117.43907815 </i>
    <i name="e_wo_entrp">   -117.43907815 </i>
    <i name="e_0_energy">   -117.43907815 </i>
   </energy>
  </scstep>
  <scstep>
   <time name="diag">    0.14    0.14</time>
   <time name="diis">    0.25    0.25</time>
   <time name="orth">    0.02    0.02</time>
   <time name="total">    0.45    0.47</time>
   <energy>
    <i name="alphaZ">     75.82784609 </i>
    <i name="ewald">  -2258.44400575 </i>
    <i name="hartreedc">   -368.49962808 </i>
    <i name="XCdc">     24.17587699 </i>
    <i name="pawpsdc">   8989.58101672 </i>
    <i name="pawaedc">  -8828.59997744 </i>
    <i name="eentropy">      0.00000000 </i>
    <i name="bandstr">    111.04751171 </i>
    <i name="atom">   2137.47228169 </i>
    <i name="e_fr_energy">   -117.43907807 </i>
    <i name="e_wo_entrp">   -117.43907807 </i>
    <i name="e_0_energy">   -117.43907807 </i>
   </energy>
  </scstep>
  <structure>
   <crystal>
    <varray name="basis" >
     <v>       5.36756896       0.00132505       0.01556744 </v>
     <v>      -2.68232264       5.29155610       0.01738046 </v>
     <v>       0.01671976      -1.85444079       5.95695896 </v>
    </varray>
    <i name="volume">    169.46450103 </i>
    <varray name="rec_basis" >
     <v>       0.18619719       0.09428982       0.02883043 </v>
     <v>      -0.00021693       0.18867744       0.05873714 </v>
     <v>      -0.00048596      -0.00079691       0.16762417 </v>
    </varray>
   </crystal>
   <varray name="positions" >
    <v>       0.34806494       0.00528075       0.00249903 </v>
    <v>       0.82859074       0.00208452       0.75134893 </v>
    <v>       0.34126692       0.00317375       0.50196384 </v>
    <v>       0.41931403       0.50997397       0.87699145 </v>
    <v>       0.91743521       0.50084886       0.62920114 </v>
    <v>       0.41632500       0.49362582       0.37384554 </v>
    <v>       0.82307552       0.99167670       0.24646848 </v>
    <v>       0.91611538       0.50451695       0.12401731 </v>
    <v>       0.61170146       0.60360194       0.15225382 </v>
    <v>       0.15515828       0.63477468       0.89337363 </v>
    <v>       0.64925170       0.62435199       0.65132372 </v>
    <v>       0.72822313       0.11979108       0.01841357 </v>
    <v>       0.72798043       0.13120336       0.54468689 </v>
    <v>       0.23905959       0.12021041       0.28480189 </v>
    <v>       0.15538512       0.63260638       0.42289219 </v>
    <v>       0.22305256       0.12227885       0.77591855 </v>
   </varray>
  </structure>
  <varray name="forces" >
   <v>       0.00574926      -0.00010522       0.00553568 </v>
   <v>      -0.00417278      -0.00508299       0.00714029 </v>
   <v>       0.00004305      -0.00044913      -0.00212234 </v>
   <v>       0.00414913       0.00087523       0.00339099 </v>
   <v>      -0.00368635       0.00186995      -0.00676238 </v>
   <v>       0.00356710       0.00225370       0.00123861 </v>
   <v>       0.00645273       0.00225628       0.00931538 </v>
   <v>      -0.00501057       0.00460171      -0.00289241 </v>
   <v>      -0.00961530       0.00439384      -0.00333127 </v>
   <v>      -0.00474413      -0.00237578      -0.00099112 </v>
   <v>      -0.00336870      -0.00515564      -0.00028360 </v>
   <v>       0.00665735      -0.00701181      -0.00528388 </v>
   <v>      -0.00011621      -0.00383219      -0.00145931 </v>
   <v>       0.00669037       0.00181740      -0.00177625 </v>
   <v>      -0.00553562       0.00262619       0.00115487 </v>
   <v>       0.00294067       0.00331847      -0.00287325 </v>
  </varray>
  <varray name="stress" >
   <v>      -0.02668844       0.03002546       0.17083692 </v>
   <v>       0.03002540      -0.10612856      -0.08883753 </v>
   <v>       0.17083707      -0.08883737      -0.04089948 </v>
  </varray>
  <energy>
   <i name="e_fr_energy">   -117.43907807 </i>
   <i name="e_wo_entrp">   -117.43907807 </i>
   <i name="e_0_energy">      0.00000000 </i>
  </energy>
  <time name="totalsc">   11.18   11.41</time>
  <eigenvalues>
   <array>
    <dimension dim="1">band</dimension>
    <dimension dim="2">kpoint</dimension>
    <dimension dim="3">spin</dimension>
    <field>eigene</field>
    <field>occ</field>
    <set>
     <set comment="spin 1">
      <set comment="kpoint 1">
       <r>   -8.9578    1.0000 </r>
       <r>   -7.7763    1.0000 </r>
       <r>   -5.3110    1.0000 </r>
       <r>   -3.9645    1.0000 </r>
       <r>   -3.8163    1.0000 </r>
       <r>   -3.4020    1.0000 </r>
       <r>   -2.7685    1.0000 </r>
       <r>   -2.4743    1.0000 </r>
       <r>   -0.8090    1.0000 </r>
       <r>   -0.3161    1.0000 </r>
       <r>   -0.2932    1.0000 </r>
       <r>    0.2629    1.0000 </r>
       <r>    1.2140    1.0000 </r>
       <r>    1.7583    1.0000 </r>
       <r>    2.1105    1.0000 </r>
       <r>    2.6914    1.0000 </r>
       <r>    3.0730    1.0000 </r>
       <r>    3.5419    1.0000 </r>
       <r>    3.9892    1.0000 </r>
       <r>    4.3726    1.0000 </r>
       <r>    4.5702    1.0000 </r>
       <r>    4.6780    1.0000 </r>
       <r>    5.0270    1.0000 </r>
       <r>    5.3133    1.0000 </r>
       <r>    5.3318    1.0000 </r>
       <r>    6.2556    1.0000 </r>
       <r>    6.4037    1.0000 </r>
       <r>    6.5917    1.0000 </r>
       <r>    6.9397    1.0000 </r>
       <r>    7.5152    1.0000 </r>
       <r>    7.6568    1.0000 </r>
       <r>    8.1379    1.0000 </r>
       <r>   10.5869    0.0000 </r>
       <r>   11.0422    0.0000 </r>
       <r>   11.9552    0.0000 </r>
       <r>   12.2844    0.0000 </r>
       <r>   12.4962    0.0000 </r>
       <r>   12.7144    0.0000 </r>
       <r>   13.0348    0.0000 </r>
       <r>   13.2355    0.0000 </r>
       <r>   13.7825    0.0000 </r>
       <r>   14.3080    0.0000 </r>
       <r>   14.6746    0.0000 </r>
       <r>   15.0873    0.0000 </r>
      </set>
      <set comment="kpoint 2">
       <r>   -8.8158    1.0000 </r>
       <r>   -7.7750    1.0000 </r>
       <r>   -5.5590    1.0000 </r>
       <r>   -4.2259    1.0000 </r>
       <r>   -3.7825    1.0000 </r>
       <r>   -3.5058    1.0000 </r>
       <r>   -3.0495    1.0000 </r>
       <r>   -2.4860    1.0000 </r>
       <r>   -0.4361    1.0000 </r>
       <r>   -0.1795    1.0000 </r>
       <r>    0.1314    1.0000 </r>
       <r>    0.5876    1.0000 </r>
       <r>    1.0468    1.0000 </r>
       <r>    1.5002    1.0000 </r>
       <r>    2.1574    1.0000 </r>
       <r>    2.6883    1.0000 </r>
       <r>    3.5239    1.0000 </r>
       <r>    3.7606    1.0000 </r>
       <r>    4.1561    1.0000 </r>
       <r>    4.5155    1.0000 </r>
       <r>    4.6395    1.0000 </r>
       <r>    4.8759    1.0000 </r>
       <r>    5.2865    1.0000 </r>
       <r>    5.4416    1.0000 </r>
       <r>    5.6178    1.0000 </r>
       <r>    5.7416    1.0000 </r>
       <r>    6.1450    1.0000 </r>
       <r>    6.2106    1.0000 </r>
       <r>    6.6351    1.0000 </r>
       <r>    6.8529    1.0000 </r>
       <r>    7.5484    1.0000 </r>
       <r>    7.9426    1.0000 </r>
       <r>   10.8627    0.0000 </r>
       <r>   11.1071    0.0000 </r>
       <r>   11.6854    0.0000 </r>
       <r>   11.9444    0.0000 </r>
       <r>   12.3770    0.0000 </r>
       <r>   12.7317    0.0000 </r>
       <r>   13.0509    0.0000 </r>
       <r>   13.4561    0.0000 </r>
       <r>   13.7382    0.0000 </r>
       <r>   14.0939    0.0000 </r>
       <r>   14.4823    0.0000 </r>
       <r>   14.7848    0.0000 </r>
      </set>
      <set comment="kpoint 3">
       <r>   -8.6467    1.0000 </r>
       <r>   -7.7731    1.0000 </r>
       <r>   -5.8835    1.0000 </r>
       <r>   -4.3529    1.0000 </r>
       <r>   -3.8229    1.0000 </r>
       <r>   -3.6842    1.0000 </r>
       <r>   -2.9834    1.0000 </r>
       <r>   -2.5463    1.0000 </r>
       <r>   -0.5154    1.0000 </r>
       <r>   -0.1795    1.0000 </r>
       <r>    0.3123    1.0000 </r>
       <r>    0.9148    1.0000 </r>
       <r>    1.3716    1.0000 </r>
       <r>    1.8846    1.0000 </r>
       <r>    2.4256    1.0000 </r>
       <r>    3.0699    1.0000 </r>
       <r>    3.2076    1.0000 </r>
       <r>    3.8468    1.0000 </r>
       <r>    3.9918    1.0000 </r>
       <r>    4.3846    1.0000 </r>
       <r>    4.4861    1.0000 </r>
       <r>    4.9148    1.0000 </r>
       <r>    5.2298    1.0000 </r>
       <r>    5.4208    1.0000 </r>
       <r>    5.6779    1.0000 </r>
       <r>    5.8380    1.0000 </r>
       <r>    6.0418    1.0000 </r>
       <r>    6.2627    1.0000 </r>
       <r>    6.6563    1.0000 </r>
       <r>    6.8184    1.0000 </r>
       <r>    7.3942    1.0000 </r>
       <r>    7.7686    1.0000 </r>
       <r>   10.7485    0.0000 </r>
       <r>   10.9268    0.0000 </r>
       <r>   11.3385    0.0000 </r>
       <r>   11.4847    0.0000 </r>
       <r>   12.0748    0.0000 </r>
       <r>   12.4331    0.0000 </r>
       <r>   12.9420    0.0000 </r>
       <r>   13.4420    0.0000 </r>
       <r>   13.5689    0.0000 </r>
       <r>   13.7373    0.0000 </r>
       <r>   14.4582    0.0000 </r>
       <r>   14.5786    0.0000 </r>
      </set>
      <set comment="kpoint 4">
       <r>   -8.8047    1.0000 </r>
       <r>   -7.8889    1.0000 </r>
       <r>   -5.3180    1.0000 </r>
       <r>   -4.4897    1.0000 </r>
       <r>   -4.0105    1.0000 </r>
       <r>   -3.3520    1.0000 </r>
       <r>   -2.9133    1.0000 </r>
       <r>   -2.2391    1.0000 </r>
       <r>   -0.4398    1.0000 </r>
       <r>    0.0801    1.0000 </r>
       <r>    0.3704    1.0000 </r>
       <r>    0.5941    1.0000 </r>
       <r>    1.1251    1.0000 </r>
       <r>    1.9212    1.0000 </r>
       <r>    2.2684    1.0000 </r>
       <r>    2.5514    1.0000 </r>
       <r>    2.9680    1.0000 </r>
       <r>    3.4123    1.0000 </r>
       <r>    3.7188    1.0000 </r>
       <r>    3.8104    1.0000 </r>
       <r>    4.3025    1.0000 </r>
       <r>    4.5522    1.0000 </r>
       <r>    4.9276    1.0000 </r>
       <r>    5.3647    1.0000 </r>
       <r>    5.6660    1.0000 </r>
       <r>    5.9030    1.0000 </r>
       <r>    6.3543    1.0000 </r>
       <r>    6.7224    1.0000 </r>
       <r>    6.8844    1.0000 </r>
       <r>    7.2143    1.0000 </r>
       <r>    7.4176    1.0000 </r>
       <r>    7.6894    1.0000 </r>
       <r>   10.6531    0.0000 </r>
       <r>   11.0867    0.0000 </r>
       <r>   11.3600    0.0000 </r>
       <r>   12.4118    0.0000 </r>
       <r>   12.6757    0.0000 </r>
       <r>   13.0124    0.0000 </r>
       <r>   13.6319    0.0000 </r>
       <r>   14.0746    0.0000 </r>
       <r>   14.4584    0.0000 </r>
       <r>   14.6016    0.0000 </r>
       <r>   14.8805    0.0000 </r>
       <r>   15.1490    0.0000 </r>
      </set>
      <set comment="kpoint 5">
       <r>   -8.6252    1.0000 </r>
       <r>   -7.9128    1.0000 </r>
       <r>   -5.5893    1.0000 </r>
       <r>   -4.7168    1.0000 </r>
       <r>   -4.1900    1.0000 </r>
       <r>   -3.3254    1.0000 </r>
       <r>   -2.7310    1.0000 </r>
       <r>   -2.3738    1.0000 </r>
       <r>   -0.3205    1.0000 </r>
       <r>    0.0556    1.0000 </r>
       <r>    0.3248    1.0000 </r>
       <r>    0.9937    1.0000 </r>
       <r>    1.5775    1.0000 </r>
       <r>    1.8351    1.0000 </r>
       <r>    2.1991    1.0000 </r>
       <r>    2.5845    1.0000 </r>
       <r>    3.0296    1.0000 </r>
       <r>    3.6828    1.0000 </r>
       <r>    4.1200    1.0000 </r>
       <r>    4.2926    1.0000 </r>
       <r>    4.3927    1.0000 </r>
       <r>    4.5497    1.0000 </r>
       <r>    4.9157    1.0000 </r>
       <r>    5.3811    1.0000 </r>
       <r>    5.5359    1.0000 </r>
       <r>    5.9523    1.0000 </r>
       <r>    6.1087    1.0000 </r>
       <r>    6.2721    1.0000 </r>
       <r>    6.4939    1.0000 </r>
       <r>    6.8218    1.0000 </r>
       <r>    7.1404    1.0000 </r>
       <r>    7.5553    1.0000 </r>
       <r>   10.9777    0.0000 </r>
       <r>   11.2946    0.0000 </r>
       <r>   11.7212    0.0000 </r>
       <r>   12.0604    0.0000 </r>
       <r>   12.2709    0.0000 </r>
       <r>   12.7058    0.0000 </r>
       <r>   13.5650    0.0000 </r>
       <r>   13.7843    0.0000 </r>
       <r>   14.0789    0.0000 </r>
       <r>   14.3275    0.0000 </r>
       <r>   14.5016    0.0000 </r>
       <r>   15.0684    0.0000 </r>
      </set>
      <set comment="kpoint 6">
       <r>   -8.6042    1.0000 </r>
       <r>   -7.8753    1.0000 </r>
       <r>   -5.6200    1.0000 </r>
       <r>   -4.6610    1.0000 </r>
       <r>   -4.1337    1.0000 </r>
       <r>   -3.2002    1.0000 </r>
       <r>   -3.0325    1.0000 </r>
       <r>   -2.5000    1.0000 </r>
       <r>   -0.6418    1.0000 </r>
       <r>   -0.1520    1.0000 </r>
       <r>    0.4712    1.0000 </r>
       <r>    0.6894    1.0000 </r>
       <r>    1.1399    1.0000 </r>
       <r>    2.3063    1.0000 </r>
       <r>    2.5422    1.0000 </r>
       <r>    2.7846    1.0000 </r>
       <r>    3.5524    1.0000 </r>
       <r>    3.6907    1.0000 </r>
       <r>    4.0134    1.0000 </r>
       <r>    4.4726    1.0000 </r>
       <r>    4.6720    1.0000 </r>
       <r>    4.9502    1.0000 </r>
       <r>    5.1221    1.0000 </r>
       <r>    5.3426    1.0000 </r>
       <r>    5.5515    1.0000 </r>
       <r>    5.7472    1.0000 </r>
       <r>    6.0052    1.0000 </r>
       <r>    6.2280    1.0000 </r>
       <r>    6.5676    1.0000 </r>
       <r>    6.9349    1.0000 </r>
       <r>    7.3299    1.0000 </r>
       <r>    7.5687    1.0000 </r>
       <r>   10.6657    0.0000 </r>
       <r>   11.0804    0.0000 </r>
       <r>   11.3473    0.0000 </r>
       <r>   11.5243    0.0000 </r>
       <r>   11.7955    0.0000 </r>
       <r>   12.4680    0.0000 </r>
       <r>   12.9479    0.0000 </r>
       <r>   13.6179    0.0000 </r>
       <r>   14.0639    0.0000 </r>
       <r>   14.3657    0.0000 </r>
       <r>   14.7924    0.0000 </r>
       <r>   15.0685    0.0000 </r>
      </set>
      <set comment="kpoint 7">
       <r>   -8.7865    1.0000 </r>
       <r>   -7.8541    1.0000 </r>
       <r>   -5.3179    1.0000 </r>
       <r>   -4.3638    1.0000 </r>
       <r>   -3.8330    1.0000 </r>
       <r>   -3.7174    1.0000 </r>
       <r>   -2.9778    1.0000 </r>
       <r>   -2.3971    1.0000 </r>
       <r>   -0.3761    1.0000 </r>
       <r>   -0.1804    1.0000 </r>
       <r>    0.2286    1.0000 </r>
       <r>    0.6889    1.0000 </r>
       <r>    0.8582    1.0000 </r>
       <r>    1.5953    1.0000 </r>
       <r>    2.0209    1.0000 </r>
       <r>    2.8678    1.0000 </r>
       <r>    3.4705    1.0000 </r>
       <r>    3.7743    1.0000 </r>
       <r>    4.1812    1.0000 </r>
       <r>    4.4853    1.0000 </r>
       <r>    4.6365    1.0000 </r>
       <r>    4.8790    1.0000 </r>
       <r>    4.9388    1.0000 </r>
       <r>    5.2840    1.0000 </r>
       <r>    5.6294    1.0000 </r>
       <r>    5.9105    1.0000 </r>
       <r>    6.1009    1.0000 </r>
       <r>    6.3865    1.0000 </r>
       <r>    6.6786    1.0000 </r>
       <r>    6.9818    1.0000 </r>
       <r>    7.5166    1.0000 </r>
       <r>    7.7829    1.0000 </r>
       <r>   10.6935    0.0000 </r>
       <r>   11.5160    0.0000 </r>
       <r>   11.6905    0.0000 </r>
       <r>   11.8979    0.0000 </r>
       <r>   12.3658    0.0000 </r>
       <r>   12.6191    0.0000 </r>
       <r>   13.1441    0.0000 </r>
       <r>   13.3320    0.0000 </r>
       <r>   13.8125    0.0000 </r>
       <r>   14.2402    0.0000 </r>
       <r>   14.4607    0.0000 </r>
       <r>   15.1613    0.0000 </r>
      </set>
      <set comment="kpoint 8">
       <r>   -8.5716    1.0000 </r>
       <r>   -8.0814    1.0000 </r>
       <r>   -5.3086    1.0000 </r>
       <r>   -4.9086    1.0000 </r>
       <r>   -4.1838    1.0000 </r>
       <r>   -3.4013    1.0000 </r>
       <r>   -2.6891    1.0000 </r>
       <r>   -2.2956    1.0000 </r>
       <r>   -0.1535    1.0000 </r>
       <r>    0.2109    1.0000 </r>
       <r>    0.7140    1.0000 </r>
       <r>    1.3884    1.0000 </r>
       <r>    1.6705    1.0000 </r>
       <r>    1.9230    1.0000 </r>
       <r>    2.2398    1.0000 </r>
       <r>    2.7087    1.0000 </r>
       <r>    2.7206    1.0000 </r>
       <r>    3.3760    1.0000 </r>
       <r>    3.4103    1.0000 </r>
       <r>    3.7754    1.0000 </r>
       <r>    3.9066    1.0000 </r>
       <r>    4.1042    1.0000 </r>
       <r>    4.7956    1.0000 </r>
       <r>    5.0010    1.0000 </r>
       <r>    5.4721    1.0000 </r>
       <r>    5.7680    1.0000 </r>
       <r>    6.2372    1.0000 </r>
       <r>    6.5230    1.0000 </r>
       <r>    6.9051    1.0000 </r>
       <r>    7.0564    1.0000 </r>
       <r>    7.1970    1.0000 </r>
       <r>    7.6201    1.0000 </r>
       <r>   10.6561    0.0000 </r>
       <r>   11.7938    0.0000 </r>
       <r>   12.0340    0.0000 </r>
       <r>   12.2858    0.0000 </r>
       <r>   12.8537    0.0000 </r>
       <r>   13.0288    0.0000 </r>
       <r>   13.5841    0.0000 </r>
       <r>   13.9998    0.0000 </r>
       <r>   14.4019    0.0000 </r>
       <r>   14.5833    0.0000 </r>
       <r>   14.7688    0.0000 </r>
       <r>   15.2022    0.0000 </r>
      </set>
      <set comment="kpoint 9">
       <r>   -8.5678    1.0000 </r>
       <r>   -8.0221    1.0000 </r>
       <r>   -5.2043    1.0000 </r>
       <r>   -5.0101    1.0000 </r>
       <r>   -4.2556    1.0000 </r>
       <r>   -3.3307    1.0000 </r>
       <r>   -2.8981    1.0000 </r>
       <r>   -2.2330    1.0000 </r>
       <r>   -0.3842    1.0000 </r>
       <r>    0.0517    1.0000 </r>
       <r>    0.7497    1.0000 </r>
       <r>    1.0092    1.0000 </r>
       <r>    1.4199    1.0000 </r>
       <r>    1.9287    1.0000 </r>
       <r>    2.0400    1.0000 </r>
       <r>    2.4562    1.0000 </r>
       <r>    3.1563    1.0000 </r>
       <r>    3.6252    1.0000 </r>
       <r>    3.9132    1.0000 </r>
       <r>    4.2793    1.0000 </r>
       <r>    4.4554    1.0000 </r>
       <r>    4.6386    1.0000 </r>
       <r>    4.8547    1.0000 </r>
       <r>    5.4106    1.0000 </r>
       <r>    5.5768    1.0000 </r>
       <r>    5.8525    1.0000 </r>
       <r>    6.1995    1.0000 </r>
       <r>    6.2880    1.0000 </r>
       <r>    6.6143    1.0000 </r>
       <r>    6.8648    1.0000 </r>
       <r>    6.9694    1.0000 </r>
       <r>    7.4920    1.0000 </r>
       <r>   10.9346    0.0000 </r>
       <r>   11.3317    0.0000 </r>
       <r>   11.8465    0.0000 </r>
       <r>   12.0115    0.0000 </r>
       <r>   12.4358    0.0000 </r>
       <r>   12.6947    0.0000 </r>
       <r>   13.5149    0.0000 </r>
       <r>   13.6852    0.0000 </r>
       <r>   14.1335    0.0000 </r>
       <r>   14.3825    0.0000 </r>
       <r>   14.7635    0.0000 </r>
       <r>   14.9711    0.0000 </r>
      </set>
      <set comment="kpoint 10">
       <r>   -8.5377    1.0000 </r>
       <r>   -8.0041    1.0000 </r>
       <r>   -5.1705    1.0000 </r>
       <r>   -5.0678    1.0000 </r>
       <r>   -3.7808    1.0000 </r>
       <r>   -3.7111    1.0000 </r>
       <r>   -3.0706    1.0000 </r>
       <r>   -2.4640    1.0000 </r>
       <r>   -0.5022    1.0000 </r>
       <r>   -0.1364    1.0000 </r>
       <r>    0.6530    1.0000 </r>
       <r>    0.9339    1.0000 </r>
       <r>    1.3024    1.0000 </r>
       <r>    1.8284    1.0000 </r>
       <r>    2.6702    1.0000 </r>
       <r>    2.8282    1.0000 </r>
       <r>    3.0455    1.0000 </r>
       <r>    3.7909    1.0000 </r>
       <r>    4.1175    1.0000 </r>
       <r>    4.2535    1.0000 </r>
       <r>    4.5243    1.0000 </r>
       <r>    4.9186    1.0000 </r>
       <r>    5.0840    1.0000 </r>
       <r>    5.3839    1.0000 </r>
       <r>    5.5915    1.0000 </r>
       <r>    5.8196    1.0000 </r>
       <r>    6.0950    1.0000 </r>
       <r>    6.3881    1.0000 </r>
       <r>    6.6662    1.0000 </r>
       <r>    7.1285    1.0000 </r>
       <r>    7.3019    1.0000 </r>
       <r>    7.4209    1.0000 </r>
       <r>   10.8557    0.0000 </r>
       <r>   10.9805    0.0000 </r>
       <r>   11.2844    0.0000 </r>
       <r>   11.6951    0.0000 </r>
       <r>   12.2828    0.0000 </r>
       <r>   12.3311    0.0000 </r>
       <r>   12.9245    0.0000 </r>
       <r>   13.3248    0.0000 </r>
       <r>   13.4691    0.0000 </r>
       <r>   13.6726    0.0000 </r>
       <r>   14.2319    0.0000 </r>
       <r>   14.8456    0.0000 </r>
      </set>
      <set comment="kpoint 11">
       <r>   -8.8335    1.0000 </r>
       <r>   -7.9103    1.0000 </r>
       <r>   -5.3032    1.0000 </r>
       <r>   -4.7959    1.0000 </r>
       <r>   -3.3663    1.0000 </r>
       <r>   -2.9932    1.0000 </r>
       <r>   -2.7138    1.0000 </r>
       <r>   -2.5530    1.0000 </r>
       <r>   -0.6085    1.0000 </r>
       <r>   -0.3415    1.0000 </r>
       <r>   -0.0670    1.0000 </r>
       <r>    0.5654    1.0000 </r>
       <r>    1.2477    1.0000 </r>
       <r>    1.7320    1.0000 </r>
       <r>    2.1572    1.0000 </r>
       <r>    2.7921    1.0000 </r>
       <r>    2.9297    1.0000 </r>
       <r>    3.3643    1.0000 </r>
       <r>    3.7038    1.0000 </r>
       <r>    3.8749    1.0000 </r>
       <r>    4.5252    1.0000 </r>
       <r>    4.7105    1.0000 </r>
       <r>    5.1139    1.0000 </r>
       <r>    5.3372    1.0000 </r>
       <r>    5.6068    1.0000 </r>
       <r>    5.8180    1.0000 </r>
       <r>    6.0753    1.0000 </r>
       <r>    6.5392    1.0000 </r>
       <r>    6.6593    1.0000 </r>
       <r>    7.0604    1.0000 </r>
       <r>    7.4030    1.0000 </r>
       <r>    8.0828    1.0000 </r>
       <r>   11.3854    0.0000 </r>
       <r>   11.9545    0.0000 </r>
       <r>   12.2934    0.0000 </r>
       <r>   12.8360    0.0000 </r>
       <r>   13.1656    0.0000 </r>
       <r>   13.3093    0.0000 </r>
       <r>   13.5066    0.0000 </r>
       <r>   13.7166    0.0000 </r>
       <r>   13.9422    0.0000 </r>
       <r>   14.1980    0.0000 </r>
       <r>   14.3219    0.0000 </r>
       <r>   14.7210    0.0000 </r>
      </set>
      <set comment="kpoint 12">
       <r>   -8.6977    1.0000 </r>
       <r>   -7.8900    1.0000 </r>
       <r>   -5.3493    1.0000 </r>
       <r>   -5.0505    1.0000 </r>
       <r>   -3.7498    1.0000 </r>
       <r>   -3.2040    1.0000 </r>
       <r>   -2.8072    1.0000 </r>
       <r>   -2.6186    1.0000 </r>
       <r>   -0.1783    1.0000 </r>
       <r>   -0.0417    1.0000 </r>
       <r>    0.4439    1.0000 </r>
       <r>    0.6447    1.0000 </r>
       <r>    1.4496    1.0000 </r>
       <r>    1.7600    1.0000 </r>
       <r>    2.3160    1.0000 </r>
       <r>    2.9655    1.0000 </r>
       <r>    3.1648    1.0000 </r>
       <r>    3.5223    1.0000 </r>
       <r>    3.7474    1.0000 </r>
       <r>    4.0558    1.0000 </r>
       <r>    4.1711    1.0000 </r>
       <r>    4.4939    1.0000 </r>
       <r>    4.8642    1.0000 </r>
       <r>    5.1611    1.0000 </r>
       <r>    5.6130    1.0000 </r>
       <r>    5.7727    1.0000 </r>
       <r>    5.9837    1.0000 </r>
       <r>    6.2372    1.0000 </r>
       <r>    6.7577    1.0000 </r>
       <r>    6.8946    1.0000 </r>
       <r>    7.3450    1.0000 </r>
       <r>    7.9226    1.0000 </r>
       <r>   11.5177    0.0000 </r>
       <r>   11.7947    0.0000 </r>
       <r>   11.9963    0.0000 </r>
       <r>   12.4834    0.0000 </r>
       <r>   12.7574    0.0000 </r>
       <r>   13.0608    0.0000 </r>
       <r>   13.1429    0.0000 </r>
       <r>   13.7802    0.0000 </r>
       <r>   14.0229    0.0000 </r>
       <r>   14.4021    0.0000 </r>
       <r>   14.4457    0.0000 </r>
       <r>   14.9286    0.0000 </r>
      </set>
      <set comment="kpoint 13">
       <r>   -8.5675    1.0000 </r>
       <r>   -7.8427    1.0000 </r>
       <r>   -5.6890    1.0000 </r>
       <r>   -4.7481    1.0000 </r>
       <r>   -3.9926    1.0000 </r>
       <r>   -3.5940    1.0000 </r>
       <r>   -3.1904    1.0000 </r>
       <r>   -2.7242    1.0000 </r>
       <r>    0.0259    1.0000 </r>
       <r>    0.3589    1.0000 </r>
       <r>    0.9215    1.0000 </r>
       <r>    1.2846    1.0000 </r>
       <r>    1.5863    1.0000 </r>
       <r>    2.0911    1.0000 </r>
       <r>    2.3434    1.0000 </r>
       <r>    2.8609    1.0000 </r>
       <r>    3.2137    1.0000 </r>
       <r>    3.4542    1.0000 </r>
       <r>    3.7490    1.0000 </r>
       <r>    4.1045    1.0000 </r>
       <r>    4.4646    1.0000 </r>
       <r>    4.6555    1.0000 </r>
       <r>    4.9904    1.0000 </r>
       <r>    5.1406    1.0000 </r>
       <r>    5.3156    1.0000 </r>
       <r>    5.5527    1.0000 </r>
       <r>    5.9469    1.0000 </r>
       <r>    6.0530    1.0000 </r>
       <r>    6.3317    1.0000 </r>
       <r>    6.6114    1.0000 </r>
       <r>    6.7521    1.0000 </r>
       <r>    7.8413    1.0000 </r>
       <r>   11.2417    0.0000 </r>
       <r>   11.7441    0.0000 </r>
       <r>   12.1244    0.0000 </r>
       <r>   12.2880    0.0000 </r>
       <r>   12.6864    0.0000 </r>
       <r>   12.8993    0.0000 </r>
       <r>   13.3228    0.0000 </r>
       <r>   13.4361    0.0000 </r>
       <r>   13.8625    0.0000 </r>
       <r>   14.3796    0.0000 </r>
       <r>   14.6639    0.0000 </r>
       <r>   15.1794    0.0000 </r>
      </set>
      <set comment="kpoint 14">
       <r>   -8.7226    1.0000 </r>
       <r>   -7.8633    1.0000 </r>
       <r>   -5.4931    1.0000 </r>
       <r>   -4.6516    1.0000 </r>
       <r>   -3.7189    1.0000 </r>
       <r>   -3.3129    1.0000 </r>
       <r>   -3.1419    1.0000 </r>
       <r>   -2.7006    1.0000 </r>
       <r>   -0.2529    1.0000 </r>
       <r>   -0.0327    1.0000 </r>
       <r>    0.5258    1.0000 </r>
       <r>    0.7823    1.0000 </r>
       <r>    1.5171    1.0000 </r>
       <r>    1.8905    1.0000 </r>
       <r>    2.5450    1.0000 </r>
       <r>    2.9531    1.0000 </r>
       <r>    3.1351    1.0000 </r>
       <r>    3.5950    1.0000 </r>
       <r>    3.7473    1.0000 </r>
       <r>    4.0314    1.0000 </r>
       <r>    4.2918    1.0000 </r>
       <r>    4.5919    1.0000 </r>
       <r>    4.7474    1.0000 </r>
       <r>    5.1585    1.0000 </r>
       <r>    5.3323    1.0000 </r>
       <r>    5.6342    1.0000 </r>
       <r>    6.0878    1.0000 </r>
       <r>    6.2763    1.0000 </r>
       <r>    6.5913    1.0000 </r>
       <r>    6.7761    1.0000 </r>
       <r>    7.2847    1.0000 </r>
       <r>    7.9443    1.0000 </r>
       <r>   11.2400    0.0000 </r>
       <r>   11.6477    0.0000 </r>
       <r>   11.9086    0.0000 </r>
       <r>   12.4492    0.0000 </r>
       <r>   12.7096    0.0000 </r>
       <r>   13.0759    0.0000 </r>
       <r>   13.7164    0.0000 </r>
       <r>   13.8542    0.0000 </r>
       <r>   13.9780    0.0000 </r>
       <r>   14.2945    0.0000 </r>
       <r>   14.6754    0.0000 </r>
       <r>   14.8597    0.0000 </r>
      </set>
      <set comment="kpoint 15">
       <r>   -8.6804    1.0000 </r>
       <r>   -7.9890    1.0000 </r>
       <r>   -5.3908    1.0000 </r>
       <r>   -4.9416    1.0000 </r>
       <r>   -4.0416    1.0000 </r>
       <r>   -2.8786    1.0000 </r>
       <r>   -2.6890    1.0000 </r>
       <r>   -2.3256    1.0000 </r>
       <r>   -0.3738    1.0000 </r>
       <r>   -0.0978    1.0000 </r>
       <r>    0.5056    1.0000 </r>
       <r>    1.0002    1.0000 </r>
       <r>    1.5261    1.0000 </r>
       <r>    1.8460    1.0000 </r>
       <r>    2.3612    1.0000 </r>
       <r>    2.3821    1.0000 </r>
       <r>    2.9080    1.0000 </r>
       <r>    3.2540    1.0000 </r>
       <r>    3.4007    1.0000 </r>
       <r>    3.9588    1.0000 </r>
       <r>    4.4012    1.0000 </r>
       <r>    4.6529    1.0000 </r>
       <r>    4.9204    1.0000 </r>
       <r>    5.1412    1.0000 </r>
       <r>    5.4274    1.0000 </r>
       <r>    5.8215    1.0000 </r>
       <r>    5.9800    1.0000 </r>
       <r>    6.2728    1.0000 </r>
       <r>    6.5565    1.0000 </r>
       <r>    6.8755    1.0000 </r>
       <r>    7.1360    1.0000 </r>
       <r>    7.6982    1.0000 </r>
       <r>   11.3175    0.0000 </r>
       <r>   12.2837    0.0000 </r>
       <r>   12.6549    0.0000 </r>
       <r>   12.8170    0.0000 </r>
       <r>   13.0190    0.0000 </r>
       <r>   13.2927    0.0000 </r>
       <r>   13.5828    0.0000 </r>
       <r>   13.8158    0.0000 </r>
       <r>   14.2137    0.0000 </r>
       <r>   14.3496    0.0000 </r>
       <r>   14.6398    0.0000 </r>
       <r>   14.9705    0.0000 </r>
      </set>
      <set comment="kpoint 16">
       <r>   -8.5475    1.0000 </r>
       <r>   -7.9535    1.0000 </r>
       <r>   -5.4720    1.0000 </r>
       <r>   -5.0686    1.0000 </r>
       <r>   -4.2055    1.0000 </r>
       <r>   -3.3140    1.0000 </r>
       <r>   -2.9563    1.0000 </r>
       <r>   -2.3750    1.0000 </r>
       <r>   -0.1594    1.0000 </r>
       <r>    0.3462    1.0000 </r>
       <r>    1.0521    1.0000 </r>
       <r>    1.3881    1.0000 </r>
       <r>    1.6805    1.0000 </r>
       <r>    1.8656    1.0000 </r>
       <r>    2.4271    1.0000 </r>
       <r>    2.8295    1.0000 </r>
       <r>    3.0682    1.0000 </r>
       <r>    3.2446    1.0000 </r>
       <r>    3.4921    1.0000 </r>
       <r>    4.0316    1.0000 </r>
       <r>    4.3125    1.0000 </r>
       <r>    4.6517    1.0000 </r>
       <r>    4.9065    1.0000 </r>
       <r>    5.0167    1.0000 </r>
       <r>    5.3444    1.0000 </r>
       <r>    5.4847    1.0000 </r>
       <r>    5.7064    1.0000 </r>
       <r>    6.0753    1.0000 </r>
       <r>    6.4048    1.0000 </r>
       <r>    6.6619    1.0000 </r>
       <r>    6.9056    1.0000 </r>
       <r>    7.5658    1.0000 </r>
       <r>   11.4287    0.0000 </r>
       <r>   11.6761    0.0000 </r>
       <r>   11.9907    0.0000 </r>
       <r>   12.4250    0.0000 </r>
       <r>   12.9243    0.0000 </r>
       <r>   13.1455    0.0000 </r>
       <r>   13.3201    0.0000 </r>
       <r>   13.6114    0.0000 </r>
       <r>   14.0918    0.0000 </r>
       <r>   14.5650    0.0000 </r>
       <r>   14.8757    0.0000 </r>
       <r>   15.0119    0.0000 </r>
      </set>
      <set comment="kpoint 17">
       <r>   -8.5281    1.0000 </r>
       <r>   -7.9237    1.0000 </r>
       <r>   -5.3850    1.0000 </r>
       <r>   -5.0097    1.0000 </r>
       <r>   -4.2009    1.0000 </r>
       <r>   -3.3714    1.0000 </r>
       <r>   -3.2732    1.0000 </r>
       <r>   -2.6314    1.0000 </r>
       <r>   -0.1179    1.0000 </r>
       <r>    0.2963    1.0000 </r>
       <r>    0.9411    1.0000 </r>
       <r>    1.3741    1.0000 </r>
       <r>    1.9407    1.0000 </r>
       <r>    2.1605    1.0000 </r>
       <r>    2.3507    1.0000 </r>
       <r>    2.7502    1.0000 </r>
       <r>    3.1076    1.0000 </r>
       <r>    3.3236    1.0000 </r>
       <r>    3.8741    1.0000 </r>
       <r>    4.1513    1.0000 </r>
       <r>    4.4643    1.0000 </r>
       <r>    4.5422    1.0000 </r>
       <r>    4.8509    1.0000 </r>
       <r>    4.9790    1.0000 </r>
       <r>    5.2328    1.0000 </r>
       <r>    5.5514    1.0000 </r>
       <r>    5.9707    1.0000 </r>
       <r>    6.1165    1.0000 </r>
       <r>    6.4216    1.0000 </r>
       <r>    6.6949    1.0000 </r>
       <r>    6.9882    1.0000 </r>
       <r>    7.5355    1.0000 </r>
       <r>   11.1370    0.0000 </r>
       <r>   11.8582    0.0000 </r>
       <r>   12.2172    0.0000 </r>
       <r>   12.3823    0.0000 </r>
       <r>   12.7336    0.0000 </r>
       <r>   13.0217    0.0000 </r>
       <r>   13.3411    0.0000 </r>
       <r>   13.4467    0.0000 </r>
       <r>   13.7496    0.0000 </r>
       <r>   14.3993    0.0000 </r>
       <r>   14.6540    0.0000 </r>
       <r>   14.8083    0.0000 </r>
      </set>
      <set comment="kpoint 18">
       <r>   -8.6661    1.0000 </r>
       <r>   -7.9556    1.0000 </r>
       <r>   -5.2258    1.0000 </r>
       <r>   -4.9446    1.0000 </r>
       <r>   -4.0455    1.0000 </r>
       <r>   -3.4038    1.0000 </r>
       <r>   -2.6318    1.0000 </r>
       <r>   -2.4893    1.0000 </r>
       <r>   -0.2663    1.0000 </r>
       <r>   -0.0858    1.0000 </r>
       <r>    0.4278    1.0000 </r>
       <r>    1.0290    1.0000 </r>
       <r>    1.2846    1.0000 </r>
       <r>    1.9050    1.0000 </r>
       <r>    2.3616    1.0000 </r>
       <r>    2.8497    1.0000 </r>
       <r>    3.1190    1.0000 </r>
       <r>    3.3769    1.0000 </r>
       <r>    3.5999    1.0000 </r>
       <r>    4.0732    1.0000 </r>
       <r>    4.3086    1.0000 </r>
       <r>    4.5397    1.0000 </r>
       <r>    4.8631    1.0000 </r>
       <r>    5.1653    1.0000 </r>
       <r>    5.4846    1.0000 </r>
       <r>    5.6094    1.0000 </r>
       <r>    6.0466    1.0000 </r>
       <r>    6.4086    1.0000 </r>
       <r>    6.6948    1.0000 </r>
       <r>    7.0694    1.0000 </r>
       <r>    7.3857    1.0000 </r>
       <r>    7.7088    1.0000 </r>
       <r>   11.3937    0.0000 </r>
       <r>   11.9254    0.0000 </r>
       <r>   12.1853    0.0000 </r>
       <r>   12.4384    0.0000 </r>
       <r>   12.9434    0.0000 </r>
       <r>   12.9679    0.0000 </r>
       <r>   13.2980    0.0000 </r>
       <r>   13.6632    0.0000 </r>
       <r>   14.0497    0.0000 </r>
       <r>   14.2346    0.0000 </r>
       <r>   14.4718    0.0000 </r>
       <r>   15.0418    0.0000 </r>
      </set>
      <set comment="kpoint 19">
       <r>   -8.5879    1.0000 </r>
       <r>   -7.9734    1.0000 </r>
       <r>   -5.6170    1.0000 </r>
       <r>   -4.6859    1.0000 </r>
       <r>   -4.2913    1.0000 </r>
       <r>   -3.4375    1.0000 </r>
       <r>   -2.8701    1.0000 </r>
       <r>   -2.3838    1.0000 </r>
       <r>    0.1007    1.0000 </r>
       <r>    0.5646    1.0000 </r>
       <r>    1.0124    1.0000 </r>
       <r>    1.4138    1.0000 </r>
       <r>    1.6856    1.0000 </r>
       <r>    1.9366    1.0000 </r>
       <r>    2.4978    1.0000 </r>
       <r>    2.5969    1.0000 </r>
       <r>    3.0521    1.0000 </r>
       <r>    3.3424    1.0000 </r>
       <r>    3.5436    1.0000 </r>
       <r>    3.8094    1.0000 </r>
       <r>    4.0229    1.0000 </r>
       <r>    4.5362    1.0000 </r>
       <r>    4.7640    1.0000 </r>
       <r>    4.9456    1.0000 </r>
       <r>    5.1006    1.0000 </r>
       <r>    5.4699    1.0000 </r>
       <r>    5.6780    1.0000 </r>
       <r>    6.0560    1.0000 </r>
       <r>    6.4442    1.0000 </r>
       <r>    6.6197    1.0000 </r>
       <r>    6.8612    1.0000 </r>
       <r>    7.0967    1.0000 </r>
       <r>   10.9629    0.0000 </r>
       <r>   11.2725    0.0000 </r>
       <r>   12.4555    0.0000 </r>
       <r>   12.8999    0.0000 </r>
       <r>   13.1638    0.0000 </r>
       <r>   13.7936    0.0000 </r>
       <r>   13.8917    0.0000 </r>
       <r>   14.0378    0.0000 </r>
       <r>   14.3671    0.0000 </r>
       <r>   14.6598    0.0000 </r>
       <r>   14.9054    0.0000 </r>
       <r>   15.3497    0.0000 </r>
      </set>
      <set comment="kpoint 20">
       <r>   -8.5838    1.0000 </r>
       <r>   -7.9219    1.0000 </r>
       <r>   -5.4312    1.0000 </r>
       <r>   -4.7623    1.0000 </r>
       <r>   -4.3748    1.0000 </r>
       <r>   -3.5755    1.0000 </r>
       <r>   -3.1109    1.0000 </r>
       <r>   -2.4453    1.0000 </r>
       <r>    0.1055    1.0000 </r>
       <r>    0.7327    1.0000 </r>
       <r>    0.9398    1.0000 </r>
       <r>    1.4498    1.0000 </r>
       <r>    1.6983    1.0000 </r>
       <r>    1.8960    1.0000 </r>
       <r>    2.3556    1.0000 </r>
       <r>    2.6820    1.0000 </r>
       <r>    3.1309    1.0000 </r>
       <r>    3.2563    1.0000 </r>
       <r>    3.5541    1.0000 </r>
       <r>    4.1315    1.0000 </r>
       <r>    4.3613    1.0000 </r>
       <r>    4.5114    1.0000 </r>
       <r>    4.6283    1.0000 </r>
       <r>    4.9332    1.0000 </r>
       <r>    5.1853    1.0000 </r>
       <r>    5.5134    1.0000 </r>
       <r>    5.9023    1.0000 </r>
       <r>    6.2009    1.0000 </r>
       <r>    6.5429    1.0000 </r>
       <r>    6.6542    1.0000 </r>
       <r>    6.9944    1.0000 </r>
       <r>    7.1613    1.0000 </r>
       <r>   11.1122    0.0000 </r>
       <r>   11.5935    0.0000 </r>
       <r>   11.9759    0.0000 </r>
       <r>   12.1608    0.0000 </r>
       <r>   12.9024    0.0000 </r>
       <r>   13.1634    0.0000 </r>
       <r>   13.6213    0.0000 </r>
       <r>   13.9574    0.0000 </r>
       <r>   14.1399    0.0000 </r>
       <r>   14.4672    0.0000 </r>
       <r>   14.5406    0.0000 </r>
       <r>   14.8312    0.0000 </r>
      </set>
      <set comment="kpoint 21">
       <r>   -8.5270    1.0000 </r>
       <r>   -7.9306    1.0000 </r>
       <r>   -5.3007    1.0000 </r>
       <r>   -4.9072    1.0000 </r>
       <r>   -4.2606    1.0000 </r>
       <r>   -3.9828    1.0000 </r>
       <r>   -2.9763    1.0000 </r>
       <r>   -2.4412    1.0000 </r>
       <r>    0.0340    1.0000 </r>
       <r>    0.4687    1.0000 </r>
       <r>    0.9946    1.0000 </r>
       <r>    1.1921    1.0000 </r>
       <r>    1.7115    1.0000 </r>
       <r>    2.1492    1.0000 </r>
       <r>    2.4493    1.0000 </r>
       <r>    2.6605    1.0000 </r>
       <r>    3.0578    1.0000 </r>
       <r>    3.3781    1.0000 </r>
       <r>    3.6732    1.0000 </r>
       <r>    4.1716    1.0000 </r>
       <r>    4.4648    1.0000 </r>
       <r>    4.6111    1.0000 </r>
       <r>    4.8398    1.0000 </r>
       <r>    5.0166    1.0000 </r>
       <r>    5.3248    1.0000 </r>
       <r>    5.6155    1.0000 </r>
       <r>    5.7489    1.0000 </r>
       <r>    6.1324    1.0000 </r>
       <r>    6.4521    1.0000 </r>
       <r>    6.9829    1.0000 </r>
       <r>    7.0601    1.0000 </r>
       <r>    7.3000    1.0000 </r>
       <r>   11.4116    0.0000 </r>
       <r>   11.6823    0.0000 </r>
       <r>   12.1602    0.0000 </r>
       <r>   12.3739    0.0000 </r>
       <r>   12.6281    0.0000 </r>
       <r>   12.9546    0.0000 </r>
       <r>   13.3799    0.0000 </r>
       <r>   13.5509    0.0000 </r>
       <r>   13.7298    0.0000 </r>
       <r>   14.3919    0.0000 </r>
       <r>   14.5270    0.0000 </r>
       <r>   14.9660    0.0000 </r>
      </set>
      <set comment="kpoint 22">
       <r>   -8.5439    1.0000 </r>
       <r>   -7.9636    1.0000 </r>
       <r>   -5.3822    1.0000 </r>
       <r>   -4.8650    1.0000 </r>
       <r>   -4.6757    1.0000 </r>
       <r>   -3.3265    1.0000 </r>
       <r>   -2.7562    1.0000 </r>
       <r>   -2.3417    1.0000 </r>
       <r>   -0.2795    1.0000 </r>
       <r>    0.3797    1.0000 </r>
       <r>    1.1563    1.0000 </r>
       <r>    1.4170    1.0000 </r>
       <r>    1.7836    1.0000 </r>
       <r>    2.0843    1.0000 </r>
       <r>    2.4590    1.0000 </r>
       <r>    2.7515    1.0000 </r>
       <r>    2.9801    1.0000 </r>
       <r>    3.0855    1.0000 </r>
       <r>    3.5215    1.0000 </r>
       <r>    3.7242    1.0000 </r>
       <r>    4.0641    1.0000 </r>
       <r>    4.4819    1.0000 </r>
       <r>    5.0200    1.0000 </r>
       <r>    5.1327    1.0000 </r>
       <r>    5.3899    1.0000 </r>
       <r>    5.4183    1.0000 </r>
       <r>    5.9423    1.0000 </r>
       <r>    6.2120    1.0000 </r>
       <r>    6.5486    1.0000 </r>
       <r>    6.7595    1.0000 </r>
       <r>    7.0388    1.0000 </r>
       <r>    7.1609    1.0000 </r>
       <r>   11.5701    0.0000 </r>
       <r>   11.7316    0.0000 </r>
       <r>   11.7425    0.0000 </r>
       <r>   12.6309    0.0000 </r>
       <r>   12.9803    0.0000 </r>
       <r>   13.1516    0.0000 </r>
       <r>   13.2891    0.0000 </r>
       <r>   13.5754    0.0000 </r>
       <r>   14.1399    0.0000 </r>
       <r>   14.3846    0.0000 </r>
       <r>   14.9002    0.0000 </r>
       <r>   15.0548    0.0000 </r>
      </set>
      <set comment="kpoint 23">
       <r>   -8.7665    1.0000 </r>
       <r>   -7.8644    1.0000 </r>
       <r>   -5.5416    1.0000 </r>
       <r>   -4.4887    1.0000 </r>
       <r>   -3.8951    1.0000 </r>
       <r>   -3.4910    1.0000 </r>
       <r>   -2.8179    1.0000 </r>
       <r>   -2.4946    1.0000 </r>
       <r>   -0.3212    1.0000 </r>
       <r>    0.1036    1.0000 </r>
       <r>    0.3742    1.0000 </r>
       <r>    1.1512    1.0000 </r>
       <r>    1.4133    1.0000 </r>
       <r>    1.9675    1.0000 </r>
       <r>    2.4178    1.0000 </r>
       <r>    2.8784    1.0000 </r>
       <r>    2.9886    1.0000 </r>
       <r>    3.6285    1.0000 </r>
       <r>    3.7340    1.0000 </r>
       <r>    3.8530    1.0000 </r>
       <r>    4.3066    1.0000 </r>
       <r>    4.6796    1.0000 </r>
       <r>    4.8724    1.0000 </r>
       <r>    5.0796    1.0000 </r>
       <r>    5.1423    1.0000 </r>
       <r>    5.5678    1.0000 </r>
       <r>    5.7752    1.0000 </r>
       <r>    6.1661    1.0000 </r>
       <r>    6.3225    1.0000 </r>
       <r>    6.7663    1.0000 </r>
       <r>    7.2513    1.0000 </r>
       <r>    7.7362    1.0000 </r>
       <r>   10.6319    0.0000 </r>
       <r>   11.4258    0.0000 </r>
       <r>   12.2608    0.0000 </r>
       <r>   12.9324    0.0000 </r>
       <r>   13.1002    0.0000 </r>
       <r>   13.4154    0.0000 </r>
       <r>   13.8424    0.0000 </r>
       <r>   13.9791    0.0000 </r>
       <r>   14.2067    0.0000 </r>
       <r>   14.7983    0.0000 </r>
       <r>   14.8995    0.0000 </r>
       <r>   15.3518    0.0000 </r>
      </set>
      <set comment="kpoint 24">
       <r>   -8.7276    1.0000 </r>
       <r>   -7.8571    1.0000 </r>
       <r>   -5.3874    1.0000 </r>
       <r>   -4.7105    1.0000 </r>
       <r>   -3.9008    1.0000 </r>
       <r>   -3.5533    1.0000 </r>
       <r>   -2.9534    1.0000 </r>
       <r>   -2.5065    1.0000 </r>
       <r>   -0.3138    1.0000 </r>
       <r>    0.1555    1.0000 </r>
       <r>    0.6599    1.0000 </r>
       <r>    0.8574    1.0000 </r>
       <r>    1.2317    1.0000 </r>
       <r>    2.0322    1.0000 </r>
       <r>    2.5255    1.0000 </r>
       <r>    2.6181    1.0000 </r>
       <r>    3.1592    1.0000 </r>
       <r>    3.4028    1.0000 </r>
       <r>    3.8175    1.0000 </r>
       <r>    4.1158    1.0000 </r>
       <r>    4.3636    1.0000 </r>
       <r>    4.4827    1.0000 </r>
       <r>    4.8084    1.0000 </r>
       <r>    5.2523    1.0000 </r>
       <r>    5.5432    1.0000 </r>
       <r>    5.6461    1.0000 </r>
       <r>    5.9345    1.0000 </r>
       <r>    6.0761    1.0000 </r>
       <r>    6.6585    1.0000 </r>
       <r>    6.8673    1.0000 </r>
       <r>    7.4143    1.0000 </r>
       <r>    7.8041    1.0000 </r>
       <r>   11.3655    0.0000 </r>
       <r>   11.6656    0.0000 </r>
       <r>   11.8201    0.0000 </r>
       <r>   12.2871    0.0000 </r>
       <r>   12.6861    0.0000 </r>
       <r>   13.1543    0.0000 </r>
       <r>   13.5925    0.0000 </r>
       <r>   13.9436    0.0000 </r>
       <r>   14.2616    0.0000 </r>
       <r>   14.3607    0.0000 </r>
       <r>   14.5838    0.0000 </r>
       <r>   14.8255    0.0000 </r>
      </set>
      <set comment="kpoint 25">
       <r>   -8.5694    1.0000 </r>
       <r>   -7.8461    1.0000 </r>
       <r>   -5.5120    1.0000 </r>
       <r>   -4.9361    1.0000 </r>
       <r>   -4.2088    1.0000 </r>
       <r>   -3.6179    1.0000 </r>
       <r>   -2.9026    1.0000 </r>
       <r>   -2.7005    1.0000 </r>
       <r>   -0.1658    1.0000 </r>
       <r>    0.5152    1.0000 </r>
       <r>    0.8527    1.0000 </r>
       <r>    1.3082    1.0000 </r>
       <r>    1.8952    1.0000 </r>
       <r>    2.1815    1.0000 </r>
       <r>    2.4192    1.0000 </r>
       <r>    2.5487    1.0000 </r>
       <r>    3.0897    1.0000 </r>
       <r>    3.3257    1.0000 </r>
       <r>    3.7033    1.0000 </r>
       <r>    4.2398    1.0000 </r>
       <r>    4.3708    1.0000 </r>
       <r>    4.7511    1.0000 </r>
       <r>    4.8893    1.0000 </r>
       <r>    5.1105    1.0000 </r>
       <r>    5.2934    1.0000 </r>
       <r>    5.4900    1.0000 </r>
       <r>    5.8947    1.0000 </r>
       <r>    6.0904    1.0000 </r>
       <r>    6.5336    1.0000 </r>
       <r>    6.6843    1.0000 </r>
       <r>    6.9521    1.0000 </r>
       <r>    7.5494    1.0000 </r>
       <r>   11.3804    0.0000 </r>
       <r>   11.5453    0.0000 </r>
       <r>   12.0694    0.0000 </r>
       <r>   12.4343    0.0000 </r>
       <r>   12.5871    0.0000 </r>
       <r>   13.0458    0.0000 </r>
       <r>   13.2921    0.0000 </r>
       <r>   13.5111    0.0000 </r>
       <r>   14.0346    0.0000 </r>
       <r>   14.5016    0.0000 </r>
       <r>   14.6619    0.0000 </r>
       <r>   15.0286    0.0000 </r>
      </set>
      <set comment="kpoint 26">
       <r>   -8.6147    1.0000 </r>
       <r>   -7.8552    1.0000 </r>
       <r>   -5.6477    1.0000 </r>
       <r>   -4.6285    1.0000 </r>
       <r>   -4.2690    1.0000 </r>
       <r>   -3.5901    1.0000 </r>
       <r>   -2.9155    1.0000 </r>
       <r>   -2.6677    1.0000 </r>
       <r>    0.0031    1.0000 </r>
       <r>    0.7553    1.0000 </r>
       <r>    1.1292    1.0000 </r>
       <r>    1.3053    1.0000 </r>
       <r>    1.5126    1.0000 </r>
       <r>    2.0204    1.0000 </r>
       <r>    2.2151    1.0000 </r>
       <r>    2.7727    1.0000 </r>
       <r>    3.0572    1.0000 </r>
       <r>    3.2885    1.0000 </r>
       <r>    3.6652    1.0000 </r>
       <r>    3.9844    1.0000 </r>
       <r>    4.4254    1.0000 </r>
       <r>    4.6396    1.0000 </r>
       <r>    4.8388    1.0000 </r>
       <r>    5.0279    1.0000 </r>
       <r>    5.2888    1.0000 </r>
       <r>    5.6100    1.0000 </r>
       <r>    5.8704    1.0000 </r>
       <r>    5.9925    1.0000 </r>
       <r>    6.1477    1.0000 </r>
       <r>    6.6399    1.0000 </r>
       <r>    6.8359    1.0000 </r>
       <r>    7.5361    1.0000 </r>
       <r>   11.0687    0.0000 </r>
       <r>   11.7193    0.0000 </r>
       <r>   11.9535    0.0000 </r>
       <r>   12.0750    0.0000 </r>
       <r>   12.7146    0.0000 </r>
       <r>   13.1673    0.0000 </r>
       <r>   13.6637    0.0000 </r>
       <r>   13.9680    0.0000 </r>
       <r>   14.1791    0.0000 </r>
       <r>   14.5427    0.0000 </r>
       <r>   14.7087    0.0000 </r>
       <r>   15.0167    0.0000 </r>
      </set>
     </set>
    </set>
   </array>
  </eigenvalues>
  <separator name="orbital magnetization" >
   <v name="MAGDIPOLOUT">      0.00000000      0.00000000      0.00000000</v>
  </separator>
  <dos>
   <i name="efermi">      8.63562091 </i>
   <total>
    <array>
     <dimension dim="1">gridpoints</dimension>
     <dimension dim="2">spin</dimension>
     <field>energy</field>
     <field>total</field>
     <field>integrated</field>
     <set>
      <set comment="spin 1">
       <r>   -10.1733     0.0000     0.0000 </r>
       <r>   -10.0842     0.0000     0.0000 </r>
       <r>    -9.9951     0.0000     0.0000 </r>
       <r>    -9.9059     0.0000     0.0000 </r>
       <r>    -9.8168     0.0000     0.0000 </r>
       <r>    -9.7276     0.0000     0.0000 </r>
       <r>    -9.6385     0.0000     0.0000 </r>
       <r>    -9.5494     0.0000     0.0000 </r>
       <r>    -9.4602     0.0000     0.0000 </r>
       <r>    -9.3711     0.0000     0.0000 </r>
       <r>    -9.2820     0.0000     0.0000 </r>
       <r>    -9.1928     0.0002     0.0000 </r>
       <r>    -9.1037     0.0090     0.0008 </r>
       <r>    -9.0146     0.0989     0.0096 </r>
       <r>    -8.9254     0.4361     0.0485 </r>
       <r>    -8.8363     1.5565     0.1873 </r>
       <r>    -8.7472     3.3338     0.4844 </r>
       <r>    -8.6580     4.6681     0.9005 </r>
       <r>    -8.5689     6.1160     1.4457 </r>
       <r>    -8.4798     4.7690     1.8707 </r>
       <r>    -8.3906     1.3384     1.9900 </r>
       <r>    -8.3015     0.1099     1.9998 </r>
       <r>    -8.2123     0.0225     2.0018 </r>
       <r>    -8.1232     0.2833     2.0271 </r>
       <r>    -8.0341     1.7685     2.1847 </r>
       <r>    -7.9449     5.3945     2.6656 </r>
       <r>    -7.8558     7.9037     3.3701 </r>
       <r>    -7.7667     5.2916     3.8417 </r>
       <r>    -7.6775     1.5695     3.9816 </r>
       <r>    -7.5884     0.1975     3.9992 </r>
       <r>    -7.4993     0.0084     4.0000 </r>
       <r>    -7.4101     0.0001     4.0000 </r>
       <r>    -7.3210     0.0000     4.0000 </r>
       <r>    -7.2319     0.0000     4.0000 </r>
       <r>    -7.1427     0.0000     4.0000 </r>
       <r>    -7.0536     0.0000     4.0000 </r>
       <r>    -6.9645     0.0000     4.0000 </r>
       <r>    -6.8753     0.0000     4.0000 </r>
       <r>    -6.7862     0.0000     4.0000 </r>
       <r>    -6.6970     0.0000     4.0000 </r>
       <r>    -6.6079     0.0000     4.0000 </r>
       <r>    -6.5188     0.0000     4.0000 </r>
       <r>    -6.4296     0.0000     4.0000 </r>
       <r>    -6.3405     0.0000     4.0000 </r>
       <r>    -6.2514     0.0000     4.0000 </r>
       <r>    -6.1622     0.0000     4.0000 </r>
       <r>    -6.0731     0.0017     4.0002 </r>
       <r>    -5.9840     0.0346     4.0032 </r>
       <r>    -5.8948     0.1697     4.0184 </r>
       <r>    -5.8057     0.2652     4.0420 </r>
       <r>    -5.7166     0.6817     4.1028 </r>
       <r>    -5.6274     2.1125     4.2911 </r>
       <r>    -5.5383     3.2703     4.5826 </r>
       <r>    -5.4492     3.5883     4.9024 </r>
       <r>    -5.3600     4.3668     5.2916 </r>
       <r>    -5.2709     4.3635     5.6806 </r>
       <r>    -5.1817     2.6588     5.9176 </r>
       <r>    -5.0926     1.8230     6.0801 </r>
       <r>    -5.0035     2.6210     6.3137 </r>
       <r>    -4.9143     3.2348     6.6020 </r>
       <r>    -4.8252     2.7881     6.8506 </r>
       <r>    -4.7361     3.0548     7.1229 </r>
       <r>    -4.6469     3.6732     7.4503 </r>
       <r>    -4.5578     2.3358     7.6585 </r>
       <r>    -4.4687     1.4044     7.7837 </r>
       <r>    -4.3795     1.7097     7.9361 </r>
       <r>    -4.2904     2.8831     8.1930 </r>
       <r>    -4.2013     4.2120     8.5685 </r>
       <r>    -4.1121     3.4473     8.8758 </r>
       <r>    -4.0230     2.6749     9.1142 </r>
       <r>    -3.9339     2.8290     9.3663 </r>
       <r>    -3.8447     2.6480     9.6024 </r>
       <r>    -3.7556     2.9941     9.8693 </r>
       <r>    -3.6664     3.0501    10.1411 </r>
       <r>    -3.5773     3.0390    10.4120 </r>
       <r>    -3.4882     3.1200    10.6901 </r>
       <r>    -3.3990     3.6818    11.0183 </r>
       <r>    -3.3099     4.8507    11.4507 </r>
       <r>    -3.2208     3.9610    11.8037 </r>
       <r>    -3.1316     2.9092    12.0630 </r>
       <r>    -3.0425     3.0957    12.3390 </r>
       <r>    -2.9534     4.5353    12.7432 </r>
       <r>    -2.8642     5.0523    13.1936 </r>
       <r>    -2.7751     4.3741    13.5835 </r>
       <r>    -2.6860     4.9556    14.0252 </r>
       <r>    -2.5968     4.6371    14.4385 </r>
       <r>    -2.5077     4.3431    14.8256 </r>
       <r>    -2.4186     5.0146    15.2726 </r>
       <r>    -2.3294     4.2305    15.6497 </r>
       <r>    -2.2403     2.5806    15.8797 </r>
       <r>    -2.1511     1.1127    15.9789 </r>
       <r>    -2.0620     0.2233    15.9988 </r>
       <r>    -1.9729     0.0132    16.0000 </r>
       <r>    -1.8837     0.0002    16.0000 </r>
       <r>    -1.7946     0.0000    16.0000 </r>
       <r>    -1.7055     0.0000    16.0000 </r>
       <r>    -1.6163     0.0000    16.0000 </r>
       <r>    -1.5272     0.0000    16.0000 </r>
       <r>    -1.4381     0.0000    16.0000 </r>
       <r>    -1.3489     0.0000    16.0000 </r>
       <r>    -1.2598     0.0000    16.0000 </r>
       <r>    -1.1707     0.0000    16.0000 </r>
       <r>    -1.0815     0.0000    16.0000 </r>
       <r>    -0.9924     0.0022    16.0002 </r>
       <r>    -0.9033     0.0406    16.0038 </r>
       <r>    -0.8141     0.1861    16.0204 </r>
       <r>    -0.7250     0.3432    16.0510 </r>
       <r>    -0.6358     0.7571    16.1185 </r>
       <r>    -0.5467     1.1675    16.2225 </r>
       <r>    -0.4576     1.7756    16.3808 </r>
       <r>    -0.3684     3.5055    16.6933 </r>
       <r>    -0.2793     4.8929    17.1294 </r>
       <r>    -0.1902     5.1571    17.5891 </r>
       <r>    -0.1010     5.5025    18.0796 </r>
       <r>    -0.0119     4.9246    18.5185 </r>
       <r>     0.0772     4.8440    18.9503 </r>
       <r>     0.1664     4.1423    19.3195 </r>
       <r>     0.2555     2.9062    19.5786 </r>
       <r>     0.3446     3.5963    19.8991 </r>
       <r>     0.4338     4.4792    20.2984 </r>
       <r>     0.5229     4.4788    20.6976 </r>
       <r>     0.6120     4.3580    21.0860 </r>
       <r>     0.7012     4.1886    21.4594 </r>
       <r>     0.7903     3.8047    21.7985 </r>
       <r>     0.8795     3.5436    22.1144 </r>
       <r>     0.9686     4.5155    22.5169 </r>
       <r>     1.0577     5.1189    22.9731 </r>
       <r>     1.1469     4.4885    23.3732 </r>
       <r>     1.2360     4.2431    23.7514 </r>
       <r>     1.3251     4.4546    24.1485 </r>
       <r>     1.4143     5.0922    24.6024 </r>
       <r>     1.5034     5.0522    25.0527 </r>
       <r>     1.5925     4.0019    25.4094 </r>
       <r>     1.6817     3.5994    25.7303 </r>
       <r>     1.7708     4.0696    26.0930 </r>
       <r>     1.8599     4.9344    26.5328 </r>
       <r>     1.9491     6.0855    27.0753 </r>
       <r>     2.0382     5.1837    27.5373 </r>
       <r>     2.1273     4.5213    27.9403 </r>
       <r>     2.2165     4.5342    28.3445 </r>
       <r>     2.3056     4.4315    28.7395 </r>
       <r>     2.3948     5.5834    29.2372 </r>
       <r>     2.4839     5.9131    29.7642 </r>
       <r>     2.5730     5.3249    30.2389 </r>
       <r>     2.6622     4.7235    30.6599 </r>
       <r>     2.7513     4.7196    31.0806 </r>
       <r>     2.8404     5.0392    31.5298 </r>
       <r>     2.9296     5.2012    31.9934 </r>
       <r>     3.0187     5.8534    32.5151 </r>
       <r>     3.1078     6.9281    33.1327 </r>
       <r>     3.1970     6.1891    33.6843 </r>
       <r>     3.2861     4.9574    34.1262 </r>
       <r>     3.3752     5.3640    34.6043 </r>
       <r>     3.4644     5.6667    35.1094 </r>
       <r>     3.5535     5.7230    35.6195 </r>
       <r>     3.6427     6.1334    36.1662 </r>
       <r>     3.7318     7.3704    36.8232 </r>
       <r>     3.8209     7.2508    37.4695 </r>
       <r>     3.9101     5.2274    37.9355 </r>
       <r>     3.9992     4.7846    38.3619 </r>
       <r>     4.0883     6.1363    38.9089 </r>
       <r>     4.1775     6.3291    39.4730 </r>
       <r>     4.2666     5.5449    39.9673 </r>
       <r>     4.3557     6.3025    40.5291 </r>
       <r>     4.4449     7.7327    41.2183 </r>
       <r>     4.5340     9.4706    42.0625 </r>
       <r>     4.6231     9.0658    42.8706 </r>
       <r>     4.7123     7.4514    43.5348 </r>
       <r>     4.8014     6.1675    44.0845 </r>
       <r>     4.8905     8.2166    44.8169 </r>
       <r>     4.9797     9.0769    45.6260 </r>
       <r>     5.0688     7.5055    46.2950 </r>
       <r>     5.1580     7.2724    46.9432 </r>
       <r>     5.2471     6.7442    47.5443 </r>
       <r>     5.3362     7.4289    48.2065 </r>
       <r>     5.4254     7.9356    48.9139 </r>
       <r>     5.5145     7.7299    49.6029 </r>
       <r>     5.6036     8.6562    50.3744 </r>
       <r>     5.6928     7.8841    51.0772 </r>
       <r>     5.7819     6.0422    51.6158 </r>
       <r>     5.8710     5.9363    52.1449 </r>
       <r>     5.9602     6.9912    52.7681 </r>
       <r>     6.0493     7.9269    53.4746 </r>
       <r>     6.1384     8.4070    54.2240 </r>
       <r>     6.2276     7.6481    54.9057 </r>
       <r>     6.3167     6.5507    55.4896 </r>
       <r>     6.4058     5.4580    55.9761 </r>
       <r>     6.4950     5.2866    56.4473 </r>
       <r>     6.5841     6.7362    57.0478 </r>
       <r>     6.6733     8.5539    57.8102 </r>
       <r>     6.7624     7.8020    58.5056 </r>
       <r>     6.8515     6.9068    59.1213 </r>
       <r>     6.9407     7.0882    59.7531 </r>
       <r>     7.0298     6.2921    60.3139 </r>
       <r>     7.1189     5.2237    60.7796 </r>
       <r>     7.2081     4.2001    61.1539 </r>
       <r>     7.2972     3.5941    61.4743 </r>
       <r>     7.3863     3.9220    61.8239 </r>
       <r>     7.4755     4.2838    62.2057 </r>
       <r>     7.5646     4.8707    62.6399 </r>
       <r>     7.6537     4.0281    62.9989 </r>
       <r>     7.7429     3.1724    63.2817 </r>
       <r>     7.8320     2.7268    63.5247 </r>
       <r>     7.9211     2.0945    63.7114 </r>
       <r>     8.0103     1.5610    63.8506 </r>
       <r>     8.0994     0.9336    63.9338 </r>
       <r>     8.1886     0.5684    63.9845 </r>
       <r>     8.2777     0.1603    63.9988 </r>
       <r>     8.3668     0.0137    64.0000 </r>
       <r>     8.4560     0.0003    64.0000 </r>
       <r>     8.5451     0.0000    64.0000 </r>
       <r>     8.6342     0.0000    64.0000 </r>
       <r>     8.7234     0.0000    64.0000 </r>
       <r>     8.8125     0.0000    64.0000 </r>
       <r>     8.9016     0.0000    64.0000 </r>
       <r>     8.9908     0.0000    64.0000 </r>
       <r>     9.0799     0.0000    64.0000 </r>
       <r>     9.1690     0.0000    64.0000 </r>
       <r>     9.2582     0.0000    64.0000 </r>
       <r>     9.3473     0.0000    64.0000 </r>
       <r>     9.4364     0.0000    64.0000 </r>
       <r>     9.5256     0.0000    64.0000 </r>
       <r>     9.6147     0.0000    64.0000 </r>
       <r>     9.7039     0.0000    64.0000 </r>
       <r>     9.7930     0.0000    64.0000 </r>
       <r>     9.8821     0.0000    64.0000 </r>
       <r>     9.9713     0.0000    64.0000 </r>
       <r>    10.0604     0.0000    64.0000 </r>
       <r>    10.1495     0.0000    64.0000 </r>
       <r>    10.2387     0.0000    64.0000 </r>
       <r>    10.3278     0.0001    64.0000 </r>
       <r>    10.4169     0.0056    64.0005 </r>
       <r>    10.5061     0.1292    64.0120 </r>
       <r>    10.5952     0.9202    64.0940 </r>
       <r>    10.6843     2.1058    64.2817 </r>
       <r>    10.7735     1.7223    64.4353 </r>
       <r>    10.8626     1.3191    64.5528 </r>
       <r>    10.9517     2.1399    64.7436 </r>
       <r>    11.0409     2.9175    65.0036 </r>
       <r>    11.1300     3.2858    65.2965 </r>
       <r>    11.2192     2.9080    65.5557 </r>
       <r>    11.3083     4.0756    65.9190 </r>
       <r>    11.3974     5.6325    66.4211 </r>
       <r>    11.4866     4.8231    66.8510 </r>
       <r>    11.5757     3.9710    67.2049 </r>
       <r>    11.6648     4.6796    67.6221 </r>
       <r>    11.7540     5.8990    68.1479 </r>
       <r>    11.8431     5.2182    68.6130 </r>
       <r>    11.9322     5.0509    69.0632 </r>
       <r>    12.0214     5.4207    69.5464 </r>
       <r>    12.1105     4.4972    69.9472 </r>
       <r>    12.1996     3.9796    70.3020 </r>
       <r>    12.2888     5.0266    70.7500 </r>
       <r>    12.3779     6.1199    71.2955 </r>
       <r>    12.4670     6.2668    71.8541 </r>
       <r>    12.5562     4.3227    72.2394 </r>
       <r>    12.6453     4.3929    72.6310 </r>
       <r>    12.7345     6.0490    73.1702 </r>
       <r>    12.8236     4.8474    73.6022 </r>
       <r>    12.9127     5.1222    74.0588 </r>
       <r>    13.0019     6.8785    74.6719 </r>
       <r>    13.0910     6.9141    75.2882 </r>
       <r>    13.1801     6.4026    75.8589 </r>
       <r>    13.2693     5.4194    76.3420 </r>
       <r>    13.3584     5.5557    76.8372 </r>
       <r>    13.4475     5.1110    77.2927 </r>
       <r>    13.5367     5.4481    77.7784 </r>
       <r>    13.6258     6.5902    78.3658 </r>
       <r>    13.7149     6.7517    78.9676 </r>
       <r>    13.8041     6.4006    79.5381 </r>
       <r>    13.8932     5.4381    80.0228 </r>
       <r>    13.9823     5.3770    80.5021 </r>
       <r>    14.0715     6.2754    81.0615 </r>
       <r>    14.1606     6.0596    81.6016 </r>
       <r>    14.2498     5.6277    82.1032 </r>
       <r>    14.3389     6.4298    82.6763 </r>
       <r>    14.4280     8.0194    83.3912 </r>
       <r>    14.5172     7.6977    84.0773 </r>
       <r>    14.6063     6.4677    84.6538 </r>
       <r>    14.6954     5.8719    85.1772 </r>
       <r>    14.7846     5.6765    85.6832 </r>
       <r>    14.8737     6.1348    86.2300 </r>
       <r>    14.9628     5.9306    86.7586 </r>
       <r>    15.0520     5.2900    87.2301 </r>
       <r>    15.1411     3.9397    87.5813 </r>
       <r>    15.2302     2.2115    87.7784 </r>
       <r>    15.3194     1.1655    87.8823 </r>
       <r>    15.4085     0.9316    87.9654 </r>
       <r>    15.4976     0.3533    87.9969 </r>
       <r>    15.5868     0.0345    87.9999 </r>
       <r>    15.6759     0.0008    88.0000 </r>
       <r>    15.7651     0.0000    88.0000 </r>
       <r>    15.8542     0.0000    88.0000 </r>
       <r>    15.9433     0.0000    88.0000 </r>
       <r>    16.0325     0.0000    88.0000 </r>
       <r>    16.1216     0.0000    88.0000 </r>
       <r>    16.2107     0.0000    88.0000 </r>
       <r>    16.2999     0.0000    88.0000 </r>
       <r>    16.3890     0.0000    88.0000 </r>
       <r>    16.4781     0.0000    88.0000 </r>
       <r>    16.5673     0.0000    88.0000 </r>
      </set>
     </set>
    </array>
   </total>
  </dos>
 </calculation>
 <structure name="finalpos" >
  <crystal>
   <varray name="basis" >
    <v>       5.36756896       0.00132505       0.01556744 </v>
    <v>      -2.68232264       5.29155610       0.01738046 </v>
    <v>       0.01671976      -1.85444079       5.95695896 </v>
   </varray>
   <i name="volume">    169.46450103 </i>
   <varray name="rec_basis" >
    <v>       0.18619719       0.09428982       0.02883043 </v>
    <v>      -0.00021693       0.18867744       0.05873714 </v>
    <v>      -0.00048596      -0.00079691       0.16762417 </v>
   </varray>
  </crystal>
  <varray name="positions" >
   <v>       0.34806494       0.00528075       0.00249903 </v>
   <v>       0.82859074       0.00208452       0.75134893 </v>
   <v>       0.34126692       0.00317375       0.50196384 </v>
   <v>       0.41931403       0.50997397       0.87699145 </v>
   <v>       0.91743521       0.50084886       0.62920114 </v>
   <v>       0.41632500       0.49362582       0.37384554 </v>
   <v>       0.82307552       0.99167670       0.24646848 </v>
   <v>       0.91611538       0.50451695       0.12401731 </v>
   <v>       0.61170146       0.60360194       0.15225382 </v>
   <v>       0.15515828       0.63477468       0.89337363 </v>
   <v>       0.64925170       0.62435199       0.65132372 </v>
   <v>       0.72822313       0.11979108       0.01841357 </v>
   <v>       0.72798043       0.13120336       0.54468689 </v>
   <v>       0.23905959       0.12021041       0.28480189 </v>
   <v>       0.15538512       0.63260638       0.42289219 </v>
   <v>       0.22305256       0.12227885       0.77591855 </v>
  </varray>
 </structure>
</modeling>
