<?xml version="1.0" encoding="ISO-8859-1"?>
<modeling>
 <generator>
  <i name="program" type="string">vasp </i>
  <i name="version" type="string">5.3.5  </i>
  <i name="subversion" type="string">31Mar14 (build Jun 20 2014 13:15:13) complex                          parallel </i>
  <i name="platform" type="string">LinuxIFC </i>
  <i name="date" type="string">2025 12 12 </i>
  <i name="time" type="string">13:52:22 </i>
 </generator>
 <incar>
  <i type="string" name="PREC">accurate</i>
  <i type="int" name="IALGO">    38</i>
  <i type="logical" name="ADDGRID"> T  </i>
  <i type="int" name="ISPIN">     2</i>
  <i type="int" name="NELM">   100</i>
  <i type="int" name="NELMIN">     4</i>
  <i name="EDIFF">      0.00000100</i>
  <i name="ENCUT">    500.00000000</i>
  <i type="logical" name="LREAL"> F  </i>
  <i type="int" name="ISMEAR">     0</i>
  <i name="SIGMA">      0.05000000</i>
  <i type="logical" name="LWAVE"> F  </i>
  <i type="logical" name="LCHARG"> F  </i>
  <i type="int" name="NELM">   100</i>
  <i type="logical" name="LDAU"> T  </i>
  <v name="LDAUU">      0.00000000      4.00000000      0.00000000</v>
  <v name="LDAUJ">      0.00000000      0.00000000      0.00000000</v>
 </incar>
 <kpoints>
  <generation param="Auto">
   <i name="subdivisionlength">     20.00000000 </i>
   <v type="int" name="divisions">       2        3        4 </v>
   <v name="usershift">      0.00000000       0.00000000       0.00000000 </v>
   <v name="genvec1">      0.50000000       0.00000000       0.00000000 </v>
   <v name="genvec2">      0.00000000       0.33333333       0.00000000 </v>
   <v name="genvec3">      0.00000000       0.00000000       0.25000000 </v>
   <v name="shift">      0.00000000       0.00000000       0.00000000 </v>
  </generation>
  <varray name="kpointlist" >
   <v>       0.00000000       0.00000000       0.00000000 </v>
   <v>       0.50000000       0.00000000       0.00000000 </v>
   <v>       0.00000000       0.33333333       0.00000000 </v>
   <v>       0.50000000       0.33333333       0.00000000 </v>
   <v>       0.00000000       0.00000000       0.25000000 </v>
   <v>       0.50000000       0.00000000       0.25000000 </v>
   <v>       0.00000000       0.33333333       0.25000000 </v>
   <v>       0.50000000       0.33333333       0.25000000 </v>
   <v>       0.00000000       0.00000000       0.50000000 </v>
   <v>       0.50000000       0.00000000       0.50000000 </v>
   <v>       0.00000000       0.33333333       0.50000000 </v>
   <v>       0.50000000       0.33333333       0.50000000 </v>
  </varray>
  <varray name="weights" >
   <v>       0.04166667 </v>
   <v>       0.04166667 </v>
   <v>       0.08333333 </v>
   <v>       0.08333333 </v>
   <v>       0.08333333 </v>
   <v>       0.08333333 </v>
   <v>       0.16666667 </v>
   <v>       0.16666667 </v>
   <v>       0.04166667 </v>
   <v>       0.04166667 </v>
   <v>       0.08333333 </v>
   <v>       0.08333333 </v>
  </varray>
 </kpoints>
 <parameters>
  <separator name="general" >
   <i type="string" name="SYSTEM">unknown system</i>
   <i type="logical" name="LCOMPAT"> F  </i>
  </separator>
  <separator name="electronic" >
   <i type="string" name="PREC">accura</i>
   <i name="ENMAX">    500.00000000</i>
   <i name="ENAUG">    586.98000000</i>
   <i name="EDIFF">      0.00000100</i>
   <i type="int" name="IALGO">    38</i>
   <i type="int" name="IWAVPR">    10</i>
   <i type="int" name="NBANDS">   176</i>
   <i name="NELECT">    264.00000000</i>
   <i type="int" name="TURBO">     0</i>
   <i type="int" name="IRESTART">     0</i>
   <i type="int" name="NREBOOT">     0</i>
   <i type="int" name="NMIN">     0</i>
   <i name="EREF">      0.00000000</i>
   <separator name="electronic smearing" >
    <i type="int" name="ISMEAR">     0</i>
    <i name="SIGMA">      0.05000000</i>
    <i name="KSPACING">      0.50000000</i>
    <i type="logical" name="KGAMMA"> T  </i>
   </separator>
   <separator name="electronic projectors" >
    <i type="logical" name="LREAL"> F  </i>
    <v name="ROPT">      0.00000000      0.00000000      0.00000000</v>
    <i type="int" name="LMAXPAW">  -100</i>
    <i type="int" name="LMAXMIX">     2</i>
    <i type="logical" name="NLSPLINE"> F  </i>
   </separator>
   <separator name="electronic startup" >
    <i type="int" name="ISTART">     0</i>
    <i type="int" name="ICHARG">     2</i>
    <i type="int" name="INIWAV">     1</i>
   </separator>
   <separator name="electronic spin" >
    <i type="int" name="ISPIN">     2</i>
    <i type="logical" name="LNONCOLLINEAR"> F  </i>
    <v name="MAGMOM">      1.00000000      1.00000000      1.00000000      1.00000000      1.00000000      1.00000000      1.00000000      1.00000000      1.00000000      1.00000000      1.00000000      1.00000000      1.00000000      1.00000000      1.00000000      1.00000000      1.00000000      1.00000000      1.00000000      1.00000000
      1.00000000      1.00000000      1.00000000      1.00000000      1.00000000      1.00000000      1.00000000      1.00000000      1.00000000      1.00000000      1.00000000      1.00000000</v>
    <i name="NUPDOWN">     -1.00000000</i>
    <i type="logical" name="LSORBIT"> F  </i>
    <v name="SAXIS">      0.00000000      0.00000000      1.00000000</v>
    <i type="logical" name="LSPIRAL"> F  </i>
    <v name="QSPIRAL">      0.00000000      0.00000000      0.00000000</v>
    <i type="logical" name="LZEROZ"> F  </i>
   </separator>
   <separator name="electronic exchange-correlation" >
    <i type="logical" name="LASPH"> F  </i>
    <i type="logical" name="LMETAGGA"> F  </i>
   </separator>
   <separator name="electronic convergence" >
    <i type="int" name="NELM">   100</i>
    <i type="int" name="NELMDL">    -5</i>
    <i type="int" name="NELMIN">     4</i>
    <i name="ENINI">    500.00000000</i>
    <separator name="electronic convergence detail" >
     <i type="logical" name="LDIAG"> T  </i>
     <i type="logical" name="LSUBROT"> F  </i>
     <i name="WEIMIN">      0.00000000</i>
     <i name="EBREAK">      0.00000000</i>
     <i name="DEPER">      0.30000000</i>
     <i type="int" name="NRMM">     4</i>
     <i name="TIME">      0.40000000</i>
    </separator>
   </separator>
   <separator name="electronic mixer" >
    <i name="AMIX">      0.40000000</i>
    <i name="BMIX">      1.00000000</i>
    <i name="AMIN">      0.10000000</i>
    <i name="AMIX_MAG">      1.60000000</i>
    <i name="BMIX_MAG">      1.00000000</i>
    <separator name="electronic mixer details" >
     <i type="int" name="IMIX">     4</i>
     <i type="int" name="MAXMIX">   -45</i>
     <i name="WC">    100.00000000</i>
     <i type="int" name="INIMIX">     1</i>
     <i type="int" name="MIXPRE">     1</i>
     <i type="int" name="MREMOVE">     5</i>
    </separator>
   </separator>
   <separator name="electronic dipolcorrection" >
    <i type="logical" name="LDIPOL"> F  </i>
    <i type="logical" name="LMONO"> F  </i>
    <i type="int" name="IDIPOL">     0</i>
    <i name="EPSILON">      1.00000000</i>
    <v name="DIPOL">   -100.00000000   -100.00000000   -100.00000000</v>
    <i name="EFIELD">      0.00000000</i>
   </separator>
  </separator>
  <separator name="grids" >
   <i type="int" name="NGX">    84</i>
   <i type="int" name="NGY">    60</i>
   <i type="int" name="NGZ">    60</i>
   <i type="int" name="NGXF">   168</i>
   <i type="int" name="NGYF">   120</i>
   <i type="int" name="NGZF">   120</i>
   <i type="logical" name="ADDGRID"> T  </i>
  </separator>
  <separator name="ionic" >
   <i type="int" name="NSW">     0</i>
   <i type="int" name="IBRION">    -1</i>
   <i type="int" name="ISIF">     2</i>
   <i name="PSTRESS">      0.00000000</i>
   <i name="EDIFFG">      0.00001000</i>
   <i type="int" name="NFREE">     0</i>
   <i name="POTIM">      0.50000000</i>
   <i name="SMASS">     -3.00000000</i>
   <i name="SCALEE">      1.00000000</i>
  </separator>
  <separator name="ionic md" >
   <i name="TEBEG">      0.00010000</i>
   <i name="TEEND">      0.00010000</i>
   <i type="int" name="NBLOCK">     1</i>
   <i type="int" name="KBLOCK">     1</i>
   <i type="int" name="NPACO">   256</i>
   <i name="APACO">     16.00000000</i>
  </separator>
  <separator name="symmetry" >
   <i type="int" name="ISYM">     2</i>
   <i name="SYMPREC">      0.00001000</i>
  </separator>
  <separator name="dos" >
   <i type="logical" name="LORBIT"> F  </i>
   <v name="RWIGS">     -1.00000000     -1.00000000     -1.00000000</v>
   <i type="int" name="NEDOS">   301</i>
   <i name="EMIN">     10.00000000</i>
   <i name="EMAX">    -10.00000000</i>
   <i name="EFERMI">      0.00000000</i>
  </separator>
  <separator name="writing" >
   <i type="int" name="NWRITE">     2</i>
   <i type="logical" name="LWAVE"> F  </i>
   <i type="logical" name="LCHARG"> F  </i>
   <i type="logical" name="LPARD"> F  </i>
   <i type="logical" name="LVTOT"> F  </i>
   <i type="logical" name="LVHAR"> F  </i>
   <i type="logical" name="LELF"> F  </i>
   <i type="logical" name="LOPTICS"> F  </i>
   <v name="STM">      0.00000000      0.00000000      0.00000000      0.00000000      0.00000000      0.00000000      0.00000000</v>
  </separator>
  <separator name="performance" >
   <i type="int" name="NPAR">     4</i>
   <i type="int" name="NSIM">     4</i>
   <i type="int" name="NBLK">    -1</i>
   <i type="logical" name="LPLANE"> T  </i>
   <i type="logical" name="LSCALAPACK"> T  </i>
   <i type="logical" name="LSCAAWARE"> F  </i>
   <i type="logical" name="LSCALU"> F  </i>
   <i type="logical" name="LASYNC"> F  </i>
   <i type="logical" name="LORBITALREAL"> F  </i>
  </separator>
  <separator name="miscellaneous" >
   <i type="int" name="IDIOT">     3</i>
   <i type="logical" name="LMUSIC"> F  </i>
   <v name="POMASS">     87.62000000     63.54600000     16.00000000</v>
   <v name="DARWINR">      0.00000000      0.00000000      0.00000000</v>
   <v name="DARWINV">      1.00000000      1.00000000      1.00000000</v>
   <i type="logical" name="LCORR"> T  </i>
  </separator>
  <i type="logical" name="GGA_COMPAT"> T  </i>
  <i type="logical" name="LBERRY"> F  </i>
  <i type="int" name="ICORELEVEL">     0</i>
  <i type="logical" name="LDAU"> T  </i>
  <v type="int" name="LDAUTYPE">     2</v>
  <v type="int" name="LDAUL">     2</v>
  <v name="LDAUU">      0.00000000</v>
  <v name="LDAUJ">      0.00000000</v>
  <i type="int" name="LDAUPRINT">     0</i>
  <i type="int" name="I_CONSTRAINED_M">     0</i>
  <separator name="electronic exchange-correlation" >
   <i type="string" name="GGA">--</i>
   <i type="int" name="VOSKOWN">     0</i>
   <i type="logical" name="LHFCALC"> F  </i>
   <i type="string" name="PRECFOCK"></i>
   <i type="logical" name="LSYMGRAD"> F  </i>
   <i type="logical" name="LHFONE"> F  </i>
   <i type="logical" name="LRHFCALC"> F  </i>
   <i type="logical" name="LTHOMAS"> F  </i>
   <i type="logical" name="LMODELHF"> F  </i>
   <i name="ENCUT4O">     -1.00000000</i>
   <i type="int" name="EXXOEP">     0</i>
   <i type="int" name="FOURORBIT">     0</i>
   <i name="AEXX">      0.00000000</i>
   <i name="HFALPHA">      0.00000000</i>
   <i name="MCALPHA">      0.00000000</i>
   <i name="ALDAX">      1.00000000</i>
   <i name="AGGAX">      1.00000000</i>
   <i name="ALDAC">      1.00000000</i>
   <i name="AGGAC">      1.00000000</i>
   <i type="int" name="NKREDX">     1</i>
   <i type="int" name="NKREDY">     1</i>
   <i type="int" name="NKREDZ">     1</i>
   <i type="logical" name="SHIFTRED"> F  </i>
   <i type="logical" name="ODDONLY"> F  </i>
   <i type="logical" name="EVENONLY"> F  </i>
   <i type="int" name="LMAXFOCK">     0</i>
   <i type="int" name="NMAXFOCKAE">     0</i>
   <i type="logical" name="LFOCKAEDFT"> F  </i>
   <i name="HFSCREEN">      0.00000000</i>
   <i name="HFSCREENC">      0.00000000</i>
   <i type="int" name="NBANDSGWLOW">     0</i>
  </separator>
  <separator name="vdW DFT" >
   <i type="logical" name="LUSE_VDW"> F  </i>
   <i name="Zab_VDW">     -0.84910000</i>
   <i name="PARAM1">      0.12340000</i>
   <i name="PARAM2">      1.00000000</i>
   <i name="PARAM3">      0.00000000</i>
  </separator>
  <separator name="model GW" >
   <i type="int" name="MODEL_GW">     0</i>
   <i name="MODEL_EPS0">      9.60000000</i>
   <i name="MODEL_ALPHA">      1.00000000</i>
  </separator>
  <separator name="linear response parameters" >
   <i type="logical" name="LEPSILON"> F  </i>
   <i type="logical" name="LRPA"> F  </i>
   <i type="logical" name="LNABLA"> F  </i>
   <i type="logical" name="LVEL"> F  </i>
   <i type="int" name="KINTER">     0</i>
   <i name="CSHIFT">      0.10000000</i>
   <i name="OMEGAMAX">     -1.00000000</i>
   <i name="DEG_THRESHOLD">      0.00200000</i>
  </separator>
  <separator name="orbital magnetization" >
   <i type="logical" name="NUCIND"> F  </i>
   <v name="MAGPOS">      0.00000000      0.00000000      0.00000000</v>
   <i type="logical" name="LNICSALL"> T  </i>
   <i type="logical" name="ORBITALMAG"> F  </i>
   <i type="logical" name="LMAGBLOCH"> F  </i>
   <i type="logical" name="LCHIMAG"> F  </i>
   <i type="logical" name="LGAUGE"> T  </i>
   <i type="int" name="MAGATOM">     0</i>
   <v name="MAGDIPOL">      0.00000000      0.00000000      0.00000000</v>
   <v name="AVECCONST">      0.00000000      0.00000000      0.00000000</v>
  </separator>
  <separator name="response functions" >
   <i type="logical" name="LADDER"> F  </i>
   <i type="logical" name="LFXC"> F  </i>
   <i type="logical" name="LHARTREE"> T  </i>
   <i type="int" name="IBSE">     0</i>
   <i type="logical" name="LTCTE"> F  </i>
   <i type="logical" name="LTETE"> F  </i>
   <i type="logical" name="LTRIPLET"> F  </i>
   <i type="logical" name="LFXCEPS"> F  </i>
   <i type="logical" name="LFXHEG"> F  </i>
   <i type="logical" name="L2ORDER"> F  </i>
   <i type="logical" name="LUSEW"> F  </i>
   <i name="ENCUTGW">     -2.00000000</i>
   <i name="ENCUTGWSOFT">     -2.00000000</i>
   <i name="ENCUTLF">     -1.00000000</i>
   <i type="int" name="LMAXMP2">    -1</i>
   <i name="SCISSOR">      0.00000000</i>
   <i type="int" name="NOMEGA">     0</i>
   <i type="int" name="NOMEGAR">     0</i>
   <i type="int" name="NBANDSGW">    -1</i>
   <i type="int" name="NBANDSO">    -1</i>
   <i type="int" name="NBANDSV">    -1</i>
   <i type="int" name="NELM">   100</i>
   <i type="int" name="DIM">     3</i>
   <i type="int" name="ANTIRES">     0</i>
   <i name="OMEGAMAX">    -30.00000000</i>
   <i name="OMEGAMIN">    -30.00000000</i>
   <i name="OMEGATL">   -200.00000000</i>
   <i type="int" name="OMEGAGRID">     0</i>
   <i name="CSHIFT">     -0.10000000</i>
   <i type="logical" name="SELFENERGY"> F  </i>
   <i type="logical" name="LSPECTRAL"> F  </i>
   <i type="logical" name="ODDONLYGW"> F  </i>
   <i type="logical" name="EVENONLYGW"> F  </i>
   <i type="int" name="NKREDLFX">     1</i>
   <i type="int" name="NKREDLFY">     1</i>
   <i type="int" name="NKREDLFZ">     1</i>
   <i type="int" name="MAXMEM">  1800</i>
   <i type="int" name="TELESCOPE">     0</i>
   <i type="int" name="TAUPAR">     1</i>
  </separator>
  <separator name="External order field" >
   <i name="OFIELD_KAPPA">      0.00000000</i>
   <v name="OFIELD_K">      0.00000000      0.00000000      0.00000000</v>
   <i name="OFIELD_Q6_NEAR">      0.00000000</i>
   <i name="OFIELD_Q6_FAR">      0.00000000</i>
   <i name="OFIELD_A">      0.00000000</i>
  </separator>
 </parameters>
 <atominfo>
  <atoms>      32 </atoms>
  <types>       3 </types>
  <array name="atoms" >
   <dimension dim="1">ion</dimension>
   <field type="string">element</field>
   <field type="int">atomtype</field>
   <set>
    <rc><c>Sr</c><c>   1</c></rc>
    <rc><c>Sr</c><c>   1</c></rc>
    <rc><c>Sr</c><c>   1</c></rc>
    <rc><c>Sr</c><c>   1</c></rc>
    <rc><c>Sr</c><c>   1</c></rc>
    <rc><c>Sr</c><c>   1</c></rc>
    <rc><c>Sr</c><c>   1</c></rc>
    <rc><c>Sr</c><c>   1</c></rc>
    <rc><c>Cu</c><c>   2</c></rc>
    <rc><c>Cu</c><c>   2</c></rc>
    <rc><c>Cu</c><c>   2</c></rc>
    <rc><c>Cu</c><c>   2</c></rc>
    <rc><c>Cu</c><c>   2</c></rc>
    <rc><c>Cu</c><c>   2</c></rc>
    <rc><c>Cu</c><c>   2</c></rc>
    <rc><c>Cu</c><c>   2</c></rc>
    <rc><c>O </c><c>   3</c></rc>
    <rc><c>O </c><c>   3</c></rc>
    <rc><c>O </c><c>   3</c></rc>
    <rc><c>O </c><c>   3</c></rc>
    <rc><c>O </c><c>   3</c></rc>
    <rc><c>O </c><c>   3</c></rc>
    <rc><c>O </c><c>   3</c></rc>
    <rc><c>O </c><c>   3</c></rc>
    <rc><c>O </c><c>   3</c></rc>
    <rc><c>O </c><c>   3</c></rc>
    <rc><c>O </c><c>   3</c></rc>
    <rc><c>O </c><c>   3</c></rc>
    <rc><c>O </c><c>   3</c></rc>
    <rc><c>O </c><c>   3</c></rc>
    <rc><c>O </c><c>   3</c></rc>
    <rc><c>O </c><c>   3</c></rc>
   </set>
  </array>
  <array name="atomtypes" >
   <dimension dim="1">type</dimension>
   <field type="int">atomspertype</field>
   <field type="string">element</field>
   <field>mass</field>
   <field>valence</field>
   <field type="string">pseudopotential</field>
   <set>
    <rc><c>   8</c><c>Sr</c><c>     87.62000000</c><c>     10.00000000</c><c>  PAW_PBE Sr_sv 07Sep2000               </c></rc>
    <rc><c>   8</c><c>Cu</c><c>     63.54600000</c><c>     11.00000000</c><c>  PAW_PBE Cu 22Jun2005                  </c></rc>
    <rc><c>  16</c><c>O </c><c>     16.00000000</c><c>      6.00000000</c><c>  PAW_PBE O_s 07Sep2000                 </c></rc>
   </set>
  </array>
 </atominfo>
 <structure name="initialpos" >
  <crystal>
   <varray name="basis" >
    <v>      11.31370850       0.00000000       0.00000000 </v>
    <v>       0.00000000       8.00000000       0.00000000 </v>
    <v>      -5.65685425       0.00000000       5.65685425 </v>
   </varray>
   <i name="volume">    512.00000000 </i>
   <varray name="rec_basis" >
    <v>       0.08838835       0.00000000       0.08838835 </v>
    <v>       0.00000000       0.12500000       0.00000000 </v>
    <v>       0.00000000       0.00000000       0.17677670 </v>
   </varray>
  </crystal>
  <varray name="positions" >
   <v>       0.25000000       0.75000000       0.00000000 </v>
   <v>       0.25000000       0.25000000       0.00000000 </v>
   <v>       0.75000000       0.75000000       0.50000000 </v>
   <v>       0.25000000       0.75000000       0.50000000 </v>
   <v>       0.75000000       0.25000000       0.00000000 </v>
   <v>       0.75000000       0.75000000       0.00000000 </v>
   <v>       0.25000000       0.25000000       0.50000000 </v>
   <v>       0.75000000       0.25000000       0.50000000 </v>
   <v>       0.50000000       0.50000000       0.50000000 </v>
   <v>       0.00000000       0.50000000       0.50000000 </v>
   <v>       0.50000000       0.00000000       0.00000000 </v>
   <v>       0.50000000       0.50000000       0.00000000 </v>
   <v>       0.00000000       0.00000000       0.50000000 </v>
   <v>       0.50000000       0.00000000       0.50000000 </v>
   <v>       0.00000000       0.50000000       0.00000000 </v>
   <v>       0.00000000       0.00000000       0.00000000 </v>
   <v>       0.25000000       0.50000000       0.75000000 </v>
   <v>       0.00000000       0.50000000       0.25000000 </v>
   <v>       0.50000000       0.00000000       0.75000000 </v>
   <v>       0.50000000       0.50000000       0.75000000 </v>
   <v>       0.00000000       0.25000000       0.50000000 </v>
   <v>       0.50000000       0.25000000       0.50000000 </v>
   <v>       0.50000000       0.25000000       0.00000000 </v>
   <v>       0.50000000       0.75000000       0.00000000 </v>
   <v>       0.75000000       0.00000000       0.75000000 </v>
   <v>       0.50000000       0.00000000       0.25000000 </v>
   <v>       0.00000000       0.50000000       0.75000000 </v>
   <v>       0.00000000       0.00000000       0.75000000 </v>
   <v>       0.50000000       0.75000000       0.50000000 </v>
   <v>       0.00000000       0.75000000       0.50000000 </v>
   <v>       0.00000000       0.75000000       0.00000000 </v>
   <v>       0.00000000       0.25000000       0.00000000 </v>
  </varray>
 </structure>
 <calculation>
  <scstep>
   <time name="dav">   15.21   15.22</time>
   <time name="total">   15.79   15.80</time>
   <energy>
    <i name="alphaZ">   1197.30728287 </i>
    <i name="ewald"> -17342.71275252 </i>
    <i name="hartreedc">  -7545.69271645 </i>
    <i name="XCdc">   1086.27377745 </i>
    <i name="pawpsdc">  20377.93945936 </i>
    <i name="pawaedc"> -21035.46554250 </i>
    <i name="eentropy">     -0.00638704 </i>
    <i name="bandstr">   1944.37930159 </i>
    <i name="atom">  24790.01456472 </i>
    <i name="e_fr_energy">   3472.03698749 </i>
    <i name="e_wo_entrp">   3472.04337453 </i>
    <i name="e_0_energy">   3472.04018101 </i>
   </energy>
  </scstep>
  <scstep>
   <time name="dav">   15.42   15.42</time>
   <time name="total">   15.42   15.44</time>
   <energy>
    <i name="e_fr_energy">    411.78479587 </i>
    <i name="e_wo_entrp">    411.79185088 </i>
    <i name="e_0_energy">    411.78832338 </i>
   </energy>
  </scstep>
  <scstep>
   <time name="dav">   15.56   15.56</time>
   <time name="total">   15.56   15.58</time>
   <energy>
    <i name="e_fr_energy">   -139.24912107 </i>
    <i name="e_wo_entrp">   -139.23482656 </i>
    <i name="e_0_energy">   -139.24197381 </i>
   </energy>
  </scstep>
  <scstep>
   <time name="dav">   19.96   19.96</time>
   <time name="total">   19.96   19.98</time>
   <energy>
    <i name="e_fr_energy">   -191.24237429 </i>
    <i name="e_wo_entrp">   -191.23184044 </i>
    <i name="e_0_energy">   -191.23710736 </i>
   </energy>
  </scstep>
  <scstep>
   <time name="dav">   24.39   24.39</time>
   <time name="total">   25.51   25.54</time>
   <energy>
    <i name="e_fr_energy">   -194.35646892 </i>
    <i name="e_wo_entrp">   -194.34479004 </i>
    <i name="e_0_energy">   -194.35062948 </i>
   </energy>
  </scstep>
  <scstep>
   <time name="dav">   21.48   21.48</time>
   <time name="total">   23.17   23.19</time>
   <energy>
    <i name="e_fr_energy">   -170.51426778 </i>
    <i name="e_wo_entrp">   -170.48596754 </i>
    <i name="e_0_energy">   -170.50011766 </i>
   </energy>
  </scstep>
  <scstep>
   <time name="dav">   20.67   20.88</time>
   <time name="total">   22.58   22.80</time>
   <energy>
    <i name="e_fr_energy">   -158.79921119 </i>
    <i name="e_wo_entrp">   -158.78233298 </i>
    <i name="e_0_energy">   -158.79077209 </i>
   </energy>
  </scstep>
  <scstep>
   <time name="dav">   21.23   21.24</time>
   <time name="total">   22.92   22.94</time>
   <energy>
    <i name="e_fr_energy">   -160.20495612 </i>
    <i name="e_wo_entrp">   -160.18785627 </i>
    <i name="e_0_energy">   -160.19640620 </i>
   </energy>
  </scstep>
  <scstep>
   <time name="dav">   20.43   20.44</time>
   <time name="total">   22.12   22.37</time>
   <energy>
    <i name="e_fr_energy">   -160.99420955 </i>
    <i name="e_wo_entrp">   -160.98781925 </i>
    <i name="e_0_energy">   -160.99101440 </i>
   </energy>
  </scstep>
  <scstep>
   <time name="dav">   20.49   20.49</time>
   <time name="total">   22.18   22.20</time>
   <energy>
    <i name="e_fr_energy">   -157.81403862 </i>
    <i name="e_wo_entrp">   -157.79317626 </i>
    <i name="e_0_energy">   -157.80360744 </i>
   </energy>
  </scstep>
  <scstep>
   <time name="dav">   22.15   22.15</time>
   <time name="total">   23.84   23.85</time>
   <energy>
    <i name="e_fr_energy">   -157.78644367 </i>
    <i name="e_wo_entrp">   -157.76894496 </i>
    <i name="e_0_energy">   -157.77769431 </i>
   </energy>
  </scstep>
  <scstep>
   <time name="dav">   22.33   22.34</time>
   <time name="total">   24.02   24.04</time>
   <energy>
    <i name="e_fr_energy">   -157.85274460 </i>
    <i name="e_wo_entrp">   -157.83540698 </i>
    <i name="e_0_energy">   -157.84407579 </i>
   </energy>
  </scstep>
  <scstep>
   <time name="dav">   21.47   21.47</time>
   <time name="total">   23.16   23.18</time>
   <energy>
    <i name="e_fr_energy">   -157.88042908 </i>
    <i name="e_wo_entrp">   -157.86333699 </i>
    <i name="e_0_energy">   -157.87188303 </i>
   </energy>
  </scstep>
  <scstep>
   <time name="dav">   20.86   20.87</time>
   <time name="total">   22.55   22.57</time>
   <energy>
    <i name="e_fr_energy">   -157.89387706 </i>
    <i name="e_wo_entrp">   -157.87832367 </i>
    <i name="e_0_energy">   -157.88610036 </i>
   </energy>
  </scstep>
  <scstep>
   <time name="dav">   22.38   22.38</time>
   <time name="total">   24.07   24.30</time>
   <energy>
    <i name="e_fr_energy">   -157.92121030 </i>
    <i name="e_wo_entrp">   -157.90975473 </i>
    <i name="e_0_energy">   -157.91548251 </i>
   </energy>
  </scstep>
  <scstep>
   <time name="dav">   21.36   21.36</time>
   <time name="total">   23.04   23.06</time>
   <energy>
    <i name="e_fr_energy">   -157.94327674 </i>
    <i name="e_wo_entrp">   -157.93319018 </i>
    <i name="e_0_energy">   -157.93823346 </i>
   </energy>
  </scstep>
  <scstep>
   <time name="dav">   22.06   22.06</time>
   <time name="total">   23.75   23.77</time>
   <energy>
    <i name="e_fr_energy">   -157.91757421 </i>
    <i name="e_wo_entrp">   -157.90635601 </i>
    <i name="e_0_energy">   -157.91196511 </i>
   </energy>
  </scstep>
  <scstep>
   <time name="dav">   22.49   22.49</time>
   <time name="total">   24.27   24.29</time>
   <energy>
    <i name="e_fr_energy">   -157.90321961 </i>
    <i name="e_wo_entrp">   -157.89130330 </i>
    <i name="e_0_energy">   -157.89726145 </i>
   </energy>
  </scstep>
  <scstep>
   <time name="dav">   22.74   22.74</time>
   <time name="total">   24.43   24.45</time>
   <energy>
    <i name="e_fr_energy">   -157.87889222 </i>
    <i name="e_wo_entrp">   -157.86640516 </i>
    <i name="e_0_energy">   -157.87264869 </i>
   </energy>
  </scstep>
  <scstep>
   <time name="dav">   21.84   22.06</time>
   <time name="total">   23.76   24.00</time>
   <energy>
    <i name="e_fr_energy">   -157.78663880 </i>
    <i name="e_wo_entrp">   -157.76835261 </i>
    <i name="e_0_energy">   -157.77749570 </i>
   </energy>
  </scstep>
  <scstep>
   <time name="dav">   22.85   22.86</time>
   <time name="total">   24.55   24.56</time>
   <energy>
    <i name="e_fr_energy">   -157.93808106 </i>
    <i name="e_wo_entrp">   -157.92571548 </i>
    <i name="e_0_energy">   -157.93189827 </i>
   </energy>
  </scstep>
  <scstep>
   <time name="dav">   19.93   19.97</time>
   <time name="total">   21.62   21.68</time>
   <energy>
    <i name="e_fr_energy">   -157.92117508 </i>
    <i name="e_wo_entrp">   -157.90550204 </i>
    <i name="e_0_energy">   -157.91333856 </i>
   </energy>
  </scstep>
  <scstep>
   <time name="dav">   21.82   21.83</time>
   <time name="total">   23.52   23.53</time>
   <energy>
    <i name="e_fr_energy">   -157.76490315 </i>
    <i name="e_wo_entrp">   -157.74886177 </i>
    <i name="e_0_energy">   -157.75688246 </i>
   </energy>
  </scstep>
  <scstep>
   <time name="dav">   20.27   20.27</time>
   <time name="total">   22.12   22.14</time>
   <energy>
    <i name="e_fr_energy">   -157.88125329 </i>
    <i name="e_wo_entrp">   -157.86525270 </i>
    <i name="e_0_energy">   -157.87325299 </i>
   </energy>
  </scstep>
  <scstep>
   <time name="dav">   21.54   21.55</time>
   <time name="total">   23.23   23.25</time>
   <energy>
    <i name="e_fr_energy">   -157.88456530 </i>
    <i name="e_wo_entrp">   -157.86778182 </i>
    <i name="e_0_energy">   -157.87617356 </i>
   </energy>
  </scstep>
  <scstep>
   <time name="dav">   23.23   23.23</time>
   <time name="total">   24.92   24.94</time>
   <energy>
    <i name="e_fr_energy">   -157.88843384 </i>
    <i name="e_wo_entrp">   -157.87022855 </i>
    <i name="e_0_energy">   -157.87933119 </i>
   </energy>
  </scstep>
  <scstep>
   <time name="dav">   23.67   23.67</time>
   <time name="total">   25.36   25.38</time>
   <energy>
    <i name="e_fr_energy">   -157.89602504 </i>
    <i name="e_wo_entrp">   -157.87689384 </i>
    <i name="e_0_energy">   -157.88645944 </i>
   </energy>
  </scstep>
  <scstep>
   <time name="dav">   21.07   21.07</time>
   <time name="total">   22.93   22.95</time>
   <energy>
    <i name="e_fr_energy">   -157.88803255 </i>
    <i name="e_wo_entrp">   -157.86957503 </i>
    <i name="e_0_energy">   -157.87880379 </i>
   </energy>
  </scstep>
  <scstep>
   <time name="dav">   20.88   20.89</time>
   <time name="total">   22.57   22.60</time>
   <energy>
    <i name="e_fr_energy">   -157.88974391 </i>
    <i name="e_wo_entrp">   -157.87151062 </i>
    <i name="e_0_energy">   -157.88062727 </i>
   </energy>
  </scstep>
  <scstep>
   <time name="dav">   21.30   21.30</time>
   <time name="total">   22.99   23.24</time>
   <energy>
    <i name="e_fr_energy">   -157.88929827 </i>
    <i name="e_wo_entrp">   -157.87135105 </i>
    <i name="e_0_energy">   -157.88032466 </i>
   </energy>
  </scstep>
  <scstep>
   <time name="dav">   21.70   21.71</time>
   <time name="total">   23.40   23.42</time>
   <energy>
    <i name="e_fr_energy">   -157.88953719 </i>
    <i name="e_wo_entrp">   -157.87175628 </i>
    <i name="e_0_energy">   -157.88064674 </i>
   </energy>
  </scstep>
  <scstep>
   <time name="dav">   21.68   21.68</time>
   <time name="total">   23.37   23.39</time>
   <energy>
    <i name="e_fr_energy">   -157.89020859 </i>
    <i name="e_wo_entrp">   -157.87201476 </i>
    <i name="e_0_energy">   -157.88111167 </i>
   </energy>
  </scstep>
  <scstep>
   <time name="dav">   21.05   21.05</time>
   <time name="total">   22.74   22.76</time>
   <energy>
    <i name="e_fr_energy">   -157.88949217 </i>
    <i name="e_wo_entrp">   -157.87114697 </i>
    <i name="e_0_energy">   -157.88031957 </i>
   </energy>
  </scstep>
  <scstep>
   <time name="dav">   20.27   20.48</time>
   <time name="total">   22.19   22.42</time>
   <energy>
    <i name="e_fr_energy">   -157.88977017 </i>
    <i name="e_wo_entrp">   -157.87129983 </i>
    <i name="e_0_energy">   -157.88053500 </i>
   </energy>
  </scstep>
  <scstep>
   <time name="dav">   21.47   21.48</time>
   <time name="total">   23.17   23.19</time>
   <energy>
    <i name="e_fr_energy">   -157.89060475 </i>
    <i name="e_wo_entrp">   -157.87205470 </i>
    <i name="e_0_energy">   -157.88132973 </i>
   </energy>
  </scstep>
  <scstep>
   <time name="dav">   21.65   21.66</time>
   <time name="total">   23.34   23.38</time>
   <energy>
    <i name="e_fr_energy">   -157.89130628 </i>
    <i name="e_wo_entrp">   -157.87273358 </i>
    <i name="e_0_energy">   -157.88201993 </i>
   </energy>
  </scstep>
  <scstep>
   <time name="dav">   20.93   20.94</time>
   <time name="total">   22.63   22.64</time>
   <energy>
    <i name="e_fr_energy">   -157.88852168 </i>
    <i name="e_wo_entrp">   -157.87049311 </i>
    <i name="e_0_energy">   -157.87950740 </i>
   </energy>
  </scstep>
  <scstep>
   <time name="dav">   22.49   22.49</time>
   <time name="total">   24.18   24.20</time>
   <energy>
    <i name="e_fr_energy">   -157.88683032 </i>
    <i name="e_wo_entrp">   -157.86947201 </i>
    <i name="e_0_energy">   -157.87815117 </i>
   </energy>
  </scstep>
  <scstep>
   <time name="dav">   22.30   22.51</time>
   <time name="total">   23.99   24.22</time>
   <energy>
    <i name="e_fr_energy">   -157.88413067 </i>
    <i name="e_wo_entrp">   -157.86722231 </i>
    <i name="e_0_energy">   -157.87567649 </i>
   </energy>
  </scstep>
  <scstep>
   <time name="dav">   22.30   22.31</time>
   <time name="total">   24.23   24.25</time>
   <energy>
    <i name="e_fr_energy">   -157.88163781 </i>
    <i name="e_wo_entrp">   -157.86541248 </i>
    <i name="e_0_energy">   -157.87352515 </i>
   </energy>
  </scstep>
  <scstep>
   <time name="dav">   22.45   22.45</time>
   <time name="total">   24.15   24.16</time>
   <energy>
    <i name="e_fr_energy">   -157.87858721 </i>
    <i name="e_wo_entrp">   -157.86291423 </i>
    <i name="e_0_energy">   -157.87075072 </i>
   </energy>
  </scstep>
  <scstep>
   <time name="dav">   23.19   23.19</time>
   <time name="total">   24.88   24.91</time>
   <energy>
    <i name="e_fr_energy">   -157.87962592 </i>
    <i name="e_wo_entrp">   -157.86416238 </i>
    <i name="e_0_energy">   -157.87189415 </i>
   </energy>
  </scstep>
  <scstep>
   <time name="dav">   19.79   19.80</time>
   <time name="total">   21.76   21.78</time>
   <energy>
    <i name="e_fr_energy">   -157.88171740 </i>
    <i name="e_wo_entrp">   -157.86632051 </i>
    <i name="e_0_energy">   -157.87401895 </i>
   </energy>
  </scstep>
  <scstep>
   <time name="dav">   20.62   20.62</time>
   <time name="total">   22.31   22.33</time>
   <energy>
    <i name="e_fr_energy">   -157.88277682 </i>
    <i name="e_wo_entrp">   -157.86744226 </i>
    <i name="e_0_energy">   -157.87510954 </i>
   </energy>
  </scstep>
  <scstep>
   <time name="dav">   21.05   21.05</time>
   <time name="total">   22.74   22.76</time>
   <energy>
    <i name="e_fr_energy">   -157.88307193 </i>
    <i name="e_wo_entrp">   -157.86775599 </i>
    <i name="e_0_energy">   -157.87541396 </i>
   </energy>
  </scstep>
  <scstep>
   <time name="dav">   20.92   20.92</time>
   <time name="total">   22.83   22.84</time>
   <energy>
    <i name="e_fr_energy">   -157.88228569 </i>
    <i name="e_wo_entrp">   -157.86686424 </i>
    <i name="e_0_energy">   -157.87457497 </i>
   </energy>
  </scstep>
  <scstep>
   <time name="dav">   20.66   20.66</time>
   <time name="total">   22.35   22.37</time>
   <energy>
    <i name="e_fr_energy">   -157.88183901 </i>
    <i name="e_wo_entrp">   -157.86612580 </i>
    <i name="e_0_energy">   -157.87398241 </i>
   </energy>
  </scstep>
  <scstep>
   <time name="dav">   22.91   22.91</time>
   <time name="total">   24.60   24.62</time>
   <energy>
    <i name="e_fr_energy">   -157.88267181 </i>
    <i name="e_wo_entrp">   -157.86643635 </i>
    <i name="e_0_energy">   -157.87455408 </i>
   </energy>
  </scstep>
  <scstep>
   <time name="dav">   23.00   23.00</time>
   <time name="total">   24.69   24.71</time>
   <energy>
    <i name="e_fr_energy">   -157.88378836 </i>
    <i name="e_wo_entrp">   -157.86725233 </i>
    <i name="e_0_energy">   -157.87552035 </i>
   </energy>
  </scstep>
  <scstep>
   <time name="dav">   21.29   21.52</time>
   <time name="total">   23.21   23.46</time>
   <energy>
    <i name="e_fr_energy">   -157.88508893 </i>
    <i name="e_wo_entrp">   -157.86814689 </i>
    <i name="e_0_energy">   -157.87661791 </i>
   </energy>
  </scstep>
  <scstep>
   <time name="dav">   20.71   20.71</time>
   <time name="total">   22.40   22.42</time>
   <energy>
    <i name="e_fr_energy">   -157.88373993 </i>
    <i name="e_wo_entrp">   -157.86651186 </i>
    <i name="e_0_energy">   -157.87512589 </i>
   </energy>
  </scstep>
  <scstep>
   <time name="dav">   20.52   20.52</time>
   <time name="total">   22.21   22.23</time>
   <energy>
    <i name="e_fr_energy">   -157.88552476 </i>
    <i name="e_wo_entrp">   -157.86801741 </i>
    <i name="e_0_energy">   -157.87677109 </i>
   </energy>
  </scstep>
  <scstep>
   <time name="dav">   22.49   22.50</time>
   <time name="total">   24.42   24.43</time>
   <energy>
    <i name="e_fr_energy">   -157.88623527 </i>
    <i name="e_wo_entrp">   -157.86857675 </i>
    <i name="e_0_energy">   -157.87740601 </i>
   </energy>
  </scstep>
  <scstep>
   <time name="dav">   21.66   21.66</time>
   <time name="total">   23.35   23.37</time>
   <energy>
    <i name="e_fr_energy">   -157.88848414 </i>
    <i name="e_wo_entrp">   -157.87061614 </i>
    <i name="e_0_energy">   -157.87955014 </i>
   </energy>
  </scstep>
  <scstep>
   <time name="dav">   22.74   22.74</time>
   <time name="total">   24.43   24.45</time>
   <energy>
    <i name="e_fr_energy">   -157.89245389 </i>
    <i name="e_wo_entrp">   -157.87465041 </i>
    <i name="e_0_energy">   -157.88355215 </i>
   </energy>
  </scstep>
  <scstep>
   <time name="dav">   22.82   22.82</time>
   <time name="total">   24.52   24.75</time>
   <energy>
    <i name="e_fr_energy">   -157.89906207 </i>
    <i name="e_wo_entrp">   -157.88111398 </i>
    <i name="e_0_energy">   -157.89008803 </i>
   </energy>
  </scstep>
  <scstep>
   <time name="dav">   19.82   19.82</time>
   <time name="total">   21.51   21.53</time>
   <energy>
    <i name="e_fr_energy">   -157.90028508 </i>
    <i name="e_wo_entrp">   -157.88245633 </i>
    <i name="e_0_energy">   -157.89137070 </i>
   </energy>
  </scstep>
  <scstep>
   <time name="dav">   20.36   20.36</time>
   <time name="total">   22.05   22.07</time>
   <energy>
    <i name="e_fr_energy">   -157.89870045 </i>
    <i name="e_wo_entrp">   -157.88054451 </i>
    <i name="e_0_energy">   -157.88962248 </i>
   </energy>
  </scstep>
  <scstep>
   <time name="dav">   20.09   20.09</time>
   <time name="total">   22.01   22.03</time>
   <energy>
    <i name="e_fr_energy">   -157.89929400 </i>
    <i name="e_wo_entrp">   -157.88110911 </i>
    <i name="e_0_energy">   -157.89020156 </i>
   </energy>
  </scstep>
  <scstep>
   <time name="dav">   20.01   20.01</time>
   <time name="total">   21.71   21.73</time>
   <energy>
    <i name="e_fr_energy">   -157.89874582 </i>
    <i name="e_wo_entrp">   -157.88040549 </i>
    <i name="e_0_energy">   -157.88957566 </i>
   </energy>
  </scstep>
  <scstep>
   <time name="dav">   21.31   21.56</time>
   <time name="total">   23.01   23.26</time>
   <energy>
    <i name="e_fr_energy">   -157.88978103 </i>
    <i name="e_wo_entrp">   -157.87155507 </i>
    <i name="e_0_energy">   -157.88066805 </i>
   </energy>
  </scstep>
  <scstep>
   <time name="dav">   20.60   20.61</time>
   <time name="total">   22.30   22.55</time>
   <energy>
    <i name="e_fr_energy">   -157.89188887 </i>
    <i name="e_wo_entrp">   -157.87350143 </i>
    <i name="e_0_energy">   -157.88269515 </i>
   </energy>
  </scstep>
  <scstep>
   <time name="dav">   21.02   21.26</time>
   <time name="total">   22.72   22.98</time>
   <energy>
    <i name="e_fr_energy">   -157.89573487 </i>
    <i name="e_wo_entrp">   -157.87732267 </i>
    <i name="e_0_energy">   -157.88652877 </i>
   </energy>
  </scstep>
  <scstep>
   <time name="dav">   21.91   21.91</time>
   <time name="total">   23.60   23.62</time>
   <energy>
    <i name="e_fr_energy">   -157.89895997 </i>
    <i name="e_wo_entrp">   -157.88049419 </i>
    <i name="e_0_energy">   -157.88972708 </i>
   </energy>
  </scstep>
  <scstep>
   <time name="dav">   22.23   22.23</time>
   <time name="total">   23.92   23.94</time>
   <energy>
    <i name="e_fr_energy">   -157.90136847 </i>
    <i name="e_wo_entrp">   -157.88269553 </i>
    <i name="e_0_energy">   -157.89203200 </i>
   </energy>
  </scstep>
  <scstep>
   <time name="dav">   20.45   20.46</time>
   <time name="total">   22.38   22.40</time>
   <energy>
    <i name="e_fr_energy">   -157.89992616 </i>
    <i name="e_wo_entrp">   -157.88122829 </i>
    <i name="e_0_energy">   -157.89057722 </i>
   </energy>
  </scstep>
  <scstep>
   <time name="dav">   20.65   20.65</time>
   <time name="total">   22.34   22.36</time>
   <energy>
    <i name="e_fr_energy">   -157.90496928 </i>
    <i name="e_wo_entrp">   -157.88537412 </i>
    <i name="e_0_energy">   -157.89517170 </i>
   </energy>
  </scstep>
  <scstep>
   <time name="dav">   20.09   20.09</time>
   <time name="total">   22.02   22.04</time>
   <energy>
    <i name="e_fr_energy">   -157.90415439 </i>
    <i name="e_wo_entrp">   -157.88435933 </i>
    <i name="e_0_energy">   -157.89425686 </i>
   </energy>
  </scstep>
  <scstep>
   <time name="dav">   20.64   20.64</time>
   <time name="total">   22.34   22.36</time>
   <energy>
    <i name="e_fr_energy">   -157.90281574 </i>
    <i name="e_wo_entrp">   -157.88363967 </i>
    <i name="e_0_energy">   -157.89322770 </i>
   </energy>
  </scstep>
  <scstep>
   <time name="dav">   21.53   21.54</time>
   <time name="total">   23.40   23.42</time>
   <energy>
    <i name="e_fr_energy">   -157.89344115 </i>
    <i name="e_wo_entrp">   -157.87501357 </i>
    <i name="e_0_energy">   -157.88422736 </i>
   </energy>
  </scstep>
  <scstep>
   <time name="dav">   20.09   20.10</time>
   <time name="total">   21.79   21.81</time>
   <energy>
    <i name="e_fr_energy">   -157.90039655 </i>
    <i name="e_wo_entrp">   -157.88215812 </i>
    <i name="e_0_energy">   -157.89127733 </i>
   </energy>
  </scstep>
  <scstep>
   <time name="dav">   20.66   20.67</time>
   <time name="total">   22.36   22.38</time>
   <energy>
    <i name="e_fr_energy">   -157.89381290 </i>
    <i name="e_wo_entrp">   -157.87594772 </i>
    <i name="e_0_energy">   -157.88488031 </i>
   </energy>
  </scstep>
  <scstep>
   <time name="dav">   21.82   21.83</time>
   <time name="total">   23.52   23.54</time>
   <energy>
    <i name="e_fr_energy">   -157.89482230 </i>
    <i name="e_wo_entrp">   -157.87711459 </i>
    <i name="e_0_energy">   -157.88596845 </i>
   </energy>
  </scstep>
  <scstep>
   <time name="dav">   21.61   21.62</time>
   <time name="total">   23.53   23.55</time>
   <energy>
    <i name="e_fr_energy">   -157.89433014 </i>
    <i name="e_wo_entrp">   -157.87685549 </i>
    <i name="e_0_energy">   -157.88559281 </i>
   </energy>
  </scstep>
  <scstep>
   <time name="dav">   21.82   21.83</time>
   <time name="total">   23.52   23.54</time>
   <energy>
    <i name="e_fr_energy">   -157.89300011 </i>
    <i name="e_wo_entrp">   -157.87575041 </i>
    <i name="e_0_energy">   -157.88437526 </i>
   </energy>
  </scstep>
  <scstep>
   <time name="dav">   21.53   21.64</time>
   <time name="total">   23.22   23.35</time>
   <energy>
    <i name="e_fr_energy">   -157.89766587 </i>
    <i name="e_wo_entrp">   -157.88091890 </i>
    <i name="e_0_energy">   -157.88929238 </i>
   </energy>
  </scstep>
  <scstep>
   <time name="dav">   21.09   21.10</time>
   <time name="total">   22.79   22.81</time>
   <energy>
    <i name="e_fr_energy">   -157.89679338 </i>
    <i name="e_wo_entrp">   -157.88022580 </i>
    <i name="e_0_energy">   -157.88850959 </i>
   </energy>
  </scstep>
  <scstep>
   <time name="dav">   21.58   21.58</time>
   <time name="total">   23.49   23.51</time>
   <energy>
    <i name="e_fr_energy">   -157.89902273 </i>
    <i name="e_wo_entrp">   -157.88259726 </i>
    <i name="e_0_energy">   -157.89080999 </i>
   </energy>
  </scstep>
  <scstep>
   <time name="dav">   19.45   19.46</time>
   <time name="total">   21.15   21.17</time>
   <energy>
    <i name="e_fr_energy">   -157.89834923 </i>
    <i name="e_wo_entrp">   -157.88190875 </i>
    <i name="e_0_energy">   -157.89012899 </i>
   </energy>
  </scstep>
  <scstep>
   <time name="dav">   21.25   21.25</time>
   <time name="total">   23.16   23.18</time>
   <energy>
    <i name="e_fr_energy">   -157.89739680 </i>
    <i name="e_wo_entrp">   -157.88097549 </i>
    <i name="e_0_energy">   -157.88918614 </i>
   </energy>
  </scstep>
  <scstep>
   <time name="dav">   21.72   21.73</time>
   <time name="total">   23.42   23.44</time>
   <energy>
    <i name="e_fr_energy">   -157.90270223 </i>
    <i name="e_wo_entrp">   -157.88634613 </i>
    <i name="e_0_energy">   -157.89452418 </i>
   </energy>
  </scstep>
  <scstep>
   <time name="dav">   20.30   20.53</time>
   <time name="total">   22.23   22.47</time>
   <energy>
    <i name="e_fr_energy">   -157.90251469 </i>
    <i name="e_wo_entrp">   -157.88613976 </i>
    <i name="e_0_energy">   -157.89432723 </i>
   </energy>
  </scstep>
  <scstep>
   <time name="dav">   20.60   20.60</time>
   <time name="total">   22.30   22.32</time>
   <energy>
    <i name="e_fr_energy">   -157.90199483 </i>
    <i name="e_wo_entrp">   -157.88565047 </i>
    <i name="e_0_energy">   -157.89382265 </i>
   </energy>
  </scstep>
  <scstep>
   <time name="dav">   20.82   20.82</time>
   <time name="total">   22.51   22.53</time>
   <energy>
    <i name="e_fr_energy">   -157.90414756 </i>
    <i name="e_wo_entrp">   -157.88769636 </i>
    <i name="e_0_energy">   -157.89592196 </i>
   </energy>
  </scstep>
  <scstep>
   <time name="dav">   21.43   21.43</time>
   <time name="total">   23.32   23.34</time>
   <energy>
    <i name="e_fr_energy">   -157.90101237 </i>
    <i name="e_wo_entrp">   -157.88469442 </i>
    <i name="e_0_energy">   -157.89285339 </i>
   </energy>
  </scstep>
  <scstep>
   <time name="dav">   22.21   22.21</time>
   <time name="total">   23.91   23.93</time>
   <energy>
    <i name="e_fr_energy">   -157.88891701 </i>
    <i name="e_wo_entrp">   -157.87258428 </i>
    <i name="e_0_energy">   -157.88075064 </i>
   </energy>
  </scstep>
  <scstep>
   <time name="dav">   20.16   20.16</time>
   <time name="total">   21.85   22.10</time>
   <energy>
    <i name="e_fr_energy">   -157.89398535 </i>
    <i name="e_wo_entrp">   -157.87776356 </i>
    <i name="e_0_energy">   -157.88587446 </i>
   </energy>
  </scstep>
  <scstep>
   <time name="dav">   20.77   20.78</time>
   <time name="total">   22.47   22.49</time>
   <energy>
    <i name="e_fr_energy">   -157.89434013 </i>
    <i name="e_wo_entrp">   -157.87817203 </i>
    <i name="e_0_energy">   -157.88625608 </i>
   </energy>
  </scstep>
  <scstep>
   <time name="dav">   21.94   21.95</time>
   <time name="total">   23.63   23.65</time>
   <energy>
    <i name="e_fr_energy">   -157.89416992 </i>
    <i name="e_wo_entrp">   -157.87803377 </i>
    <i name="e_0_energy">   -157.88610184 </i>
   </energy>
  </scstep>
  <scstep>
   <time name="dav">   20.53   20.53</time>
   <time name="total">   22.23   22.24</time>
   <energy>
    <i name="e_fr_energy">   -157.89394632 </i>
    <i name="e_wo_entrp">   -157.87782656 </i>
    <i name="e_0_energy">   -157.88588644 </i>
   </energy>
  </scstep>
  <scstep>
   <time name="dav">   21.95   21.96</time>
   <time name="total">   23.64   23.67</time>
   <energy>
    <i name="e_fr_energy">   -157.88033399 </i>
    <i name="e_wo_entrp">   -157.86401020 </i>
    <i name="e_0_energy">   -157.87217209 </i>
   </energy>
  </scstep>
  <scstep>
   <time name="dav">   21.11   21.12</time>
   <time name="total">   22.81   22.83</time>
   <energy>
    <i name="e_fr_energy">   -157.88523307 </i>
    <i name="e_wo_entrp">   -157.86911195 </i>
    <i name="e_0_energy">   -157.87717251 </i>
   </energy>
  </scstep>
  <scstep>
   <time name="dav">   21.51   21.68</time>
   <time name="total">   23.20   23.39</time>
   <energy>
    <i name="e_fr_energy">   -157.88467234 </i>
    <i name="e_wo_entrp">   -157.86874358 </i>
    <i name="e_0_energy">   -157.87670796 </i>
   </energy>
  </scstep>
  <scstep>
   <time name="dav">   21.50   21.51</time>
   <time name="total">   23.38   23.40</time>
   <energy>
    <i name="e_fr_energy">   -157.88512726 </i>
    <i name="e_wo_entrp">   -157.86932280 </i>
    <i name="e_0_energy">   -157.87722503 </i>
   </energy>
  </scstep>
  <scstep>
   <time name="dav">   20.22   20.22</time>
   <time name="total">   21.92   21.94</time>
   <energy>
    <i name="e_fr_energy">   -157.88607926 </i>
    <i name="e_wo_entrp">   -157.87030727 </i>
    <i name="e_0_energy">   -157.87819327 </i>
   </energy>
  </scstep>
  <scstep>
   <time name="dav">   21.05   21.05</time>
   <time name="total">   22.74   22.76</time>
   <energy>
    <i name="e_fr_energy">   -157.88413816 </i>
    <i name="e_wo_entrp">   -157.86850710 </i>
    <i name="e_0_energy">   -157.87632263 </i>
   </energy>
  </scstep>
  <scstep>
   <time name="dav">   21.76   21.77</time>
   <time name="total">   23.70   23.72</time>
   <energy>
    <i name="e_fr_energy">   -157.88444926 </i>
    <i name="e_wo_entrp">   -157.86896438 </i>
    <i name="e_0_energy">   -157.87670682 </i>
   </energy>
  </scstep>
  <scstep>
   <time name="dav">   21.31   21.31</time>
   <time name="total">   23.00   23.25</time>
   <energy>
    <i name="e_fr_energy">   -157.88448195 </i>
    <i name="e_wo_entrp">   -157.86903921 </i>
    <i name="e_0_energy">   -157.87676058 </i>
   </energy>
  </scstep>
  <scstep>
   <time name="dav">   18.99   19.00</time>
   <time name="total">   20.69   20.71</time>
   <energy>
    <i name="e_fr_energy">   -157.88443327 </i>
    <i name="e_wo_entrp">   -157.86901485 </i>
    <i name="e_0_energy">   -157.87672406 </i>
   </energy>
  </scstep>
  <scstep>
   <time name="dav">   18.05   18.06</time>
   <time name="total">   18.62   18.64</time>
   <energy>
    <i name="alphaZ">   1197.30728287 </i>
    <i name="ewald"> -17342.71275252 </i>
    <i name="hartreedc">  -7565.91365165 </i>
    <i name="XCdc">   1087.17608071 </i>
    <i name="pawpsdc">  31108.57089466 </i>
    <i name="pawaedc"> -31839.30292340 </i>
    <i name="eentropy">     -0.01539541 </i>
    <i name="bandstr">  -1593.00867690 </i>
    <i name="atom">  24790.01456472 </i>
    <i name="e_fr_energy">   -157.88457690 </i>
    <i name="e_wo_entrp">   -157.86918149 </i>
    <i name="e_0_energy">   -157.87687919 </i>
   </energy>
  </scstep>
  <structure>
   <crystal>
    <varray name="basis" >
     <v>      11.31370850       0.00000000       0.00000000 </v>
     <v>       0.00000000       8.00000000       0.00000000 </v>
     <v>      -5.65685425       0.00000000       5.65685425 </v>
    </varray>
    <i name="volume">    512.00000000 </i>
    <varray name="rec_basis" >
     <v>       0.08838835       0.00000000       0.08838835 </v>
     <v>       0.00000000       0.12500000       0.00000000 </v>
     <v>       0.00000000       0.00000000       0.17677670 </v>
    </varray>
   </crystal>
   <varray name="positions" >
    <v>       0.25000000       0.75000000       0.00000000 </v>
    <v>       0.25000000       0.25000000       0.00000000 </v>
    <v>       0.75000000       0.75000000       0.50000000 </v>
    <v>       0.25000000       0.75000000       0.50000000 </v>
    <v>       0.75000000       0.25000000       0.00000000 </v>
    <v>       0.75000000       0.75000000       0.00000000 </v>
    <v>       0.25000000       0.25000000       0.50000000 </v>
    <v>       0.75000000       0.25000000       0.50000000 </v>
    <v>       0.50000000       0.50000000       0.50000000 </v>
    <v>       0.00000000       0.50000000       0.50000000 </v>
    <v>       0.50000000       0.00000000       0.00000000 </v>
    <v>       0.50000000       0.50000000       0.00000000 </v>
    <v>       0.00000000       0.00000000       0.50000000 </v>
    <v>       0.50000000       0.00000000       0.50000000 </v>
    <v>       0.00000000       0.50000000       0.00000000 </v>
    <v>       0.00000000       0.00000000       0.00000000 </v>
    <v>       0.25000000       0.50000000       0.75000000 </v>
    <v>       0.00000000       0.50000000       0.25000000 </v>
    <v>       0.50000000       0.00000000       0.75000000 </v>
    <v>       0.50000000       0.50000000       0.75000000 </v>
    <v>       0.00000000       0.25000000       0.50000000 </v>
    <v>       0.50000000       0.25000000       0.50000000 </v>
    <v>       0.50000000       0.25000000       0.00000000 </v>
    <v>       0.50000000       0.75000000       0.00000000 </v>
    <v>       0.75000000       0.00000000       0.75000000 </v>
    <v>       0.50000000       0.00000000       0.25000000 </v>
    <v>       0.00000000       0.50000000       0.75000000 </v>
    <v>       0.00000000       0.00000000       0.75000000 </v>
    <v>       0.50000000       0.75000000       0.50000000 </v>
    <v>       0.00000000       0.75000000       0.50000000 </v>
    <v>       0.00000000       0.75000000       0.00000000 </v>
    <v>       0.00000000       0.25000000       0.00000000 </v>
   </varray>
  </structure>
  <varray name="forces" >
   <v>       0.02842955      -0.03662900      -0.91129875 </v>
   <v>       0.02842955       0.03662900      -0.91129875 </v>
   <v>      -0.01667335       1.33858652       0.94173776 </v>
   <v>      -0.01667335      -1.33858652       0.94173776 </v>
   <v>       0.02842955      -0.03662900      -0.91129875 </v>
   <v>       0.02842955       0.03662900      -0.91129875 </v>
   <v>      -0.01667335       1.33858652       0.94173776 </v>
   <v>      -0.01667335      -1.33858652       0.94173776 </v>
   <v>      -0.68904407       0.00000000       0.54119772 </v>
   <v>       0.91094361       0.00000000       0.50202523 </v>
   <v>      -0.13050981       0.00000000       0.22023114 </v>
   <v>      -0.26549177       0.00000000      -1.39670339 </v>
   <v>      -0.68904407       0.00000000       0.54119772 </v>
   <v>       0.91094361       0.00000000       0.50202523 </v>
   <v>      -0.13050981       0.00000000       0.22023114 </v>
   <v>      -0.26549177       0.00000000      -1.39670339 </v>
   <v>       0.07165987       0.00000000       0.86239901 </v>
   <v>       0.06223594       0.00000000      -0.75226648 </v>
   <v>      -0.79787776       0.00000000      -0.03106707 </v>
   <v>       0.79070583       0.00000000      -0.06957005 </v>
   <v>      -0.03454482      -1.52888401      -0.71715896 </v>
   <v>      -0.03454482       1.52888401      -0.71715896 </v>
   <v>       0.04647770       0.06697289       0.74859690 </v>
   <v>       0.04647770      -0.06697289       0.74859690 </v>
   <v>       0.07165987       0.00000000       0.86239901 </v>
   <v>       0.06223594       0.00000000      -0.75226648 </v>
   <v>      -0.79787776       0.00000000      -0.03106707 </v>
   <v>       0.79070583       0.00000000      -0.06957005 </v>
   <v>      -0.03454482      -1.52888401      -0.71715896 </v>
   <v>      -0.03454482       1.52888401      -0.71715896 </v>
   <v>       0.04647770       0.06697289       0.74859690 </v>
   <v>       0.04647770      -0.06697289       0.74859690 </v>
  </varray>
  <varray name="stress" >
   <v>     -98.88419968       0.00000000     -30.18169570 </v>
   <v>       0.00000000     -87.72664361       0.00000000 </v>
   <v>     -30.18169637       0.00000000    -113.21980692 </v>
  </varray>
  <energy>
   <i name="e_fr_energy">   -157.88457690 </i>
   <i name="e_wo_entrp">   -157.87687919 </i>
   <i name="e_0_energy">     -0.01539541 </i>
  </energy>
  <time name="totalsc"> 2304.03 2309.63</time>
  <eigenvalues>
   <array>
    <dimension dim="1">band</dimension>
    <dimension dim="2">kpoint</dimension>
    <dimension dim="3">spin</dimension>
    <field>eigene</field>
    <field>occ</field>
    <set>
     <set comment="spin 1">
      <set comment="kpoint 1">
       <r>  -31.4326    1.0000 </r>
       <r>  -31.4297    1.0000 </r>
       <r>  -31.4196    1.0000 </r>
       <r>  -31.4171    1.0000 </r>
       <r>  -31.3560    1.0000 </r>
       <r>  -31.3545    1.0000 </r>
       <r>  -31.3434    1.0000 </r>
       <r>  -31.3420    1.0000 </r>
       <r>  -15.0271    1.0000 </r>
       <r>  -14.8405    1.0000 </r>
       <r>  -14.6230    1.0000 </r>
       <r>  -14.5444    1.0000 </r>
       <r>  -14.5176    1.0000 </r>
       <r>  -14.4723    1.0000 </r>
       <r>  -14.3863    1.0000 </r>
       <r>  -14.2226    1.0000 </r>
       <r>  -14.1392    1.0000 </r>
       <r>  -14.0889    1.0000 </r>
       <r>  -13.9579    1.0000 </r>
       <r>  -13.9233    1.0000 </r>
       <r>  -13.7709    1.0000 </r>
       <r>  -13.7062    1.0000 </r>
       <r>  -13.6446    1.0000 </r>
       <r>  -13.6159    1.0000 </r>
       <r>  -13.6041    1.0000 </r>
       <r>  -13.5555    1.0000 </r>
       <r>  -13.5409    1.0000 </r>
       <r>  -13.4707    1.0000 </r>
       <r>  -13.4515    1.0000 </r>
       <r>  -13.3813    1.0000 </r>
       <r>  -13.3803    1.0000 </r>
       <r>  -13.3721    1.0000 </r>
       <r>  -13.3585    1.0000 </r>
       <r>  -13.3131    1.0000 </r>
       <r>  -13.2799    1.0000 </r>
       <r>  -13.2675    1.0000 </r>
       <r>  -13.2325    1.0000 </r>
       <r>  -13.1883    1.0000 </r>
       <r>  -13.1750    1.0000 </r>
       <r>  -13.1465    1.0000 </r>
       <r>  -13.0997    1.0000 </r>
       <r>  -13.0181    1.0000 </r>
       <r>  -12.9855    1.0000 </r>
       <r>  -12.8173    1.0000 </r>
       <r>  -12.8006    1.0000 </r>
       <r>  -12.7332    1.0000 </r>
       <r>  -12.6890    1.0000 </r>
       <r>  -12.6129    1.0000 </r>
       <r>   -2.9966    1.0000 </r>
       <r>   -2.9369    1.0000 </r>
       <r>   -2.6499    1.0000 </r>
       <r>   -2.5971    1.0000 </r>
       <r>   -2.3202    1.0000 </r>
       <r>   -2.3069    1.0000 </r>
       <r>   -2.0575    1.0000 </r>
       <r>   -1.8800    1.0000 </r>
       <r>   -1.8682    1.0000 </r>
       <r>   -1.7778    1.0000 </r>
       <r>   -1.7646    1.0000 </r>
       <r>   -1.7255    1.0000 </r>
       <r>   -1.6547    1.0000 </r>
       <r>   -1.6033    1.0000 </r>
       <r>   -1.3769    1.0000 </r>
       <r>   -1.3233    1.0000 </r>
       <r>   -1.2420    1.0000 </r>
       <r>   -1.2290    1.0000 </r>
       <r>   -1.0878    1.0000 </r>
       <r>   -1.0673    1.0000 </r>
       <r>   -1.0189    1.0000 </r>
       <r>   -0.9772    1.0000 </r>
       <r>   -0.9719    1.0000 </r>
       <r>   -0.9553    1.0000 </r>
       <r>   -0.7652    1.0000 </r>
       <r>   -0.7285    1.0000 </r>
       <r>   -0.7156    1.0000 </r>
       <r>   -0.6685    1.0000 </r>
       <r>   -0.6506    1.0000 </r>
       <r>   -0.6441    1.0000 </r>
       <r>   -0.5962    1.0000 </r>
       <r>   -0.5822    1.0000 </r>
       <r>   -0.4987    1.0000 </r>
       <r>   -0.4865    1.0000 </r>
       <r>   -0.4799    1.0000 </r>
       <r>   -0.4771    1.0000 </r>
       <r>   -0.4355    1.0000 </r>
       <r>   -0.4285    1.0000 </r>
       <r>   -0.3999    1.0000 </r>
       <r>   -0.3618    1.0000 </r>
       <r>   -0.3555    1.0000 </r>
       <r>   -0.3427    1.0000 </r>
       <r>   -0.2452    1.0000 </r>
       <r>   -0.1667    1.0000 </r>
       <r>   -0.0603    1.0000 </r>
       <r>    0.0041    1.0000 </r>
       <r>    0.0867    1.0000 </r>
       <r>    0.2356    1.0000 </r>
       <r>    0.2452    1.0000 </r>
       <r>    0.3113    1.0000 </r>
       <r>    0.4005    1.0000 </r>
       <r>    0.5305    1.0000 </r>
       <r>    0.6024    1.0000 </r>
       <r>    0.6239    1.0000 </r>
       <r>    0.8360    1.0000 </r>
       <r>    0.8704    1.0000 </r>
       <r>    0.9259    1.0000 </r>
       <r>    1.0137    1.0000 </r>
       <r>    1.1240    1.0000 </r>
       <r>    1.1274    1.0000 </r>
       <r>    1.1830    1.0000 </r>
       <r>    1.2057    1.0000 </r>
       <r>    1.2354    1.0000 </r>
       <r>    1.3466    1.0000 </r>
       <r>    1.3821    1.0000 </r>
       <r>    1.3968    1.0000 </r>
       <r>    1.5190    1.0000 </r>
       <r>    1.5332    1.0000 </r>
       <r>    1.5410    1.0000 </r>
       <r>    1.5499    1.0000 </r>
       <r>    1.5943    1.0000 </r>
       <r>    1.6222    1.0000 </r>
       <r>    1.7472    1.0000 </r>
       <r>    1.8104    1.0000 </r>
       <r>    1.8338    1.0000 </r>
       <r>    1.8785    1.0000 </r>
       <r>    1.8977    1.0000 </r>
       <r>    1.9059    1.0000 </r>
       <r>    1.9230    1.0000 </r>
       <r>    1.9414    1.0000 </r>
       <r>    1.9835    1.0000 </r>
       <r>    1.9983    1.0000 </r>
       <r>    2.3350    1.0000 </r>
       <r>    2.4184    1.0000 </r>
       <r>    2.5796    0.9996 </r>
       <r>    2.8762    0.0000 </r>
       <r>    3.4212    0.0000 </r>
       <r>    3.7268    0.0000 </r>
       <r>    3.9655    0.0000 </r>
       <r>    4.4156    0.0000 </r>
       <r>    4.6648    0.0000 </r>
       <r>    5.6277    0.0000 </r>
       <r>    5.7647    0.0000 </r>
       <r>    5.7790    0.0000 </r>
       <r>    6.1369    0.0000 </r>
       <r>    6.7124    0.0000 </r>
       <r>    6.7601    0.0000 </r>
       <r>    6.9471    0.0000 </r>
       <r>    7.1989    0.0000 </r>
       <r>    7.5250    0.0000 </r>
       <r>    7.9140    0.0000 </r>
       <r>    7.9458    0.0000 </r>
       <r>    8.0835    0.0000 </r>
       <r>    8.1815    0.0000 </r>
       <r>    8.1854    0.0000 </r>
       <r>    8.2819    0.0000 </r>
       <r>    8.6236    0.0000 </r>
       <r>    8.6528    0.0000 </r>
       <r>    8.6842    0.0000 </r>
       <r>    8.7016    0.0000 </r>
       <r>    8.8453    0.0000 </r>
       <r>    8.9595    0.0000 </r>
       <r>    9.1005    0.0000 </r>
       <r>    9.4287    0.0000 </r>
       <r>    9.5686    0.0000 </r>
       <r>    9.6038    0.0000 </r>
       <r>    9.6136    0.0000 </r>
       <r>    9.6432    0.0000 </r>
       <r>    9.6507    0.0000 </r>
       <r>    9.6879    0.0000 </r>
       <r>    9.7677    0.0000 </r>
       <r>    9.8670    0.0000 </r>
       <r>   10.0754    0.0000 </r>
       <r>   10.1459    0.0000 </r>
       <r>   10.2233    0.0000 </r>
       <r>   10.2308    0.0000 </r>
       <r>   10.5498    0.0000 </r>
       <r>   10.5685    0.0000 </r>
      </set>
      <set comment="kpoint 2">
       <r>  -31.4306    1.0000 </r>
       <r>  -31.4306    1.0000 </r>
       <r>  -31.4179    1.0000 </r>
       <r>  -31.4179    1.0000 </r>
       <r>  -31.3558    1.0000 </r>
       <r>  -31.3558    1.0000 </r>
       <r>  -31.3432    1.0000 </r>
       <r>  -31.3432    1.0000 </r>
       <r>  -14.8428    1.0000 </r>
       <r>  -14.8428    1.0000 </r>
       <r>  -14.6136    1.0000 </r>
       <r>  -14.6136    1.0000 </r>
       <r>  -14.3981    1.0000 </r>
       <r>  -14.3981    1.0000 </r>
       <r>  -14.3123    1.0000 </r>
       <r>  -14.3123    1.0000 </r>
       <r>  -14.2603    1.0000 </r>
       <r>  -14.2603    1.0000 </r>
       <r>  -14.1703    1.0000 </r>
       <r>  -14.1703    1.0000 </r>
       <r>  -13.8679    1.0000 </r>
       <r>  -13.8679    1.0000 </r>
       <r>  -13.6251    1.0000 </r>
       <r>  -13.6251    1.0000 </r>
       <r>  -13.4580    1.0000 </r>
       <r>  -13.4580    1.0000 </r>
       <r>  -13.3858    1.0000 </r>
       <r>  -13.3858    1.0000 </r>
       <r>  -13.3673    1.0000 </r>
       <r>  -13.3673    1.0000 </r>
       <r>  -13.3188    1.0000 </r>
       <r>  -13.3188    1.0000 </r>
       <r>  -13.3008    1.0000 </r>
       <r>  -13.3008    1.0000 </r>
       <r>  -13.2468    1.0000 </r>
       <r>  -13.2468    1.0000 </r>
       <r>  -13.1490    1.0000 </r>
       <r>  -13.1490    1.0000 </r>
       <r>  -13.0743    1.0000 </r>
       <r>  -13.0743    1.0000 </r>
       <r>  -12.9711    1.0000 </r>
       <r>  -12.9711    1.0000 </r>
       <r>  -12.9160    1.0000 </r>
       <r>  -12.9160    1.0000 </r>
       <r>  -12.8891    1.0000 </r>
       <r>  -12.8891    1.0000 </r>
       <r>  -12.8152    1.0000 </r>
       <r>  -12.8152    1.0000 </r>
       <r>   -2.9814    1.0000 </r>
       <r>   -2.9814    1.0000 </r>
       <r>   -2.6221    1.0000 </r>
       <r>   -2.6221    1.0000 </r>
       <r>   -2.3158    1.0000 </r>
       <r>   -2.3158    1.0000 </r>
       <r>   -1.8996    1.0000 </r>
       <r>   -1.8996    1.0000 </r>
       <r>   -1.8455    1.0000 </r>
       <r>   -1.8455    1.0000 </r>
       <r>   -1.7686    1.0000 </r>
       <r>   -1.7686    1.0000 </r>
       <r>   -1.4846    1.0000 </r>
       <r>   -1.4846    1.0000 </r>
       <r>   -1.4381    1.0000 </r>
       <r>   -1.4381    1.0000 </r>
       <r>   -1.2355    1.0000 </r>
       <r>   -1.2355    1.0000 </r>
       <r>   -1.1605    1.0000 </r>
       <r>   -1.1605    1.0000 </r>
       <r>   -1.0036    1.0000 </r>
       <r>   -1.0036    1.0000 </r>
       <r>   -0.9796    1.0000 </r>
       <r>   -0.9796    1.0000 </r>
       <r>   -0.7215    1.0000 </r>
       <r>   -0.7215    1.0000 </r>
       <r>   -0.6649    1.0000 </r>
       <r>   -0.6649    1.0000 </r>
       <r>   -0.6037    1.0000 </r>
       <r>   -0.6037    1.0000 </r>
       <r>   -0.5711    1.0000 </r>
       <r>   -0.5711    1.0000 </r>
       <r>   -0.4785    1.0000 </r>
       <r>   -0.4785    1.0000 </r>
       <r>   -0.4781    1.0000 </r>
       <r>   -0.4781    1.0000 </r>
       <r>   -0.4511    1.0000 </r>
       <r>   -0.4511    1.0000 </r>
       <r>   -0.3606    1.0000 </r>
       <r>   -0.3606    1.0000 </r>
       <r>   -0.3113    1.0000 </r>
       <r>   -0.3113    1.0000 </r>
       <r>   -0.2154    1.0000 </r>
       <r>   -0.2154    1.0000 </r>
       <r>   -0.0819    1.0000 </r>
       <r>   -0.0819    1.0000 </r>
       <r>    0.1640    1.0000 </r>
       <r>    0.1640    1.0000 </r>
       <r>    0.2638    1.0000 </r>
       <r>    0.2638    1.0000 </r>
       <r>    0.5152    1.0000 </r>
       <r>    0.5152    1.0000 </r>
       <r>    0.7014    1.0000 </r>
       <r>    0.7014    1.0000 </r>
       <r>    0.7501    1.0000 </r>
       <r>    0.7501    1.0000 </r>
       <r>    1.0465    1.0000 </r>
       <r>    1.0465    1.0000 </r>
       <r>    1.1131    1.0000 </r>
       <r>    1.1131    1.0000 </r>
       <r>    1.1870    1.0000 </r>
       <r>    1.1870    1.0000 </r>
       <r>    1.3337    1.0000 </r>
       <r>    1.3337    1.0000 </r>
       <r>    1.4108    1.0000 </r>
       <r>    1.4108    1.0000 </r>
       <r>    1.4267    1.0000 </r>
       <r>    1.4267    1.0000 </r>
       <r>    1.4854    1.0000 </r>
       <r>    1.4854    1.0000 </r>
       <r>    1.5968    1.0000 </r>
       <r>    1.5968    1.0000 </r>
       <r>    1.7613    1.0000 </r>
       <r>    1.7613    1.0000 </r>
       <r>    1.8295    1.0000 </r>
       <r>    1.8295    1.0000 </r>
       <r>    1.8517    1.0000 </r>
       <r>    1.8517    1.0000 </r>
       <r>    1.9498    1.0000 </r>
       <r>    1.9498    1.0000 </r>
       <r>    2.0226    1.0000 </r>
       <r>    2.0226    1.0000 </r>
       <r>    2.3615    1.0000 </r>
       <r>    2.3615    1.0000 </r>
       <r>    2.5405    1.0000 </r>
       <r>    2.5405    1.0000 </r>
       <r>    3.7748    0.0000 </r>
       <r>    3.7748    0.0000 </r>
       <r>    4.0595    0.0000 </r>
       <r>    4.0595    0.0000 </r>
       <r>    5.2459    0.0000 </r>
       <r>    5.2459    0.0000 </r>
       <r>    5.6128    0.0000 </r>
       <r>    5.6128    0.0000 </r>
       <r>    6.5761    0.0000 </r>
       <r>    6.5761    0.0000 </r>
       <r>    7.1084    0.0000 </r>
       <r>    7.1084    0.0000 </r>
       <r>    7.4659    0.0000 </r>
       <r>    7.4659    0.0000 </r>
       <r>    7.8154    0.0000 </r>
       <r>    7.8154    0.0000 </r>
       <r>    8.1768    0.0000 </r>
       <r>    8.1768    0.0000 </r>
       <r>    8.4960    0.0000 </r>
       <r>    8.4960    0.0000 </r>
       <r>    8.6642    0.0000 </r>
       <r>    8.6642    0.0000 </r>
       <r>    8.7017    0.0000 </r>
       <r>    8.7017    0.0000 </r>
       <r>    8.9336    0.0000 </r>
       <r>    8.9336    0.0000 </r>
       <r>    9.0787    0.0000 </r>
       <r>    9.0787    0.0000 </r>
       <r>    9.5337    0.0000 </r>
       <r>    9.5337    0.0000 </r>
       <r>    9.6543    0.0000 </r>
       <r>    9.6543    0.0000 </r>
       <r>    9.9243    0.0000 </r>
       <r>    9.9243    0.0000 </r>
       <r>   10.0656    0.0000 </r>
       <r>   10.0656    0.0000 </r>
       <r>   10.1158    0.0000 </r>
       <r>   10.1158    0.0000 </r>
       <r>   10.1983    0.0000 </r>
       <r>   10.1983    0.0000 </r>
       <r>   10.2777    0.0000 </r>
       <r>   10.2777    0.0000 </r>
      </set>
      <set comment="kpoint 3">
       <r>  -31.4294    1.0000 </r>
       <r>  -31.4266    1.0000 </r>
       <r>  -31.4229    1.0000 </r>
       <r>  -31.4203    1.0000 </r>
       <r>  -31.3529    1.0000 </r>
       <r>  -31.3514    1.0000 </r>
       <r>  -31.3466    1.0000 </r>
       <r>  -31.3451    1.0000 </r>
       <r>  -14.9331    1.0000 </r>
       <r>  -14.7808    1.0000 </r>
       <r>  -14.7018    1.0000 </r>
       <r>  -14.6455    1.0000 </r>
       <r>  -14.5315    1.0000 </r>
       <r>  -14.5272    1.0000 </r>
       <r>  -14.2821    1.0000 </r>
       <r>  -14.0872    1.0000 </r>
       <r>  -14.0607    1.0000 </r>
       <r>  -14.0121    1.0000 </r>
       <r>  -13.9881    1.0000 </r>
       <r>  -13.9806    1.0000 </r>
       <r>  -13.9625    1.0000 </r>
       <r>  -13.8094    1.0000 </r>
       <r>  -13.7996    1.0000 </r>
       <r>  -13.7067    1.0000 </r>
       <r>  -13.6138    1.0000 </r>
       <r>  -13.5551    1.0000 </r>
       <r>  -13.5542    1.0000 </r>
       <r>  -13.4610    1.0000 </r>
       <r>  -13.3894    1.0000 </r>
       <r>  -13.3710    1.0000 </r>
       <r>  -13.3462    1.0000 </r>
       <r>  -13.3387    1.0000 </r>
       <r>  -13.3048    1.0000 </r>
       <r>  -13.2836    1.0000 </r>
       <r>  -13.2203    1.0000 </r>
       <r>  -13.2164    1.0000 </r>
       <r>  -13.1859    1.0000 </r>
       <r>  -13.1785    1.0000 </r>
       <r>  -13.1587    1.0000 </r>
       <r>  -13.0845    1.0000 </r>
       <r>  -13.0553    1.0000 </r>
       <r>  -13.0464    1.0000 </r>
       <r>  -13.0110    1.0000 </r>
       <r>  -12.8132    1.0000 </r>
       <r>  -12.8003    1.0000 </r>
       <r>  -12.7984    1.0000 </r>
       <r>  -12.7184    1.0000 </r>
       <r>  -12.6577    1.0000 </r>
       <r>   -2.7610    1.0000 </r>
       <r>   -2.7154    1.0000 </r>
       <r>   -2.3390    1.0000 </r>
       <r>   -2.2697    1.0000 </r>
       <r>   -2.1857    1.0000 </r>
       <r>   -2.1769    1.0000 </r>
       <r>   -1.8887    1.0000 </r>
       <r>   -1.8847    1.0000 </r>
       <r>   -1.8687    1.0000 </r>
       <r>   -1.7831    1.0000 </r>
       <r>   -1.7641    1.0000 </r>
       <r>   -1.6208    1.0000 </r>
       <r>   -1.6163    1.0000 </r>
       <r>   -1.5249    1.0000 </r>
       <r>   -1.4734    1.0000 </r>
       <r>   -1.4256    1.0000 </r>
       <r>   -1.4028    1.0000 </r>
       <r>   -1.3765    1.0000 </r>
       <r>   -1.2433    1.0000 </r>
       <r>   -1.2038    1.0000 </r>
       <r>   -1.1701    1.0000 </r>
       <r>   -1.1484    1.0000 </r>
       <r>   -1.1133    1.0000 </r>
       <r>   -1.1011    1.0000 </r>
       <r>   -1.0975    1.0000 </r>
       <r>   -0.9960    1.0000 </r>
       <r>   -0.9440    1.0000 </r>
       <r>   -0.9388    1.0000 </r>
       <r>   -0.9244    1.0000 </r>
       <r>   -0.8585    1.0000 </r>
       <r>   -0.8492    1.0000 </r>
       <r>   -0.7667    1.0000 </r>
       <r>   -0.7280    1.0000 </r>
       <r>   -0.6507    1.0000 </r>
       <r>   -0.6437    1.0000 </r>
       <r>   -0.6311    1.0000 </r>
       <r>   -0.4217    1.0000 </r>
       <r>   -0.3795    1.0000 </r>
       <r>   -0.3770    1.0000 </r>
       <r>   -0.3634    1.0000 </r>
       <r>   -0.3040    1.0000 </r>
       <r>   -0.2895    1.0000 </r>
       <r>   -0.1975    1.0000 </r>
       <r>   -0.0131    1.0000 </r>
       <r>   -0.0083    1.0000 </r>
       <r>    0.0463    1.0000 </r>
       <r>    0.2108    1.0000 </r>
       <r>    0.3446    1.0000 </r>
       <r>    0.4287    1.0000 </r>
       <r>    0.5171    1.0000 </r>
       <r>    0.6681    1.0000 </r>
       <r>    0.7261    1.0000 </r>
       <r>    0.7842    1.0000 </r>
       <r>    0.8052    1.0000 </r>
       <r>    0.9815    1.0000 </r>
       <r>    0.9920    1.0000 </r>
       <r>    1.0257    1.0000 </r>
       <r>    1.0893    1.0000 </r>
       <r>    1.1521    1.0000 </r>
       <r>    1.1649    1.0000 </r>
       <r>    1.1830    1.0000 </r>
       <r>    1.1915    1.0000 </r>
       <r>    1.2609    1.0000 </r>
       <r>    1.2657    1.0000 </r>
       <r>    1.3156    1.0000 </r>
       <r>    1.3418    1.0000 </r>
       <r>    1.4257    1.0000 </r>
       <r>    1.4380    1.0000 </r>
       <r>    1.5053    1.0000 </r>
       <r>    1.5411    1.0000 </r>
       <r>    1.5726    1.0000 </r>
       <r>    1.6807    1.0000 </r>
       <r>    1.7021    1.0000 </r>
       <r>    1.7233    1.0000 </r>
       <r>    1.7535    1.0000 </r>
       <r>    1.8166    1.0000 </r>
       <r>    1.8201    1.0000 </r>
       <r>    1.8364    1.0000 </r>
       <r>    1.8772    1.0000 </r>
       <r>    1.9120    1.0000 </r>
       <r>    2.1782    1.0000 </r>
       <r>    2.2197    1.0000 </r>
       <r>    2.6111    0.9932 </r>
       <r>    2.6624    0.8458 </r>
       <r>    2.8443    0.0000 </r>
       <r>    2.9762    0.0000 </r>
       <r>    3.6309    0.0000 </r>
       <r>    3.7957    0.0000 </r>
       <r>    3.9321    0.0000 </r>
       <r>    4.6473    0.0000 </r>
       <r>    4.7398    0.0000 </r>
       <r>    5.4882    0.0000 </r>
       <r>    5.5962    0.0000 </r>
       <r>    5.7239    0.0000 </r>
       <r>    5.8440    0.0000 </r>
       <r>    5.9799    0.0000 </r>
       <r>    7.3078    0.0000 </r>
       <r>    7.3414    0.0000 </r>
       <r>    7.4290    0.0000 </r>
       <r>    7.5440    0.0000 </r>
       <r>    7.7761    0.0000 </r>
       <r>    7.8936    0.0000 </r>
       <r>    7.9215    0.0000 </r>
       <r>    8.0081    0.0000 </r>
       <r>    8.1866    0.0000 </r>
       <r>    8.3718    0.0000 </r>
       <r>    8.4953    0.0000 </r>
       <r>    8.6837    0.0000 </r>
       <r>    8.7430    0.0000 </r>
       <r>    8.7828    0.0000 </r>
       <r>    8.8200    0.0000 </r>
       <r>    8.8262    0.0000 </r>
       <r>    8.9930    0.0000 </r>
       <r>    9.2789    0.0000 </r>
       <r>    9.3052    0.0000 </r>
       <r>    9.3611    0.0000 </r>
       <r>    9.4212    0.0000 </r>
       <r>    9.6220    0.0000 </r>
       <r>    9.6540    0.0000 </r>
       <r>    9.7411    0.0000 </r>
       <r>    9.8145    0.0000 </r>
       <r>    9.9234    0.0000 </r>
       <r>   10.0102    0.0000 </r>
       <r>   10.1001    0.0000 </r>
       <r>   10.1324    0.0000 </r>
       <r>   10.2212    0.0000 </r>
       <r>   10.2583    0.0000 </r>
       <r>   10.3439    0.0000 </r>
      </set>
      <set comment="kpoint 4">
       <r>  -31.4275    1.0000 </r>
       <r>  -31.4275    1.0000 </r>
       <r>  -31.4211    1.0000 </r>
       <r>  -31.4211    1.0000 </r>
       <r>  -31.3527    1.0000 </r>
       <r>  -31.3527    1.0000 </r>
       <r>  -31.3464    1.0000 </r>
       <r>  -31.3464    1.0000 </r>
       <r>  -14.7919    1.0000 </r>
       <r>  -14.7919    1.0000 </r>
       <r>  -14.5963    1.0000 </r>
       <r>  -14.5963    1.0000 </r>
       <r>  -14.4896    1.0000 </r>
       <r>  -14.4896    1.0000 </r>
       <r>  -14.3686    1.0000 </r>
       <r>  -14.3686    1.0000 </r>
       <r>  -14.1555    1.0000 </r>
       <r>  -14.1555    1.0000 </r>
       <r>  -14.1130    1.0000 </r>
       <r>  -14.1130    1.0000 </r>
       <r>  -13.9063    1.0000 </r>
       <r>  -13.9063    1.0000 </r>
       <r>  -13.7062    1.0000 </r>
       <r>  -13.7062    1.0000 </r>
       <r>  -13.4727    1.0000 </r>
       <r>  -13.4727    1.0000 </r>
       <r>  -13.4309    1.0000 </r>
       <r>  -13.4309    1.0000 </r>
       <r>  -13.3514    1.0000 </r>
       <r>  -13.3514    1.0000 </r>
       <r>  -13.3179    1.0000 </r>
       <r>  -13.3179    1.0000 </r>
       <r>  -13.2862    1.0000 </r>
       <r>  -13.2862    1.0000 </r>
       <r>  -13.2479    1.0000 </r>
       <r>  -13.2479    1.0000 </r>
       <r>  -13.1204    1.0000 </r>
       <r>  -13.1204    1.0000 </r>
       <r>  -13.0817    1.0000 </r>
       <r>  -13.0817    1.0000 </r>
       <r>  -12.9486    1.0000 </r>
       <r>  -12.9486    1.0000 </r>
       <r>  -12.8923    1.0000 </r>
       <r>  -12.8923    1.0000 </r>
       <r>  -12.8771    1.0000 </r>
       <r>  -12.8771    1.0000 </r>
       <r>  -12.8348    1.0000 </r>
       <r>  -12.8348    1.0000 </r>
       <r>   -2.7513    1.0000 </r>
       <r>   -2.7513    1.0000 </r>
       <r>   -2.3098    1.0000 </r>
       <r>   -2.3098    1.0000 </r>
       <r>   -2.1833    1.0000 </r>
       <r>   -2.1833    1.0000 </r>
       <r>   -1.8990    1.0000 </r>
       <r>   -1.8990    1.0000 </r>
       <r>   -1.7752    1.0000 </r>
       <r>   -1.7752    1.0000 </r>
       <r>   -1.7522    1.0000 </r>
       <r>   -1.7522    1.0000 </r>
       <r>   -1.4758    1.0000 </r>
       <r>   -1.4758    1.0000 </r>
       <r>   -1.4191    1.0000 </r>
       <r>   -1.4191    1.0000 </r>
       <r>   -1.3601    1.0000 </r>
       <r>   -1.3601    1.0000 </r>
       <r>   -1.2310    1.0000 </r>
       <r>   -1.2310    1.0000 </r>
       <r>   -1.1611    1.0000 </r>
       <r>   -1.1611    1.0000 </r>
       <r>   -1.1171    1.0000 </r>
       <r>   -1.1171    1.0000 </r>
       <r>   -1.0620    1.0000 </r>
       <r>   -1.0620    1.0000 </r>
       <r>   -0.9758    1.0000 </r>
       <r>   -0.9758    1.0000 </r>
       <r>   -0.8846    1.0000 </r>
       <r>   -0.8846    1.0000 </r>
       <r>   -0.8233    1.0000 </r>
       <r>   -0.8233    1.0000 </r>
       <r>   -0.7628    1.0000 </r>
       <r>   -0.7628    1.0000 </r>
       <r>   -0.6263    1.0000 </r>
       <r>   -0.6263    1.0000 </r>
       <r>   -0.4094    1.0000 </r>
       <r>   -0.4094    1.0000 </r>
       <r>   -0.2864    1.0000 </r>
       <r>   -0.2864    1.0000 </r>
       <r>   -0.2754    1.0000 </r>
       <r>   -0.2754    1.0000 </r>
       <r>   -0.1558    1.0000 </r>
       <r>   -0.1558    1.0000 </r>
       <r>    0.0369    1.0000 </r>
       <r>    0.0369    1.0000 </r>
       <r>    0.2989    1.0000 </r>
       <r>    0.2989    1.0000 </r>
       <r>    0.4893    1.0000 </r>
       <r>    0.4893    1.0000 </r>
       <r>    0.6948    1.0000 </r>
       <r>    0.6948    1.0000 </r>
       <r>    0.8482    1.0000 </r>
       <r>    0.8482    1.0000 </r>
       <r>    0.9479    1.0000 </r>
       <r>    0.9479    1.0000 </r>
       <r>    1.1137    1.0000 </r>
       <r>    1.1137    1.0000 </r>
       <r>    1.1788    1.0000 </r>
       <r>    1.1788    1.0000 </r>
       <r>    1.2316    1.0000 </r>
       <r>    1.2316    1.0000 </r>
       <r>    1.2696    1.0000 </r>
       <r>    1.2696    1.0000 </r>
       <r>    1.3357    1.0000 </r>
       <r>    1.3357    1.0000 </r>
       <r>    1.3533    1.0000 </r>
       <r>    1.3533    1.0000 </r>
       <r>    1.4567    1.0000 </r>
       <r>    1.4567    1.0000 </r>
       <r>    1.4671    1.0000 </r>
       <r>    1.4671    1.0000 </r>
       <r>    1.7352    1.0000 </r>
       <r>    1.7352    1.0000 </r>
       <r>    1.7952    1.0000 </r>
       <r>    1.7952    1.0000 </r>
       <r>    1.8621    1.0000 </r>
       <r>    1.8621    1.0000 </r>
       <r>    1.9524    1.0000 </r>
       <r>    1.9524    1.0000 </r>
       <r>    2.2230    1.0000 </r>
       <r>    2.2230    1.0000 </r>
       <r>    2.5697    0.9999 </r>
       <r>    2.5697    0.9999 </r>
       <r>    2.7695    0.0221 </r>
       <r>    2.7695    0.0221 </r>
       <r>    3.6815    0.0000 </r>
       <r>    3.6815    0.0000 </r>
       <r>    4.3184    0.0000 </r>
       <r>    4.3184    0.0000 </r>
       <r>    5.1656    0.0000 </r>
       <r>    5.1656    0.0000 </r>
       <r>    5.5423    0.0000 </r>
       <r>    5.5423    0.0000 </r>
       <r>    6.2653    0.0000 </r>
       <r>    6.2653    0.0000 </r>
       <r>    7.2094    0.0000 </r>
       <r>    7.2094    0.0000 </r>
       <r>    7.7554    0.0000 </r>
       <r>    7.7554    0.0000 </r>
       <r>    7.9805    0.0000 </r>
       <r>    7.9805    0.0000 </r>
       <r>    8.0892    0.0000 </r>
       <r>    8.0892    0.0000 </r>
       <r>    8.3112    0.0000 </r>
       <r>    8.3112    0.0000 </r>
       <r>    8.5659    0.0000 </r>
       <r>    8.5659    0.0000 </r>
       <r>    8.7089    0.0000 </r>
       <r>    8.7089    0.0000 </r>
       <r>    8.8966    0.0000 </r>
       <r>    8.8966    0.0000 </r>
       <r>    9.0330    0.0000 </r>
       <r>    9.0330    0.0000 </r>
       <r>    9.3928    0.0000 </r>
       <r>    9.3928    0.0000 </r>
       <r>    9.4366    0.0000 </r>
       <r>    9.4366    0.0000 </r>
       <r>    9.6692    0.0000 </r>
       <r>    9.6692    0.0000 </r>
       <r>    9.8078    0.0000 </r>
       <r>    9.8078    0.0000 </r>
       <r>   10.0202    0.0000 </r>
       <r>   10.0202    0.0000 </r>
       <r>   10.1017    0.0000 </r>
       <r>   10.1017    0.0000 </r>
       <r>   10.2392    0.0000 </r>
       <r>   10.2392    0.0000 </r>
      </set>
      <set comment="kpoint 5">
       <r>  -31.4314    1.0000 </r>
       <r>  -31.4299    1.0000 </r>
       <r>  -31.4185    1.0000 </r>
       <r>  -31.4172    1.0000 </r>
       <r>  -31.3562    1.0000 </r>
       <r>  -31.3554    1.0000 </r>
[...]
       <r>     5.1268     3.5319   138.9945 </r>
       <r>     5.2809     4.1043   139.6267 </r>
       <r>     5.4349     4.2495   140.2812 </r>
       <r>     5.5889     5.9317   141.1948 </r>
       <r>     5.7429     3.9629   141.8052 </r>
       <r>     5.8970     1.7137   142.0692 </r>
       <r>     6.0510     1.1266   142.2427 </r>
       <r>     6.2050     2.2992   142.5968 </r>
       <r>     6.3590     3.1211   143.0775 </r>
       <r>     6.5131     4.4964   143.7701 </r>
       <r>     6.6671     1.2371   143.9606 </r>
       <r>     6.8211     0.5143   144.0399 </r>
       <r>     6.9751     0.2412   144.0770 </r>
       <r>     7.1292     1.7592   144.3480 </r>
       <r>     7.2832     3.9761   144.9604 </r>
       <r>     7.4372     6.9798   146.0355 </r>
       <r>     7.5912     4.2802   146.6947 </r>
       <r>     7.7453     3.4919   147.2325 </r>
       <r>     7.8993     9.7934   148.7410 </r>
       <r>     8.0533    11.0008   150.4354 </r>
       <r>     8.2073    10.6610   152.0774 </r>
       <r>     8.3614     9.9343   153.6075 </r>
       <r>     8.5154    11.0079   155.3030 </r>
       <r>     8.6694    10.1960   156.8734 </r>
       <r>     8.8234    11.5845   158.6577 </r>
       <r>     8.9774     9.8660   160.1773 </r>
       <r>     9.1315     9.5042   161.6412 </r>
       <r>     9.2855     7.1098   162.7363 </r>
       <r>     9.4395     9.6078   164.2161 </r>
       <r>     9.5935    10.8289   165.8840 </r>
       <r>     9.7476    11.3254   167.6284 </r>
       <r>     9.9016    13.5172   169.7104 </r>
       <r>    10.0556    12.8032   171.6824 </r>
       <r>    10.2096    17.5254   174.3817 </r>
       <r>    10.3637     9.5563   175.8536 </r>
       <r>    10.5177     0.4788   175.9274 </r>
       <r>    10.6717     0.4709   175.9999 </r>
       <r>    10.8257     0.0006   176.0000 </r>
       <r>    10.9798     0.0000   176.0000 </r>
       <r>    11.1338     0.0000   176.0000 </r>
       <r>    11.2878     0.0000   176.0000 </r>
       <r>    11.4418     0.0000   176.0000 </r>
       <r>    11.5959     0.0000   176.0000 </r>
       <r>    11.7499     0.0000   176.0000 </r>
       <r>    11.9039     0.0000   176.0000 </r>
       <r>    12.0579     0.0000   176.0000 </r>
       <r>    12.2120     0.0000   176.0000 </r>
       <r>    12.3660     0.0000   176.0000 </r>
       <r>    12.5200     0.0000   176.0000 </r>
       <r>    12.6740     0.0000   176.0000 </r>
      </set>
      <set comment="spin 2">
       <r>   -33.5332     0.0000     0.0000 </r>
       <r>   -33.3792     0.0000     0.0000 </r>
       <r>   -33.2252     0.0000     0.0000 </r>
       <r>   -33.0711     0.0000     0.0000 </r>
       <r>   -32.9171     0.0000     0.0000 </r>
       <r>   -32.7631     0.0000     0.0000 </r>
       <r>   -32.6091     0.0000     0.0000 </r>
       <r>   -32.4551     0.0000     0.0000 </r>
       <r>   -32.3010     0.0000     0.0000 </r>
       <r>   -32.1470     0.0000     0.0000 </r>
       <r>   -31.9930     0.0000     0.0000 </r>
       <r>   -31.8390     0.0000     0.0000 </r>
       <r>   -31.6849     0.0000     0.0000 </r>
       <r>   -31.5309     0.0369     0.0057 </r>
       <r>   -31.3769    29.3890     4.5323 </r>
       <r>   -31.2229    22.5092     7.9993 </r>
       <r>   -31.0688     0.0048     8.0000 </r>
       <r>   -30.9148     0.0000     8.0000 </r>
       <r>   -30.7608     0.0000     8.0000 </r>
       <r>   -30.6068     0.0000     8.0000 </r>
       <r>   -30.4527     0.0000     8.0000 </r>
       <r>   -30.2987     0.0000     8.0000 </r>
       <r>   -30.1447     0.0000     8.0000 </r>
       <r>   -29.9907     0.0000     8.0000 </r>
       <r>   -29.8366     0.0000     8.0000 </r>
       <r>   -29.6826     0.0000     8.0000 </r>
       <r>   -29.5286     0.0000     8.0000 </r>
       <r>   -29.3746     0.0000     8.0000 </r>
       <r>   -29.2205     0.0000     8.0000 </r>
       <r>   -29.0665     0.0000     8.0000 </r>
       <r>   -28.9125     0.0000     8.0000 </r>
       <r>   -28.7585     0.0000     8.0000 </r>
       <r>   -28.6044     0.0000     8.0000 </r>
       <r>   -28.4504     0.0000     8.0000 </r>
       <r>   -28.2964     0.0000     8.0000 </r>
       <r>   -28.1424     0.0000     8.0000 </r>
       <r>   -27.9884     0.0000     8.0000 </r>
       <r>   -27.8343     0.0000     8.0000 </r>
       <r>   -27.6803     0.0000     8.0000 </r>
       <r>   -27.5263     0.0000     8.0000 </r>
       <r>   -27.3723     0.0000     8.0000 </r>
       <r>   -27.2182     0.0000     8.0000 </r>
       <r>   -27.0642     0.0000     8.0000 </r>
       <r>   -26.9102     0.0000     8.0000 </r>
       <r>   -26.7562     0.0000     8.0000 </r>
       <r>   -26.6021     0.0000     8.0000 </r>
       <r>   -26.4481     0.0000     8.0000 </r>
       <r>   -26.2941     0.0000     8.0000 </r>
       <r>   -26.1401     0.0000     8.0000 </r>
       <r>   -25.9860     0.0000     8.0000 </r>
       <r>   -25.8320     0.0000     8.0000 </r>
       <r>   -25.6780     0.0000     8.0000 </r>
       <r>   -25.5240     0.0000     8.0000 </r>
       <r>   -25.3699     0.0000     8.0000 </r>
       <r>   -25.2159     0.0000     8.0000 </r>
       <r>   -25.0619     0.0000     8.0000 </r>
       <r>   -24.9079     0.0000     8.0000 </r>
       <r>   -24.7538     0.0000     8.0000 </r>
       <r>   -24.5998     0.0000     8.0000 </r>
       <r>   -24.4458     0.0000     8.0000 </r>
       <r>   -24.2918     0.0000     8.0000 </r>
       <r>   -24.1377     0.0000     8.0000 </r>
       <r>   -23.9837     0.0000     8.0000 </r>
       <r>   -23.8297     0.0000     8.0000 </r>
       <r>   -23.6757     0.0000     8.0000 </r>
       <r>   -23.5217     0.0000     8.0000 </r>
       <r>   -23.3676     0.0000     8.0000 </r>
       <r>   -23.2136     0.0000     8.0000 </r>
       <r>   -23.0596     0.0000     8.0000 </r>
       <r>   -22.9056     0.0000     8.0000 </r>
       <r>   -22.7515     0.0000     8.0000 </r>
       <r>   -22.5975     0.0000     8.0000 </r>
       <r>   -22.4435     0.0000     8.0000 </r>
       <r>   -22.2895     0.0000     8.0000 </r>
       <r>   -22.1354     0.0000     8.0000 </r>
       <r>   -21.9814     0.0000     8.0000 </r>
       <r>   -21.8274     0.0000     8.0000 </r>
       <r>   -21.6734     0.0000     8.0000 </r>
       <r>   -21.5193     0.0000     8.0000 </r>
       <r>   -21.3653     0.0000     8.0000 </r>
       <r>   -21.2113     0.0000     8.0000 </r>
       <r>   -21.0573     0.0000     8.0000 </r>
       <r>   -20.9032     0.0000     8.0000 </r>
       <r>   -20.7492     0.0000     8.0000 </r>
       <r>   -20.5952     0.0000     8.0000 </r>
       <r>   -20.4412     0.0000     8.0000 </r>
       <r>   -20.2871     0.0000     8.0000 </r>
       <r>   -20.1331     0.0000     8.0000 </r>
       <r>   -19.9791     0.0000     8.0000 </r>
       <r>   -19.8251     0.0000     8.0000 </r>
       <r>   -19.6710     0.0000     8.0000 </r>
       <r>   -19.5170     0.0000     8.0000 </r>
       <r>   -19.3630     0.0000     8.0000 </r>
       <r>   -19.2090     0.0000     8.0000 </r>
       <r>   -19.0550     0.0000     8.0000 </r>
       <r>   -18.9009     0.0000     8.0000 </r>
       <r>   -18.7469     0.0000     8.0000 </r>
       <r>   -18.5929     0.0000     8.0000 </r>
       <r>   -18.4389     0.0000     8.0000 </r>
       <r>   -18.2848     0.0000     8.0000 </r>
       <r>   -18.1308     0.0000     8.0000 </r>
       <r>   -17.9768     0.0000     8.0000 </r>
       <r>   -17.8228     0.0000     8.0000 </r>
       <r>   -17.6687     0.0000     8.0000 </r>
       <r>   -17.5147     0.0000     8.0000 </r>
       <r>   -17.3607     0.0000     8.0000 </r>
       <r>   -17.2067     0.0000     8.0000 </r>
       <r>   -17.0526     0.0000     8.0000 </r>
       <r>   -16.8986     0.0000     8.0000 </r>
       <r>   -16.7446     0.0000     8.0000 </r>
       <r>   -16.5906     0.0000     8.0000 </r>
       <r>   -16.4365     0.0000     8.0000 </r>
       <r>   -16.2825     0.0000     8.0000 </r>
       <r>   -16.1285     0.0000     8.0000 </r>
       <r>   -15.9745     0.0000     8.0000 </r>
       <r>   -15.8204     0.0000     8.0000 </r>
       <r>   -15.6664     0.0000     8.0000 </r>
       <r>   -15.5124     0.0000     8.0000 </r>
       <r>   -15.3584     0.0000     8.0000 </r>
       <r>   -15.2043     0.0000     8.0000 </r>
       <r>   -15.0503     0.0851     8.0131 </r>
       <r>   -14.8963     1.8179     8.2931 </r>
       <r>   -14.7423     7.6883     9.4773 </r>
       <r>   -14.5882    13.5337    11.5618 </r>
       <r>   -14.4342    14.8220    13.8448 </r>
       <r>   -14.2802    11.5930    15.6304 </r>
       <r>   -14.1262    12.3512    17.5327 </r>
       <r>   -13.9722    13.6557    19.6360 </r>
       <r>   -13.8181    13.0420    21.6448 </r>
       <r>   -13.6641    12.5334    23.5753 </r>
       <r>   -13.5101    12.8296    25.5513 </r>
       <r>   -13.3561    30.6396    30.2706 </r>
       <r>   -13.2020    31.9676    35.1944 </r>
       <r>   -13.0480    29.8234    39.7879 </r>
       <r>   -12.8940    25.2191    43.6722 </r>
       <r>   -12.7400    22.7437    47.1753 </r>
       <r>   -12.5859     5.2832    47.9891 </r>
       <r>   -12.4319     0.0711    48.0000 </r>
       <r>   -12.2779     0.0000    48.0000 </r>
       <r>   -12.1239     0.0000    48.0000 </r>
       <r>   -11.9698     0.0000    48.0000 </r>
       <r>   -11.8158     0.0000    48.0000 </r>
       <r>   -11.6618     0.0000    48.0000 </r>
       <r>   -11.5078     0.0000    48.0000 </r>
       <r>   -11.3537     0.0000    48.0000 </r>
       <r>   -11.1997     0.0000    48.0000 </r>
       <r>   -11.0457     0.0000    48.0000 </r>
       <r>   -10.8917     0.0000    48.0000 </r>
       <r>   -10.7376     0.0000    48.0000 </r>
       <r>   -10.5836     0.0000    48.0000 </r>
       <r>   -10.4296     0.0000    48.0000 </r>
       <r>   -10.2756     0.0000    48.0000 </r>
       <r>   -10.1215     0.0000    48.0000 </r>
       <r>    -9.9675     0.0000    48.0000 </r>
       <r>    -9.8135     0.0000    48.0000 </r>
       <r>    -9.6595     0.0000    48.0000 </r>
       <r>    -9.5055     0.0000    48.0000 </r>
       <r>    -9.3514     0.0000    48.0000 </r>
       <r>    -9.1974     0.0000    48.0000 </r>
       <r>    -9.0434     0.0000    48.0000 </r>
       <r>    -8.8894     0.0000    48.0000 </r>
       <r>    -8.7353     0.0000    48.0000 </r>
       <r>    -8.5813     0.0000    48.0000 </r>
       <r>    -8.4273     0.0000    48.0000 </r>
       <r>    -8.2733     0.0000    48.0000 </r>
       <r>    -8.1192     0.0000    48.0000 </r>
       <r>    -7.9652     0.0000    48.0000 </r>
       <r>    -7.8112     0.0000    48.0000 </r>
       <r>    -7.6572     0.0000    48.0000 </r>
       <r>    -7.5031     0.0000    48.0000 </r>
       <r>    -7.3491     0.0000    48.0000 </r>
       <r>    -7.1951     0.0000    48.0000 </r>
       <r>    -7.0411     0.0000    48.0000 </r>
       <r>    -6.8870     0.0000    48.0000 </r>
       <r>    -6.7330     0.0000    48.0000 </r>
       <r>    -6.5790     0.0000    48.0000 </r>
       <r>    -6.4250     0.0000    48.0000 </r>
       <r>    -6.2709     0.0000    48.0000 </r>
       <r>    -6.1169     0.0000    48.0000 </r>
       <r>    -5.9629     0.0000    48.0000 </r>
       <r>    -5.8089     0.0000    48.0000 </r>
       <r>    -5.6548     0.0000    48.0000 </r>
       <r>    -5.5008     0.0000    48.0000 </r>
       <r>    -5.3468     0.0000    48.0000 </r>
       <r>    -5.1928     0.0000    48.0000 </r>
       <r>    -5.0388     0.0000    48.0000 </r>
       <r>    -4.8847     0.0000    48.0000 </r>
       <r>    -4.7307     0.0000    48.0000 </r>
       <r>    -4.5767     0.0000    48.0000 </r>
       <r>    -4.4227     0.0000    48.0000 </r>
       <r>    -4.2686     0.0000    48.0000 </r>
       <r>    -4.1146     0.0000    48.0000 </r>
       <r>    -3.9606     0.0000    48.0000 </r>
       <r>    -3.8066     0.0000    48.0000 </r>
       <r>    -3.6525     0.0000    48.0000 </r>
       <r>    -3.4985     0.0000    48.0000 </r>
       <r>    -3.3445     0.0000    48.0000 </r>
       <r>    -3.1905     0.0000    48.0000 </r>
       <r>    -3.0364     0.0795    48.0122 </r>
       <r>    -2.8824     2.1520    48.3437 </r>
       <r>    -2.7284     3.6769    48.9100 </r>
       <r>    -2.5744     7.9608    50.1362 </r>
       <r>    -2.4203     2.7901    50.5659 </r>
       <r>    -2.2663    10.3704    52.1632 </r>
       <r>    -2.1123     8.3706    53.4525 </r>
       <r>    -1.9583     2.4404    53.8284 </r>
       <r>    -1.8042    17.6153    56.5416 </r>
       <r>    -1.6502    20.8593    59.7544 </r>
       <r>    -1.4962    13.8677    61.8904 </r>
       <r>    -1.3422    23.2982    65.4789 </r>
       <r>    -1.1881    22.7695    68.9859 </r>
       <r>    -1.0341    23.4631    72.5998 </r>
       <r>    -0.8801    26.9718    76.7541 </r>
       <r>    -0.7261    21.5931    80.0800 </r>
       <r>    -0.5721    20.8420    83.2901 </r>
       <r>    -0.4180    15.1500    85.6236 </r>
       <r>    -0.2640    25.6708    89.5775 </r>
       <r>    -0.1100     9.3939    91.0244 </r>
       <r>     0.0440    11.4638    92.7901 </r>
       <r>     0.1981     8.6162    94.1172 </r>
       <r>     0.3521     9.9443    95.6489 </r>
       <r>     0.5061     9.6037    97.1281 </r>
       <r>     0.6601    12.6390    99.0748 </r>
       <r>     0.8142    15.6965   101.4925 </r>
       <r>     0.9682    13.1218   103.5135 </r>
       <r>     1.1222    17.0852   106.1451 </r>
       <r>     1.2762    29.5771   110.7007 </r>
       <r>     1.4303    27.2924   114.9043 </r>
       <r>     1.5843    25.6712   118.8583 </r>
       <r>     1.7383    19.2475   121.8229 </r>
       <r>     1.8923    24.8683   125.6532 </r>
       <r>     2.0464    13.9209   127.7974 </r>
       <r>     2.2004     6.7341   128.8346 </r>
       <r>     2.3544     7.3792   129.9712 </r>
       <r>     2.5084     2.5514   130.3642 </r>
       <r>     2.6625     9.2490   131.7887 </r>
       <r>     2.8165     6.2599   132.7529 </r>
       <r>     2.9705     7.5558   133.9167 </r>
       <r>     3.1245     1.1641   134.0960 </r>
       <r>     3.2786     2.1592   134.4285 </r>
       <r>     3.4326     3.0864   134.9039 </r>
       <r>     3.5866     3.4943   135.4421 </r>
       <r>     3.7406     2.7407   135.8643 </r>
       <r>     3.8947     1.7583   136.1351 </r>
       <r>     4.0487     1.3379   136.3412 </r>
       <r>     4.2027     2.2258   136.6840 </r>
       <r>     4.3567     2.0499   136.9997 </r>
       <r>     4.5107     2.8385   137.4369 </r>
       <r>     4.6648     3.6889   138.0051 </r>
       <r>     4.8188     0.9150   138.1460 </r>
       <r>     4.9728     1.9686   138.4492 </r>
       <r>     5.1268     3.7014   139.0194 </r>
       <r>     5.2809     3.9342   139.6253 </r>
       <r>     5.4349     4.3210   140.2909 </r>
       <r>     5.5889     5.9129   141.2016 </r>
       <r>     5.7429     3.9587   141.8113 </r>
       <r>     5.8970     1.6906   142.0717 </r>
       <r>     6.0510     1.1885   142.2548 </r>
       <r>     6.2050     2.2538   142.6019 </r>
       <r>     6.3590     3.1943   143.0939 </r>
       <r>     6.5131     4.4004   143.7717 </r>
       <r>     6.6671     1.2450   143.9634 </r>
       <r>     6.8211     0.4952   144.0397 </r>
       <r>     6.9751     0.2405   144.0767 </r>
       <r>     7.1292     1.8023   144.3543 </r>
       <r>     7.2832     3.9733   144.9663 </r>
       <r>     7.4372     7.0481   146.0519 </r>
       <r>     7.5912     4.2002   146.6988 </r>
       <r>     7.7453     3.5324   147.2429 </r>
       <r>     7.8993     9.9680   148.7782 </r>
       <r>     8.0533    10.8439   150.4484 </r>
       <r>     8.2073    10.6479   152.0885 </r>
       <r>     8.3614     9.8914   153.6120 </r>
       <r>     8.5154    11.0561   155.3149 </r>
       <r>     8.6694    10.1445   156.8774 </r>
       <r>     8.8234    11.6436   158.6708 </r>
       <r>     8.9774     9.8019   160.1805 </r>
       <r>     9.1315     9.5002   161.6438 </r>
       <r>     9.2855     7.1762   162.7491 </r>
       <r>     9.4395     9.5565   164.2210 </r>
       <r>     9.5935    10.8658   165.8946 </r>
       <r>     9.7476    11.2453   167.6267 </r>
       <r>     9.9016    13.5350   169.7114 </r>
       <r>    10.0556    12.8411   171.6892 </r>
       <r>    10.2096    17.4919   174.3834 </r>
       <r>    10.3637     9.5566   175.8553 </r>
       <r>    10.5177     0.4612   175.9264 </r>
       <r>    10.6717     0.4772   175.9999 </r>
       <r>    10.8257     0.0008   176.0000 </r>
       <r>    10.9798     0.0000   176.0000 </r>
       <r>    11.1338     0.0000   176.0000 </r>
       <r>    11.2878     0.0000   176.0000 </r>
       <r>    11.4418     0.0000   176.0000 </r>
       <r>    11.5959     0.0000   176.0000 </r>
       <r>    11.7499     0.0000   176.0000 </r>
       <r>    11.9039     0.0000   176.0000 </r>
       <r>    12.0579     0.0000   176.0000 </r>
       <r>    12.2120     0.0000   176.0000 </r>
       <r>    12.3660     0.0000   176.0000 </r>
       <r>    12.5200     0.0000   176.0000 </r>
       <r>    12.6740     0.0000   176.0000 </r>
      </set>
     </set>
    </array>
   </total>
  </dos>
 </calculation>
 <structure name="finalpos" >
  <crystal>
   <varray name="basis" >
    <v>      11.31370850       0.00000000       0.00000000 </v>
    <v>       0.00000000       8.00000000       0.00000000 </v>
    <v>      -5.65685425       0.00000000       5.65685425 </v>
   </varray>
   <i name="volume">    512.00000000 </i>
   <varray name="rec_basis" >
    <v>       0.08838835       0.00000000       0.08838835 </v>
    <v>       0.00000000       0.12500000       0.00000000 </v>
    <v>       0.00000000       0.00000000       0.17677670 </v>
   </varray>
  </crystal>
  <varray name="positions" >
   <v>       0.25000000       0.75000000       0.00000000 </v>
   <v>       0.25000000       0.25000000       0.00000000 </v>
   <v>       0.75000000       0.75000000       0.50000000 </v>
   <v>       0.25000000       0.75000000       0.50000000 </v>
   <v>       0.75000000       0.25000000       0.00000000 </v>
   <v>       0.75000000       0.75000000       0.00000000 </v>
   <v>       0.25000000       0.25000000       0.50000000 </v>
   <v>       0.75000000       0.25000000       0.50000000 </v>
   <v>       0.50000000       0.50000000       0.50000000 </v>
   <v>       0.00000000       0.50000000       0.50000000 </v>
   <v>       0.50000000       0.00000000       0.00000000 </v>
   <v>       0.50000000       0.50000000       0.00000000 </v>
   <v>       0.00000000       0.00000000       0.50000000 </v>
   <v>       0.50000000       0.00000000       0.50000000 </v>
   <v>       0.00000000       0.50000000       0.00000000 </v>
   <v>       0.00000000       0.00000000       0.00000000 </v>
   <v>       0.25000000       0.50000000       0.75000000 </v>
   <v>       0.00000000       0.50000000       0.25000000 </v>
   <v>       0.50000000       0.00000000       0.75000000 </v>
   <v>       0.50000000       0.50000000       0.75000000 </v>
   <v>       0.00000000       0.25000000       0.50000000 </v>
   <v>       0.50000000       0.25000000       0.50000000 </v>
   <v>       0.50000000       0.25000000       0.00000000 </v>
   <v>       0.50000000       0.75000000       0.00000000 </v>
   <v>       0.75000000       0.00000000       0.75000000 </v>
   <v>       0.50000000       0.00000000       0.25000000 </v>
   <v>       0.00000000       0.50000000       0.75000000 </v>
   <v>       0.00000000       0.00000000       0.75000000 </v>
   <v>       0.50000000       0.75000000       0.50000000 </v>
   <v>       0.00000000       0.75000000       0.50000000 </v>
   <v>       0.00000000       0.75000000       0.00000000 </v>
   <v>       0.00000000       0.25000000       0.00000000 </v>
  </varray>
 </structure>
</modeling>
