<?xml version="1.0" encoding="ISO-8859-1"?>
<modeling>
 <generator>
  <i name="program" type="string">vasp </i>
  <i name="version" type="string">5.3.5  </i>
  <i name="subversion" type="string">31Mar14 (build Jun 20 2014 13:15:13) complex                          parallel </i>
  <i name="platform" type="string">LinuxIFC </i>
  <i name="date" type="string">2025 11 26 </i>
  <i name="time" type="string">17:50:52 </i>
 </generator>
 <incar>
  <i type="string" name="PREC">accurate</i>
  <i type="int" name="IALGO">    68</i>
  <i type="logical" name="ADDGRID"> T  </i>
  <i type="int" name="NELM">   200</i>
  <i type="int" name="NELMIN">     4</i>
  <i type="int" name="IBRION">     2</i>
  <i name="EDIFF">      0.00000100</i>
  <i name="EDIFFG">     -0.02000000</i>
  <i type="int" name="NSW">    30</i>
  <i type="int" name="ISIF">     3</i>
  <i name="ENCUT">    500.00000000</i>
  <i type="logical" name="LREAL"> F  </i>
  <i type="int" name="ISMEAR">     1</i>
  <i name="SIGMA">      0.30000000</i>
  <i type="logical" name="LWAVE"> F  </i>
  <i type="logical" name="LCHARG"> F  </i>
  <i type="int" name="NELM">   200</i>
 </incar>
 <kpoints>
  <generation param="Auto">
   <i name="subdivisionlength">     70.00000000 </i>
   <v type="int" name="divisions">      28       28        8 </v>
   <v name="usershift">      0.00000000       0.00000000       0.00000000 </v>
   <v name="genvec1">      0.03571429       0.00000000       0.00000000 </v>
   <v name="genvec2">      0.00000000       0.03571429       0.00000000 </v>
   <v name="genvec3">      0.00000000       0.00000000       0.12500000 </v>
   <v name="shift">      0.00000000       0.00000000       0.00000000 </v>
  </generation>
  <varray name="kpointlist" >
   <v>       0.00000000       0.00000000       0.00000000 </v>
   <v>       0.03571429       0.00000000       0.00000000 </v>
   <v>       0.07142857       0.00000000       0.00000000 </v>
   <v>       0.10714286       0.00000000       0.00000000 </v>
   <v>       0.14285714       0.00000000       0.00000000 </v>
   <v>       0.17857143       0.00000000       0.00000000 </v>
   <v>       0.21428571       0.00000000       0.00000000 </v>
   <v>       0.25000000       0.00000000       0.00000000 </v>
   <v>       0.28571429       0.00000000       0.00000000 </v>
   <v>       0.32142857       0.00000000       0.00000000 </v>
   <v>       0.35714286       0.00000000       0.00000000 </v>
   <v>       0.39285714       0.00000000       0.00000000 </v>
   <v>       0.42857143       0.00000000       0.00000000 </v>
   <v>       0.46428571       0.00000000       0.00000000 </v>
   <v>       0.50000000       0.00000000       0.00000000 </v>
   <v>       0.00000000       0.03571429       0.00000000 </v>
   <v>       0.03571429       0.03571429       0.00000000 </v>
   <v>       0.07142857       0.03571429       0.00000000 </v>
   <v>       0.10714286       0.03571429       0.00000000 </v>
   <v>       0.14285714       0.03571429       0.00000000 </v>
   <v>       0.17857143       0.03571429       0.00000000 </v>
   <v>       0.21428571       0.03571429       0.00000000 </v>
   <v>       0.25000000       0.03571429       0.00000000 </v>
   <v>       0.28571429       0.03571429       0.00000000 </v>
   <v>       0.32142857       0.03571429       0.00000000 </v>
   <v>       0.35714286       0.03571429       0.00000000 </v>
   <v>       0.39285714       0.03571429       0.00000000 </v>
   <v>       0.42857143       0.03571429       0.00000000 </v>
   <v>       0.46428571       0.03571429       0.00000000 </v>
   <v>       0.50000000       0.03571429       0.00000000 </v>
   <v>      -0.46428571       0.03571429       0.00000000 </v>
   <v>      -0.42857143       0.03571429       0.00000000 </v>
   <v>      -0.39285714       0.03571429       0.00000000 </v>
   <v>      -0.35714286       0.03571429       0.00000000 </v>
   <v>      -0.32142857       0.03571429       0.00000000 </v>
   <v>      -0.28571429       0.03571429       0.00000000 </v>
   <v>      -0.25000000       0.03571429       0.00000000 </v>
   <v>      -0.21428571       0.03571429       0.00000000 </v>
   <v>      -0.17857143       0.03571429       0.00000000 </v>
   <v>      -0.14285714       0.03571429       0.00000000 </v>
   <v>      -0.10714286       0.03571429       0.00000000 </v>
   <v>      -0.07142857       0.03571429       0.00000000 </v>
   <v>       0.00000000       0.07142857       0.00000000 </v>
   <v>       0.03571429       0.07142857       0.00000000 </v>
   <v>       0.07142857       0.07142857       0.00000000 </v>
   <v>       0.10714286       0.07142857       0.00000000 </v>
   <v>       0.14285714       0.07142857       0.00000000 </v>
   <v>       0.17857143       0.07142857       0.00000000 </v>
   <v>       0.21428571       0.07142857       0.00000000 </v>
   <v>       0.25000000       0.07142857       0.00000000 </v>
   <v>       0.28571429       0.07142857       0.00000000 </v>
   <v>       0.32142857       0.07142857       0.00000000 </v>
   <v>       0.35714286       0.07142857       0.00000000 </v>
   <v>       0.39285714       0.07142857       0.00000000 </v>
   <v>       0.42857143       0.07142857       0.00000000 </v>
   <v>       0.46428571       0.07142857       0.00000000 </v>
   <v>       0.50000000       0.07142857       0.00000000 </v>
   <v>      -0.46428571       0.07142857       0.00000000 </v>
   <v>      -0.42857143       0.07142857       0.00000000 </v>
   <v>      -0.39285714       0.07142857       0.00000000 </v>
   <v>      -0.35714286       0.07142857       0.00000000 </v>
   <v>      -0.32142857       0.07142857       0.00000000 </v>
   <v>      -0.28571429       0.07142857       0.00000000 </v>
   <v>      -0.25000000       0.07142857       0.00000000 </v>
   <v>      -0.21428571       0.07142857       0.00000000 </v>
   <v>      -0.17857143       0.07142857       0.00000000 </v>
   <v>      -0.14285714       0.07142857       0.00000000 </v>
   <v>       0.00000000       0.10714286       0.00000000 </v>
   <v>       0.03571429       0.10714286       0.00000000 </v>
   <v>       0.07142857       0.10714286       0.00000000 </v>
   <v>       0.10714286       0.10714286       0.00000000 </v>
   <v>       0.14285714       0.10714286       0.00000000 </v>
   <v>       0.17857143       0.10714286       0.00000000 </v>
   <v>       0.21428571       0.10714286       0.00000000 </v>
   <v>       0.25000000       0.10714286       0.00000000 </v>
   <v>       0.28571429       0.10714286       0.00000000 </v>
   <v>       0.32142857       0.10714286       0.00000000 </v>
   <v>       0.35714286       0.10714286       0.00000000 </v>
   <v>       0.39285714       0.10714286       0.00000000 </v>
   <v>       0.42857143       0.10714286       0.00000000 </v>
   <v>       0.46428571       0.10714286       0.00000000 </v>
   <v>       0.50000000       0.10714286       0.00000000 </v>
   <v>      -0.46428571       0.10714286       0.00000000 </v>
   <v>      -0.42857143       0.10714286       0.00000000 </v>
   <v>      -0.39285714       0.10714286       0.00000000 </v>
   <v>      -0.35714286       0.10714286       0.00000000 </v>
   <v>      -0.32142857       0.10714286       0.00000000 </v>
   <v>      -0.28571429       0.10714286       0.00000000 </v>
   <v>      -0.25000000       0.10714286       0.00000000 </v>
   <v>      -0.21428571       0.10714286       0.00000000 </v>
   <v>       0.00000000       0.14285714       0.00000000 </v>
   <v>       0.03571429       0.14285714       0.00000000 </v>
   <v>       0.07142857       0.14285714       0.00000000 </v>
   <v>       0.10714286       0.14285714       0.00000000 </v>
   <v>       0.14285714       0.14285714       0.00000000 </v>
   <v>       0.17857143       0.14285714       0.00000000 </v>
   <v>       0.21428571       0.14285714       0.00000000 </v>
   <v>       0.25000000       0.14285714       0.00000000 </v>
   <v>       0.28571429       0.14285714       0.00000000 </v>
   <v>       0.32142857       0.14285714       0.00000000 </v>
   <v>       0.35714286       0.14285714       0.00000000 </v>
   <v>       0.39285714       0.14285714       0.00000000 </v>
   <v>       0.42857143       0.14285714       0.00000000 </v>
   <v>       0.46428571       0.14285714       0.00000000 </v>
   <v>       0.50000000       0.14285714       0.00000000 </v>
   <v>      -0.46428571       0.14285714       0.00000000 </v>
   <v>      -0.42857143       0.14285714       0.00000000 </v>
   <v>      -0.39285714       0.14285714       0.00000000 </v>
   <v>      -0.35714286       0.14285714       0.00000000 </v>
   <v>      -0.32142857       0.14285714       0.00000000 </v>
   <v>      -0.28571429       0.14285714       0.00000000 </v>
   <v>       0.00000000       0.17857143       0.00000000 </v>
   <v>       0.03571429       0.17857143       0.00000000 </v>
   <v>       0.07142857       0.17857143       0.00000000 </v>
   <v>       0.10714286       0.17857143       0.00000000 </v>
   <v>       0.14285714       0.17857143       0.00000000 </v>
   <v>       0.17857143       0.17857143       0.00000000 </v>
   <v>       0.21428571       0.17857143       0.00000000 </v>
   <v>       0.25000000       0.17857143       0.00000000 </v>
   <v>       0.28571429       0.17857143       0.00000000 </v>
   <v>       0.32142857       0.17857143       0.00000000 </v>
   <v>       0.35714286       0.17857143       0.00000000 </v>
   <v>       0.39285714       0.17857143       0.00000000 </v>
   <v>       0.42857143       0.17857143       0.00000000 </v>
   <v>       0.46428571       0.17857143       0.00000000 </v>
   <v>       0.50000000       0.17857143       0.00000000 </v>
   <v>      -0.46428571       0.17857143       0.00000000 </v>
   <v>      -0.42857143       0.17857143       0.00000000 </v>
   <v>      -0.39285714       0.17857143       0.00000000 </v>
   <v>      -0.35714286       0.17857143       0.00000000 </v>
   <v>       0.00000000       0.21428571       0.00000000 </v>
   <v>       0.03571429       0.21428571       0.00000000 </v>
   <v>       0.07142857       0.21428571       0.00000000 </v>
   <v>       0.10714286       0.21428571       0.00000000 </v>
   <v>       0.14285714       0.21428571       0.00000000 </v>
   <v>       0.17857143       0.21428571       0.00000000 </v>
   <v>       0.21428571       0.21428571       0.00000000 </v>
   <v>       0.25000000       0.21428571       0.00000000 </v>
   <v>       0.28571429       0.21428571       0.00000000 </v>
   <v>       0.32142857       0.21428571       0.00000000 </v>
   <v>       0.35714286       0.21428571       0.00000000 </v>
   <v>       0.39285714       0.21428571       0.00000000 </v>
   <v>       0.42857143       0.21428571       0.00000000 </v>
   <v>       0.46428571       0.21428571       0.00000000 </v>
   <v>       0.50000000       0.21428571       0.00000000 </v>
   <v>      -0.46428571       0.21428571       0.00000000 </v>
   <v>      -0.42857143       0.21428571       0.00000000 </v>
   <v>       0.00000000       0.25000000       0.00000000 </v>
   <v>       0.03571429       0.25000000       0.00000000 </v>
   <v>       0.07142857       0.25000000       0.00000000 </v>
   <v>       0.10714286       0.25000000       0.00000000 </v>
   <v>       0.14285714       0.25000000       0.00000000 </v>
   <v>       0.17857143       0.25000000       0.00000000 </v>
   <v>       0.21428571       0.25000000       0.00000000 </v>
   <v>       0.25000000       0.25000000       0.00000000 </v>
   <v>       0.28571429       0.25000000       0.00000000 </v>
   <v>       0.32142857       0.25000000       0.00000000 </v>
   <v>       0.35714286       0.25000000       0.00000000 </v>
   <v>       0.39285714       0.25000000       0.00000000 </v>
   <v>       0.42857143       0.25000000       0.00000000 </v>
   <v>       0.46428571       0.25000000       0.00000000 </v>
   <v>       0.50000000       0.25000000       0.00000000 </v>
   <v>       0.00000000       0.28571429       0.00000000 </v>
   <v>       0.03571429       0.28571429       0.00000000 </v>
   <v>       0.07142857       0.28571429       0.00000000 </v>
   <v>       0.10714286       0.28571429       0.00000000 </v>
   <v>       0.14285714       0.28571429       0.00000000 </v>
   <v>       0.17857143       0.28571429       0.00000000 </v>
   <v>       0.21428571       0.28571429       0.00000000 </v>
   <v>       0.25000000       0.28571429       0.00000000 </v>
   <v>       0.28571429       0.28571429       0.00000000 </v>
   <v>       0.32142857       0.28571429       0.00000000 </v>
   <v>       0.35714286       0.28571429       0.00000000 </v>
   <v>       0.39285714       0.28571429       0.00000000 </v>
   <v>       0.42857143       0.28571429       0.00000000 </v>
   <v>       0.00000000       0.32142857       0.00000000 </v>
   <v>       0.03571429       0.32142857       0.00000000 </v>
   <v>       0.07142857       0.32142857       0.00000000 </v>
   <v>       0.10714286       0.32142857       0.00000000 </v>
   <v>       0.14285714       0.32142857       0.00000000 </v>
   <v>       0.17857143       0.32142857       0.00000000 </v>
   <v>       0.21428571       0.32142857       0.00000000 </v>
   <v>       0.25000000       0.32142857       0.00000000 </v>
   <v>       0.28571429       0.32142857       0.00000000 </v>
   <v>       0.32142857       0.32142857       0.00000000 </v>
   <v>       0.35714286       0.32142857       0.00000000 </v>
   <v>       0.00000000       0.35714286       0.00000000 </v>
   <v>       0.03571429       0.35714286       0.00000000 </v>
   <v>       0.07142857       0.35714286       0.00000000 </v>
   <v>       0.10714286       0.35714286       0.00000000 </v>
   <v>       0.14285714       0.35714286       0.00000000 </v>
   <v>       0.17857143       0.35714286       0.00000000 </v>
   <v>       0.21428571       0.35714286       0.00000000 </v>
   <v>       0.25000000       0.35714286       0.00000000 </v>
   <v>       0.28571429       0.35714286       0.00000000 </v>
   <v>       0.00000000       0.39285714       0.00000000 </v>
   <v>       0.03571429       0.39285714       0.00000000 </v>
   <v>       0.07142857       0.39285714       0.00000000 </v>
   <v>       0.10714286       0.39285714       0.00000000 </v>
   <v>       0.14285714       0.39285714       0.00000000 </v>
   <v>       0.17857143       0.39285714       0.00000000 </v>
   <v>       0.21428571       0.39285714       0.00000000 </v>
   <v>       0.00000000       0.42857143       0.00000000 </v>
   <v>       0.03571429       0.42857143       0.00000000 </v>
   <v>       0.07142857       0.42857143       0.00000000 </v>
   <v>       0.10714286       0.42857143       0.00000000 </v>
   <v>       0.14285714       0.42857143       0.00000000 </v>
   <v>       0.00000000       0.46428571       0.00000000 </v>
   <v>       0.03571429       0.46428571       0.00000000 </v>
   <v>       0.07142857       0.46428571       0.00000000 </v>
   <v>       0.00000000       0.50000000       0.00000000 </v>
   <v>       0.00000000       0.00000000       0.12500000 </v>
   <v>       0.03571429       0.00000000       0.12500000 </v>
   <v>       0.07142857       0.00000000       0.12500000 </v>
   <v>       0.10714286       0.00000000       0.12500000 </v>
   <v>       0.14285714       0.00000000       0.12500000 </v>
   <v>       0.17857143       0.00000000       0.12500000 </v>
   <v>       0.21428571       0.00000000       0.12500000 </v>
   <v>       0.25000000       0.00000000       0.12500000 </v>
   <v>       0.28571429       0.00000000       0.12500000 </v>
   <v>       0.32142857       0.00000000       0.12500000 </v>
   <v>       0.35714286       0.00000000       0.12500000 </v>
   <v>       0.39285714       0.00000000       0.12500000 </v>
   <v>       0.42857143       0.00000000       0.12500000 </v>
   <v>       0.46428571       0.00000000       0.12500000 </v>
   <v>       0.50000000       0.00000000       0.12500000 </v>
   <v>      -0.46428571       0.00000000       0.12500000 </v>
   <v>      -0.42857143       0.00000000       0.12500000 </v>
   <v>      -0.39285714       0.00000000       0.12500000 </v>
   <v>      -0.35714286       0.00000000       0.12500000 </v>
   <v>      -0.32142857       0.00000000       0.12500000 </v>
   <v>      -0.28571429       0.00000000       0.12500000 </v>
   <v>      -0.25000000       0.00000000       0.12500000 </v>
   <v>      -0.21428571       0.00000000       0.12500000 </v>
   <v>      -0.17857143       0.00000000       0.12500000 </v>
   <v>      -0.14285714       0.00000000       0.12500000 </v>
   <v>      -0.10714286       0.00000000       0.12500000 </v>
   <v>      -0.07142857       0.00000000       0.12500000 </v>
   <v>      -0.03571429       0.00000000       0.12500000 </v>
   <v>       0.00000000       0.03571429       0.12500000 </v>
   <v>       0.03571429       0.03571429       0.12500000 </v>
   <v>       0.07142857       0.03571429       0.12500000 </v>
   <v>       0.10714286       0.03571429       0.12500000 </v>
   <v>       0.14285714       0.03571429       0.12500000 </v>
   <v>       0.17857143       0.03571429       0.12500000 </v>
   <v>       0.21428571       0.03571429       0.12500000 </v>
   <v>       0.25000000       0.03571429       0.12500000 </v>
   <v>       0.28571429       0.03571429       0.12500000 </v>
   <v>       0.32142857       0.03571429       0.12500000 </v>
   <v>       0.35714286       0.03571429       0.12500000 </v>
   <v>       0.39285714       0.03571429       0.12500000 </v>
   <v>       0.42857143       0.03571429       0.12500000 </v>
   <v>       0.46428571       0.03571429       0.12500000 </v>
   <v>       0.50000000       0.03571429       0.12500000 </v>
   <v>      -0.46428571       0.03571429       0.12500000 </v>
   <v>      -0.42857143       0.03571429       0.12500000 </v>
   <v>      -0.39285714       0.03571429       0.12500000 </v>
   <v>      -0.35714286       0.03571429       0.12500000 </v>
   <v>      -0.32142857       0.03571429       0.12500000 </v>
   <v>      -0.28571429       0.03571429       0.12500000 </v>
   <v>      -0.25000000       0.03571429       0.12500000 </v>
   <v>      -0.21428571       0.03571429       0.12500000 </v>
   <v>      -0.17857143       0.03571429       0.12500000 </v>
   <v>      -0.14285714       0.03571429       0.12500000 </v>
   <v>      -0.10714286       0.03571429       0.12500000 </v>
   <v>      -0.07142857       0.03571429       0.12500000 </v>
   <v>       0.00000000       0.07142857       0.12500000 </v>
   <v>       0.03571429       0.07142857       0.12500000 </v>
   <v>       0.07142857       0.07142857       0.12500000 </v>
   <v>       0.10714286       0.07142857       0.12500000 </v>
   <v>       0.14285714       0.07142857       0.12500000 </v>
   <v>       0.17857143       0.07142857       0.12500000 </v>
   <v>       0.21428571       0.07142857       0.12500000 </v>
   <v>       0.25000000       0.07142857       0.12500000 </v>
   <v>       0.28571429       0.07142857       0.12500000 </v>
   <v>       0.32142857       0.07142857       0.12500000 </v>
   <v>       0.35714286       0.07142857       0.12500000 </v>
   <v>       0.39285714       0.07142857       0.12500000 </v>
   <v>       0.42857143       0.07142857       0.12500000 </v>
   <v>       0.46428571       0.07142857       0.12500000 </v>
   <v>       0.50000000       0.07142857       0.12500000 </v>
   <v>      -0.46428571       0.07142857       0.12500000 </v>
   <v>      -0.42857143       0.07142857       0.12500000 </v>
   <v>      -0.39285714       0.07142857       0.12500000 </v>
   <v>      -0.35714286       0.07142857       0.12500000 </v>
   <v>      -0.32142857       0.07142857       0.12500000 </v>
   <v>      -0.28571429       0.07142857       0.12500000 </v>
   <v>      -0.25000000       0.07142857       0.12500000 </v>
   <v>      -0.21428571       0.07142857       0.12500000 </v>
   <v>      -0.17857143       0.07142857       0.12500000 </v>
   <v>      -0.14285714       0.07142857       0.12500000 </v>
   <v>      -0.10714286       0.07142857       0.12500000 </v>
   <v>       0.00000000       0.10714286       0.12500000 </v>
   <v>       0.03571429       0.10714286       0.12500000 </v>
   <v>       0.07142857       0.10714286       0.12500000 </v>
   <v>       0.10714286       0.10714286       0.12500000 </v>
   <v>       0.14285714       0.10714286       0.12500000 </v>
   <v>       0.17857143       0.10714286       0.12500000 </v>
   <v>       0.21428571       0.10714286       0.12500000 </v>
   <v>       0.25000000       0.10714286       0.12500000 </v>
   <v>       0.28571429       0.10714286       0.12500000 </v>
   <v>       0.32142857       0.10714286       0.12500000 </v>
   <v>       0.35714286       0.10714286       0.12500000 </v>
   <v>       0.39285714       0.10714286       0.12500000 </v>
   <v>       0.42857143       0.10714286       0.12500000 </v>
   <v>       0.46428571       0.10714286       0.12500000 </v>
   <v>       0.50000000       0.10714286       0.12500000 </v>
   <v>      -0.46428571       0.10714286       0.12500000 </v>
   <v>      -0.42857143       0.10714286       0.12500000 </v>
   <v>      -0.39285714       0.10714286       0.12500000 </v>
   <v>      -0.35714286       0.10714286       0.12500000 </v>
   <v>      -0.32142857       0.10714286       0.12500000 </v>
   <v>      -0.28571429       0.10714286       0.12500000 </v>
   <v>      -0.25000000       0.10714286       0.12500000 </v>
   <v>      -0.21428571       0.10714286       0.12500000 </v>
   <v>      -0.17857143       0.10714286       0.12500000 </v>
   <v>      -0.14285714       0.10714286       0.12500000 </v>
   <v>       0.00000000       0.14285714       0.12500000 </v>
   <v>       0.03571429       0.14285714       0.12500000 </v>
   <v>       0.07142857       0.14285714       0.12500000 </v>
   <v>       0.10714286       0.14285714       0.12500000 </v>
   <v>       0.14285714       0.14285714       0.12500000 </v>
   <v>       0.17857143       0.14285714       0.12500000 </v>
   <v>       0.21428571       0.14285714       0.12500000 </v>
   <v>       0.25000000       0.14285714       0.12500000 </v>
   <v>       0.28571429       0.14285714       0.12500000 </v>
   <v>       0.32142857       0.14285714       0.12500000 </v>
   <v>       0.35714286       0.14285714       0.12500000 </v>
   <v>       0.39285714       0.14285714       0.12500000 </v>
   <v>       0.42857143       0.14285714       0.12500000 </v>
   <v>       0.46428571       0.14285714       0.12500000 </v>
   <v>       0.50000000       0.14285714       0.12500000 </v>
   <v>      -0.46428571       0.14285714       0.12500000 </v>
   <v>      -0.42857143       0.14285714       0.12500000 </v>
   <v>      -0.39285714       0.14285714       0.12500000 </v>
   <v>      -0.35714286       0.14285714       0.12500000 </v>
   <v>      -0.32142857       0.14285714       0.12500000 </v>
   <v>      -0.28571429       0.14285714       0.12500000 </v>
   <v>      -0.25000000       0.14285714       0.12500000 </v>
   <v>      -0.21428571       0.14285714       0.12500000 </v>
   <v>      -0.17857143       0.14285714       0.12500000 </v>
   <v>       0.00000000       0.17857143       0.12500000 </v>
   <v>       0.03571429       0.17857143       0.12500000 </v>
   <v>       0.07142857       0.17857143       0.12500000 </v>
   <v>       0.10714286       0.17857143       0.12500000 </v>
   <v>       0.14285714       0.17857143       0.12500000 </v>
   <v>       0.17857143       0.17857143       0.12500000 </v>
   <v>       0.21428571       0.17857143       0.12500000 </v>
   <v>       0.25000000       0.17857143       0.12500000 </v>
   <v>       0.28571429       0.17857143       0.12500000 </v>
   <v>       0.32142857       0.17857143       0.12500000 </v>
   <v>       0.35714286       0.17857143       0.12500000 </v>
   <v>       0.39285714       0.17857143       0.12500000 </v>
   <v>       0.42857143       0.17857143       0.12500000 </v>
   <v>       0.46428571       0.17857143       0.12500000 </v>
   <v>       0.50000000       0.17857143       0.12500000 </v>
   <v>      -0.46428571       0.17857143       0.12500000 </v>
   <v>      -0.42857143       0.17857143       0.12500000 </v>
   <v>      -0.39285714       0.17857143       0.12500000 </v>
   <v>      -0.35714286       0.17857143       0.12500000 </v>
   <v>      -0.32142857       0.17857143       0.12500000 </v>
   <v>      -0.28571429       0.17857143       0.12500000 </v>
   <v>      -0.25000000       0.17857143       0.12500000 </v>
   <v>      -0.21428571       0.17857143       0.12500000 </v>
   <v>       0.00000000       0.21428571       0.12500000 </v>
   <v>       0.03571429       0.21428571       0.12500000 </v>
   <v>       0.07142857       0.21428571       0.12500000 </v>
   <v>       0.10714286       0.21428571       0.12500000 </v>
   <v>       0.14285714       0.21428571       0.12500000 </v>
   <v>       0.17857143       0.21428571       0.12500000 </v>
   <v>       0.21428571       0.21428571       0.12500000 </v>
   <v>       0.25000000       0.21428571       0.12500000 </v>
   <v>       0.28571429       0.21428571       0.12500000 </v>
   <v>       0.32142857       0.21428571       0.12500000 </v>
   <v>       0.35714286       0.21428571       0.12500000 </v>
   <v>       0.39285714       0.21428571       0.12500000 </v>
   <v>       0.42857143       0.21428571       0.12500000 </v>
   <v>       0.46428571       0.21428571       0.12500000 </v>
   <v>       0.50000000       0.21428571       0.12500000 </v>
   <v>      -0.46428571       0.21428571       0.12500000 </v>
   <v>      -0.42857143       0.21428571       0.12500000 </v>
   <v>      -0.39285714       0.21428571       0.12500000 </v>
   <v>      -0.35714286       0.21428571       0.12500000 </v>
   <v>      -0.32142857       0.21428571       0.12500000 </v>
   <v>      -0.28571429       0.21428571       0.12500000 </v>
   <v>      -0.25000000       0.21428571       0.12500000 </v>
   <v>       0.00000000       0.25000000       0.12500000 </v>
   <v>       0.03571429       0.25000000       0.12500000 </v>
   <v>       0.07142857       0.25000000       0.12500000 </v>
   <v>       0.10714286       0.25000000       0.12500000 </v>
   <v>       0.14285714       0.25000000       0.12500000 </v>
   <v>       0.17857143       0.25000000       0.12500000 </v>
   <v>       0.21428571       0.25000000       0.12500000 </v>
   <v>       0.25000000       0.25000000       0.12500000 </v>
   <v>       0.28571429       0.25000000       0.12500000 </v>
   <v>       0.32142857       0.25000000       0.12500000 </v>
   <v>       0.35714286       0.25000000       0.12500000 </v>
   <v>       0.39285714       0.25000000       0.12500000 </v>
   <v>       0.42857143       0.25000000       0.12500000 </v>
   <v>       0.46428571       0.25000000       0.12500000 </v>
   <v>       0.50000000       0.25000000       0.12500000 </v>
   <v>      -0.46428571       0.25000000       0.12500000 </v>
   <v>      -0.42857143       0.25000000       0.12500000 </v>
   <v>      -0.39285714       0.25000000       0.12500000 </v>
   <v>      -0.35714286       0.25000000       0.12500000 </v>
   <v>      -0.32142857       0.25000000       0.12500000 </v>
   <v>      -0.28571429       0.25000000       0.12500000 </v>
   <v>       0.00000000       0.28571429       0.12500000 </v>
   <v>       0.03571429       0.28571429       0.12500000 </v>
   <v>       0.07142857       0.28571429       0.12500000 </v>
   <v>       0.10714286       0.28571429       0.12500000 </v>
   <v>       0.14285714       0.28571429       0.12500000 </v>
   <v>       0.17857143       0.28571429       0.12500000 </v>
   <v>       0.21428571       0.28571429       0.12500000 </v>
   <v>       0.25000000       0.28571429       0.12500000 </v>
   <v>       0.28571429       0.28571429       0.12500000 </v>
   <v>       0.32142857       0.28571429       0.12500000 </v>
   <v>       0.35714286       0.28571429       0.12500000 </v>
   <v>       0.39285714       0.28571429       0.12500000 </v>
   <v>       0.42857143       0.28571429       0.12500000 </v>
   <v>       0.46428571       0.28571429       0.12500000 </v>
   <v>       0.50000000       0.28571429       0.12500000 </v>
   <v>      -0.46428571       0.28571429       0.12500000 </v>
   <v>      -0.42857143       0.28571429       0.12500000 </v>
   <v>      -0.39285714       0.28571429       0.12500000 </v>
   <v>      -0.35714286       0.28571429       0.12500000 </v>
   <v>      -0.32142857       0.28571429       0.12500000 </v>
   <v>       0.00000000       0.32142857       0.12500000 </v>
   <v>       0.03571429       0.32142857       0.12500000 </v>
   <v>       0.07142857       0.32142857       0.12500000 </v>
   <v>       0.10714286       0.32142857       0.12500000 </v>
   <v>       0.14285714       0.32142857       0.12500000 </v>
   <v>       0.17857143       0.32142857       0.12500000 </v>
   <v>       0.21428571       0.32142857       0.12500000 </v>
   <v>       0.25000000       0.32142857       0.12500000 </v>
   <v>       0.28571429       0.32142857       0.12500000 </v>
   <v>       0.32142857       0.32142857       0.12500000 </v>
   <v>       0.35714286       0.32142857       0.12500000 </v>
   <v>       0.39285714       0.32142857       0.12500000 </v>
   <v>       0.42857143       0.32142857       0.12500000 </v>
   <v>       0.46428571       0.32142857       0.12500000 </v>
   <v>       0.50000000       0.32142857       0.12500000 </v>
   <v>      -0.46428571       0.32142857       0.12500000 </v>
   <v>      -0.42857143       0.32142857       0.12500000 </v>
   <v>      -0.39285714       0.32142857       0.12500000 </v>
   <v>      -0.35714286       0.32142857       0.12500000 </v>
   <v>       0.00000000       0.35714286       0.12500000 </v>
   <v>       0.03571429       0.35714286       0.12500000 </v>
   <v>       0.07142857       0.35714286       0.12500000 </v>
   <v>       0.10714286       0.35714286       0.12500000 </v>
   <v>       0.14285714       0.35714286       0.12500000 </v>
   <v>       0.17857143       0.35714286       0.12500000 </v>
   <v>       0.21428571       0.35714286       0.12500000 </v>
   <v>       0.25000000       0.35714286       0.12500000 </v>
   <v>       0.28571429       0.35714286       0.12500000 </v>
   <v>       0.32142857       0.35714286       0.12500000 </v>
   <v>       0.35714286       0.35714286       0.12500000 </v>
   <v>       0.39285714       0.35714286       0.12500000 </v>
   <v>       0.42857143       0.35714286       0.12500000 </v>
   <v>       0.46428571       0.35714286       0.12500000 </v>
   <v>       0.50000000       0.35714286       0.12500000 </v>
   <v>      -0.46428571       0.35714286       0.12500000 </v>
   <v>      -0.42857143       0.35714286       0.12500000 </v>
   <v>      -0.39285714       0.35714286       0.12500000 </v>
   <v>       0.00000000       0.39285714       0.12500000 </v>
   <v>       0.03571429       0.39285714       0.12500000 </v>
   <v>       0.07142857       0.39285714       0.12500000 </v>
   <v>       0.10714286       0.39285714       0.12500000 </v>
   <v>       0.14285714       0.39285714       0.12500000 </v>
   <v>       0.17857143       0.39285714       0.12500000 </v>
   <v>       0.21428571       0.39285714       0.12500000 </v>
   <v>       0.25000000       0.39285714       0.12500000 </v>
   <v>       0.28571429       0.39285714       0.12500000 </v>
   <v>       0.32142857       0.39285714       0.12500000 </v>
   <v>       0.39285714       0.39285714       0.12500000 </v>
   <v>       0.42857143       0.39285714       0.12500000 </v>
   <v>       0.46428571       0.39285714       0.12500000 </v>
   <v>       0.50000000       0.39285714       0.12500000 </v>
   <v>      -0.46428571       0.39285714       0.12500000 </v>
   <v>      -0.42857143       0.39285714       0.12500000 </v>
   <v>       0.00000000       0.42857143       0.12500000 </v>
   <v>       0.03571429       0.42857143       0.12500000 </v>
   <v>       0.07142857       0.42857143       0.12500000 </v>
   <v>       0.10714286       0.42857143       0.12500000 </v>
   <v>       0.14285714       0.42857143       0.12500000 </v>
   <v>       0.17857143       0.42857143       0.12500000 </v>
   <v>       0.21428571       0.42857143       0.12500000 </v>
   <v>       0.25000000       0.42857143       0.12500000 </v>
   <v>       0.28571429       0.42857143       0.12500000 </v>
   <v>       0.35714286       0.42857143       0.12500000 </v>
   <v>       0.39285714       0.42857143       0.12500000 </v>
   <v>       0.42857143       0.42857143       0.12500000 </v>
   <v>       0.46428571       0.42857143       0.12500000 </v>
   <v>       0.50000000       0.42857143       0.12500000 </v>
   <v>      -0.46428571       0.42857143       0.12500000 </v>
   <v>       0.00000000       0.46428571       0.12500000 </v>
   <v>       0.03571429       0.46428571       0.12500000 </v>
   <v>       0.07142857       0.46428571       0.12500000 </v>
   <v>       0.10714286       0.46428571       0.12500000 </v>
   <v>       0.14285714       0.46428571       0.12500000 </v>
   <v>       0.17857143       0.46428571       0.12500000 </v>
   <v>       0.21428571       0.46428571       0.12500000 </v>
   <v>       0.25000000       0.46428571       0.12500000 </v>
   <v>       0.32142857       0.46428571       0.12500000 </v>
   <v>       0.35714286       0.46428571       0.12500000 </v>
   <v>       0.39285714       0.46428571       0.12500000 </v>
   <v>       0.42857143       0.46428571       0.12500000 </v>
   <v>       0.46428571       0.46428571       0.12500000 </v>
   <v>       0.50000000       0.46428571       0.12500000 </v>
   <v>       0.00000000       0.50000000       0.12500000 </v>
   <v>       0.03571429       0.50000000       0.12500000 </v>
   <v>       0.07142857       0.50000000       0.12500000 </v>
   <v>       0.10714286       0.50000000       0.12500000 </v>
   <v>       0.14285714       0.50000000       0.12500000 </v>
   <v>       0.17857143       0.50000000       0.12500000 </v>
   <v>       0.21428571       0.50000000       0.12500000 </v>
   <v>       0.28571429       0.50000000       0.12500000 </v>
   <v>       0.32142857       0.50000000       0.12500000 </v>
   <v>       0.35714286       0.50000000       0.12500000 </v>
   <v>       0.39285714       0.50000000       0.12500000 </v>
   <v>       0.42857143       0.50000000       0.12500000 </v>
   <v>       0.46428571       0.50000000       0.12500000 </v>
   <v>       0.00000000      -0.46428571       0.12500000 </v>
   <v>       0.03571429      -0.46428571       0.12500000 </v>
   <v>       0.07142857      -0.46428571       0.12500000 </v>
   <v>       0.10714286      -0.46428571       0.12500000 </v>
   <v>       0.14285714      -0.46428571       0.12500000 </v>
   <v>       0.17857143      -0.46428571       0.12500000 </v>
   <v>       0.25000000      -0.46428571       0.12500000 </v>
   <v>       0.28571429      -0.46428571       0.12500000 </v>
   <v>       0.32142857      -0.46428571       0.12500000 </v>
   <v>       0.35714286      -0.46428571       0.12500000 </v>
   <v>       0.39285714      -0.46428571       0.12500000 </v>
   <v>       0.42857143      -0.46428571       0.12500000 </v>
   <v>       0.00000000      -0.42857143       0.12500000 </v>
   <v>       0.03571429      -0.42857143       0.12500000 </v>
   <v>       0.07142857      -0.42857143       0.12500000 </v>
   <v>       0.10714286      -0.42857143       0.12500000 </v>
   <v>       0.14285714      -0.42857143       0.12500000 </v>
   <v>       0.21428571      -0.42857143       0.12500000 </v>
   <v>       0.25000000      -0.42857143       0.12500000 </v>
   <v>       0.28571429      -0.42857143       0.12500000 </v>
   <v>       0.32142857      -0.42857143       0.12500000 </v>
   <v>       0.35714286      -0.42857143       0.12500000 </v>
   <v>       0.39285714      -0.42857143       0.12500000 </v>
   <v>       0.00000000      -0.39285714       0.12500000 </v>
   <v>       0.03571429      -0.39285714       0.12500000 </v>
   <v>       0.07142857      -0.39285714       0.12500000 </v>
   <v>       0.10714286      -0.39285714       0.12500000 </v>
   <v>       0.17857143      -0.39285714       0.12500000 </v>
   <v>       0.21428571      -0.39285714       0.12500000 </v>
   <v>       0.25000000      -0.39285714       0.12500000 </v>
   <v>       0.28571429      -0.39285714       0.12500000 </v>
   <v>       0.32142857      -0.39285714       0.12500000 </v>
   <v>       0.35714286      -0.39285714       0.12500000 </v>
   <v>       0.00000000      -0.35714286       0.12500000 </v>
   <v>       0.03571429      -0.35714286       0.12500000 </v>
   <v>       0.07142857      -0.35714286       0.12500000 </v>
   <v>       0.14285714      -0.35714286       0.12500000 </v>
   <v>       0.17857143      -0.35714286       0.12500000 </v>
   <v>       0.21428571      -0.35714286       0.12500000 </v>
   <v>       0.25000000      -0.35714286       0.12500000 </v>
   <v>       0.28571429      -0.35714286       0.12500000 </v>
   <v>       0.32142857      -0.35714286       0.12500000 </v>
   <v>       0.00000000      -0.32142857       0.12500000 </v>
   <v>       0.03571429      -0.32142857       0.12500000 </v>
   <v>       0.10714286      -0.32142857       0.12500000 </v>
   <v>       0.14285714      -0.32142857       0.12500000 </v>
   <v>       0.17857143      -0.32142857       0.12500000 </v>
   <v>       0.21428571      -0.32142857       0.12500000 </v>
   <v>       0.25000000      -0.32142857       0.12500000 </v>
   <v>       0.28571429      -0.32142857       0.12500000 </v>
   <v>       0.00000000      -0.28571429       0.12500000 </v>
   <v>       0.07142857      -0.28571429       0.12500000 </v>
   <v>       0.10714286      -0.28571429       0.12500000 </v>
   <v>       0.14285714      -0.28571429       0.12500000 </v>
   <v>       0.17857143      -0.28571429       0.12500000 </v>
   <v>       0.21428571      -0.28571429       0.12500000 </v>
   <v>       0.25000000      -0.28571429       0.12500000 </v>
   <v>       0.03571429      -0.25000000       0.12500000 </v>
   <v>       0.07142857      -0.25000000       0.12500000 </v>
   <v>       0.10714286      -0.25000000       0.12500000 </v>
   <v>       0.00000000      -0.21428571       0.12500000 </v>
   <v>       0.03571429      -0.21428571       0.12500000 </v>
   <v>       0.07142857      -0.21428571       0.12500000 </v>
   <v>       0.10714286      -0.21428571       0.12500000 </v>
   <v>       0.14285714      -0.21428571       0.12500000 </v>
   <v>       0.17857143      -0.21428571       0.12500000 </v>
   <v>       0.00000000      -0.17857143       0.12500000 </v>
   <v>       0.03571429      -0.17857143       0.12500000 </v>
   <v>       0.07142857      -0.17857143       0.12500000 </v>
   <v>       0.10714286      -0.17857143       0.12500000 </v>
   <v>       0.14285714      -0.17857143       0.12500000 </v>
   <v>       0.00000000      -0.14285714       0.12500000 </v>
   <v>       0.03571429      -0.14285714       0.12500000 </v>
   <v>       0.07142857      -0.14285714       0.12500000 </v>
   <v>       0.10714286      -0.14285714       0.12500000 </v>
   <v>       0.00000000      -0.10714286       0.12500000 </v>
   <v>       0.03571429      -0.10714286       0.12500000 </v>
   <v>       0.07142857      -0.10714286       0.12500000 </v>
   <v>       0.00000000      -0.07142857       0.12500000 </v>
   <v>       0.03571429      -0.07142857       0.12500000 </v>
   <v>       0.00000000      -0.03571429       0.12500000 </v>
   <v>       0.00000000       0.00000000       0.25000000 </v>
   <v>       0.03571429       0.00000000       0.25000000 </v>
   <v>       0.07142857       0.00000000       0.25000000 </v>
   <v>       0.10714286       0.00000000       0.25000000 </v>
   <v>       0.14285714       0.00000000       0.25000000 </v>
   <v>       0.17857143       0.00000000       0.25000000 </v>
   <v>       0.21428571       0.00000000       0.25000000 </v>
   <v>       0.25000000       0.00000000       0.25000000 </v>
   <v>       0.28571429       0.00000000       0.25000000 </v>
   <v>       0.32142857       0.00000000       0.25000000 </v>
   <v>       0.35714286       0.00000000       0.25000000 </v>
   <v>       0.39285714       0.00000000       0.25000000 </v>
   <v>       0.42857143       0.00000000       0.25000000 </v>
   <v>       0.46428571       0.00000000       0.25000000 </v>
   <v>       0.50000000       0.00000000       0.25000000 </v>
   <v>      -0.46428571       0.00000000       0.25000000 </v>
   <v>      -0.42857143       0.00000000       0.25000000 </v>
   <v>      -0.39285714       0.00000000       0.25000000 </v>
   <v>      -0.35714286       0.00000000       0.25000000 </v>
   <v>      -0.32142857       0.00000000       0.25000000 </v>
   <v>      -0.28571429       0.00000000       0.25000000 </v>
   <v>      -0.21428571       0.00000000       0.25000000 </v>
   <v>      -0.17857143       0.00000000       0.25000000 </v>
   <v>      -0.14285714       0.00000000       0.25000000 </v>
   <v>      -0.10714286       0.00000000       0.25000000 </v>
   <v>      -0.07142857       0.00000000       0.25000000 </v>
   <v>      -0.03571429       0.00000000       0.25000000 </v>
   <v>       0.00000000       0.03571429       0.25000000 </v>
   <v>       0.03571429       0.03571429       0.25000000 </v>
   <v>       0.07142857       0.03571429       0.25000000 </v>
   <v>       0.10714286       0.03571429       0.25000000 </v>
   <v>       0.14285714       0.03571429       0.25000000 </v>
   <v>       0.17857143       0.03571429       0.25000000 </v>
   <v>       0.21428571       0.03571429       0.25000000 </v>
   <v>       0.25000000       0.03571429       0.25000000 </v>
   <v>       0.28571429       0.03571429       0.25000000 </v>
   <v>       0.32142857       0.03571429       0.25000000 </v>
   <v>       0.35714286       0.03571429       0.25000000 </v>
   <v>       0.39285714       0.03571429       0.25000000 </v>
   <v>       0.42857143       0.03571429       0.25000000 </v>
   <v>       0.46428571       0.03571429       0.25000000 </v>
   <v>       0.50000000       0.03571429       0.25000000 </v>
   <v>      -0.46428571       0.03571429       0.25000000 </v>
   <v>      -0.42857143       0.03571429       0.25000000 </v>
   <v>      -0.39285714       0.03571429       0.25000000 </v>
   <v>      -0.35714286       0.03571429       0.25000000 </v>
   <v>      -0.32142857       0.03571429       0.25000000 </v>
   <v>      -0.25000000       0.03571429       0.25000000 </v>
   <v>      -0.21428571       0.03571429       0.25000000 </v>
   <v>      -0.17857143       0.03571429       0.25000000 </v>
   <v>      -0.14285714       0.03571429       0.25000000 </v>
   <v>      -0.10714286       0.03571429       0.25000000 </v>
   <v>      -0.07142857       0.03571429       0.25000000 </v>
   <v>       0.00000000       0.07142857       0.25000000 </v>
   <v>       0.03571429       0.07142857       0.25000000 </v>
   <v>       0.07142857       0.07142857       0.25000000 </v>
   <v>       0.10714286       0.07142857       0.25000000 </v>
   <v>       0.14285714       0.07142857       0.25000000 </v>
   <v>       0.17857143       0.07142857       0.25000000 </v>
   <v>       0.21428571       0.07142857       0.25000000 </v>
   <v>       0.25000000       0.07142857       0.25000000 </v>
   <v>       0.28571429       0.07142857       0.25000000 </v>
   <v>       0.32142857       0.07142857       0.25000000 </v>
   <v>       0.35714286       0.07142857       0.25000000 </v>
   <v>       0.39285714       0.07142857       0.25000000 </v>
   <v>       0.42857143       0.07142857       0.25000000 </v>
   <v>       0.46428571       0.07142857       0.25000000 </v>
   <v>       0.50000000       0.07142857       0.25000000 </v>
   <v>      -0.46428571       0.07142857       0.25000000 </v>
   <v>      -0.42857143       0.07142857       0.25000000 </v>
   <v>      -0.39285714       0.07142857       0.25000000 </v>
   <v>      -0.35714286       0.07142857       0.25000000 </v>
   <v>      -0.28571429       0.07142857       0.25000000 </v>
   <v>      -0.25000000       0.07142857       0.25000000 </v>
   <v>      -0.21428571       0.07142857       0.25000000 </v>
   <v>      -0.17857143       0.07142857       0.25000000 </v>
   <v>      -0.14285714       0.07142857       0.25000000 </v>
   <v>      -0.10714286       0.07142857       0.25000000 </v>
   <v>       0.00000000       0.10714286       0.25000000 </v>
   <v>       0.03571429       0.10714286       0.25000000 </v>
   <v>       0.07142857       0.10714286       0.25000000 </v>
   <v>       0.10714286       0.10714286       0.25000000 </v>
   <v>       0.14285714       0.10714286       0.25000000 </v>
   <v>       0.17857143       0.10714286       0.25000000 </v>
   <v>       0.21428571       0.10714286       0.25000000 </v>
   <v>       0.25000000       0.10714286       0.25000000 </v>
   <v>       0.28571429       0.10714286       0.25000000 </v>
   <v>       0.32142857       0.10714286       0.25000000 </v>
   <v>       0.35714286       0.10714286       0.25000000 </v>
   <v>       0.39285714       0.10714286       0.25000000 </v>
   <v>       0.42857143       0.10714286       0.25000000 </v>
   <v>       0.46428571       0.10714286       0.25000000 </v>
   <v>       0.50000000       0.10714286       0.25000000 </v>
   <v>      -0.46428571       0.10714286       0.25000000 </v>
   <v>      -0.42857143       0.10714286       0.25000000 </v>
   <v>      -0.39285714       0.10714286       0.25000000 </v>
   <v>      -0.32142857       0.10714286       0.25000000 </v>
   <v>      -0.28571429       0.10714286       0.25000000 </v>
   <v>      -0.25000000       0.10714286       0.25000000 </v>
   <v>      -0.21428571       0.10714286       0.25000000 </v>
   <v>      -0.17857143       0.10714286       0.25000000 </v>
   <v>      -0.14285714       0.10714286       0.25000000 </v>
   <v>       0.00000000       0.14285714       0.25000000 </v>
   <v>       0.03571429       0.14285714       0.25000000 </v>
   <v>       0.07142857       0.14285714       0.25000000 </v>
   <v>       0.10714286       0.14285714       0.25000000 </v>
   <v>       0.14285714       0.14285714       0.25000000 </v>
   <v>       0.17857143       0.14285714       0.25000000 </v>
   <v>       0.21428571       0.14285714       0.25000000 </v>
   <v>       0.25000000       0.14285714       0.25000000 </v>
   <v>       0.28571429       0.14285714       0.25000000 </v>
   <v>       0.32142857       0.14285714       0.25000000 </v>
   <v>       0.35714286       0.14285714       0.25000000 </v>
   <v>       0.39285714       0.14285714       0.25000000 </v>
   <v>       0.42857143       0.14285714       0.25000000 </v>
   <v>       0.46428571       0.14285714       0.25000000 </v>
   <v>       0.50000000       0.14285714       0.25000000 </v>
   <v>      -0.46428571       0.14285714       0.25000000 </v>
   <v>      -0.42857143       0.14285714       0.25000000 </v>
   <v>      -0.35714286       0.14285714       0.25000000 </v>
   <v>      -0.32142857       0.14285714       0.25000000 </v>
   <v>      -0.28571429       0.14285714       0.25000000 </v>
   <v>      -0.25000000       0.14285714       0.25000000 </v>
   <v>      -0.21428571       0.14285714       0.25000000 </v>
   <v>      -0.17857143       0.14285714       0.25000000 </v>
   <v>       0.00000000       0.17857143       0.25000000 </v>
   <v>       0.03571429       0.17857143       0.25000000 </v>
   <v>       0.07142857       0.17857143       0.25000000 </v>
   <v>       0.10714286       0.17857143       0.25000000 </v>
   <v>       0.14285714       0.17857143       0.25000000 </v>
   <v>       0.17857143       0.17857143       0.25000000 </v>
   <v>       0.21428571       0.17857143       0.25000000 </v>
   <v>       0.25000000       0.17857143       0.25000000 </v>
   <v>       0.28571429       0.17857143       0.25000000 </v>
   <v>       0.32142857       0.17857143       0.25000000 </v>
   <v>       0.35714286       0.17857143       0.25000000 </v>
   <v>       0.39285714       0.17857143       0.25000000 </v>
   <v>       0.42857143       0.17857143       0.25000000 </v>
   <v>       0.46428571       0.17857143       0.25000000 </v>
   <v>       0.50000000       0.17857143       0.25000000 </v>
   <v>      -0.46428571       0.17857143       0.25000000 </v>
   <v>      -0.39285714       0.17857143       0.25000000 </v>
   <v>      -0.35714286       0.17857143       0.25000000 </v>
   <v>      -0.32142857       0.17857143       0.25000000 </v>
   <v>      -0.28571429       0.17857143       0.25000000 </v>
   <v>      -0.25000000       0.17857143       0.25000000 </v>
   <v>      -0.21428571       0.17857143       0.25000000 </v>
   <v>       0.00000000       0.21428571       0.25000000 </v>
   <v>       0.03571429       0.21428571       0.25000000 </v>
   <v>       0.07142857       0.21428571       0.25000000 </v>
   <v>       0.10714286       0.21428571       0.25000000 </v>
   <v>       0.14285714       0.21428571       0.25000000 </v>
   <v>       0.17857143       0.21428571       0.25000000 </v>
   <v>       0.21428571       0.21428571       0.25000000 </v>
   <v>       0.25000000       0.21428571       0.25000000 </v>
   <v>       0.28571429       0.21428571       0.25000000 </v>
   <v>       0.32142857       0.21428571       0.25000000 </v>
   <v>       0.35714286       0.21428571       0.25000000 </v>
   <v>       0.39285714       0.21428571       0.25000000 </v>
   <v>       0.42857143       0.21428571       0.25000000 </v>
   <v>       0.46428571       0.21428571       0.25000000 </v>
   <v>       0.50000000       0.21428571       0.25000000 </v>
   <v>      -0.42857143       0.21428571       0.25000000 </v>
   <v>      -0.39285714       0.21428571       0.25000000 </v>
   <v>      -0.35714286       0.21428571       0.25000000 </v>
   <v>      -0.32142857       0.21428571       0.25000000 </v>
   <v>      -0.28571429       0.21428571       0.25000000 </v>
   <v>      -0.25000000       0.21428571       0.25000000 </v>
   <v>       0.00000000       0.25000000       0.25000000 </v>
   <v>       0.03571429       0.25000000       0.25000000 </v>
   <v>       0.07142857       0.25000000       0.25000000 </v>
   <v>       0.10714286       0.25000000       0.25000000 </v>
   <v>       0.14285714       0.25000000       0.25000000 </v>
   <v>       0.17857143       0.25000000       0.25000000 </v>
   <v>       0.21428571       0.25000000       0.25000000 </v>
   <v>       0.25000000       0.25000000       0.25000000 </v>
   <v>       0.28571429       0.25000000       0.25000000 </v>
   <v>       0.32142857       0.25000000       0.25000000 </v>
   <v>       0.35714286       0.25000000       0.25000000 </v>
   <v>       0.39285714       0.25000000       0.25000000 </v>
   <v>       0.42857143       0.25000000       0.25000000 </v>
   <v>       0.46428571       0.25000000       0.25000000 </v>
   <v>      -0.46428571       0.25000000       0.25000000 </v>
   <v>      -0.42857143       0.25000000       0.25000000 </v>
   <v>      -0.39285714       0.25000000       0.25000000 </v>
   <v>      -0.35714286       0.25000000       0.25000000 </v>
   <v>      -0.32142857       0.25000000       0.25000000 </v>
   <v>      -0.28571429       0.25000000       0.25000000 </v>
   <v>       0.00000000       0.28571429       0.25000000 </v>
   <v>       0.03571429       0.28571429       0.25000000 </v>
   <v>       0.07142857       0.28571429       0.25000000 </v>
   <v>       0.10714286       0.28571429       0.25000000 </v>
   <v>       0.14285714       0.28571429       0.25000000 </v>
   <v>       0.17857143       0.28571429       0.25000000 </v>
   <v>       0.25000000       0.28571429       0.25000000 </v>
   <v>       0.28571429       0.28571429       0.25000000 </v>
   <v>       0.32142857       0.28571429       0.25000000 </v>
   <v>       0.35714286       0.28571429       0.25000000 </v>
   <v>       0.39285714       0.28571429       0.25000000 </v>
   <v>       0.42857143       0.28571429       0.25000000 </v>
   <v>       0.50000000       0.28571429       0.25000000 </v>
   <v>      -0.46428571       0.28571429       0.25000000 </v>
   <v>      -0.42857143       0.28571429       0.25000000 </v>
   <v>      -0.39285714       0.28571429       0.25000000 </v>
   <v>      -0.35714286       0.28571429       0.25000000 </v>
   <v>      -0.32142857       0.28571429       0.25000000 </v>
   <v>       0.00000000       0.32142857       0.25000000 </v>
   <v>       0.03571429       0.32142857       0.25000000 </v>
   <v>       0.07142857       0.32142857       0.25000000 </v>
   <v>       0.10714286       0.32142857       0.25000000 </v>
   <v>       0.14285714       0.32142857       0.25000000 </v>
   <v>       0.21428571       0.32142857       0.25000000 </v>
   <v>       0.25000000       0.32142857       0.25000000 </v>
   <v>       0.28571429       0.32142857       0.25000000 </v>
   <v>       0.32142857       0.32142857       0.25000000 </v>
   <v>       0.35714286       0.32142857       0.25000000 </v>
   <v>       0.39285714       0.32142857       0.25000000 </v>
   <v>       0.46428571       0.32142857       0.25000000 </v>
   <v>       0.50000000       0.32142857       0.25000000 </v>
   <v>      -0.46428571       0.32142857       0.25000000 </v>
   <v>      -0.42857143       0.32142857       0.25000000 </v>
   <v>      -0.39285714       0.32142857       0.25000000 </v>
   <v>      -0.35714286       0.32142857       0.25000000 </v>
   <v>       0.00000000       0.35714286       0.25000000 </v>
   <v>       0.03571429       0.35714286       0.25000000 </v>
   <v>       0.07142857       0.35714286       0.25000000 </v>
   <v>       0.10714286       0.35714286       0.25000000 </v>
   <v>       0.17857143       0.35714286       0.25000000 </v>
   <v>       0.21428571       0.35714286       0.25000000 </v>
   <v>       0.25000000       0.35714286       0.25000000 </v>
   <v>       0.28571429       0.35714286       0.25000000 </v>
   <v>       0.32142857       0.35714286       0.25000000 </v>
   <v>       0.35714286       0.35714286       0.25000000 </v>
   <v>       0.42857143       0.35714286       0.25000000 </v>
   <v>       0.46428571       0.35714286       0.25000000 </v>
   <v>       0.50000000       0.35714286       0.25000000 </v>
   <v>      -0.46428571       0.35714286       0.25000000 </v>
   <v>      -0.42857143       0.35714286       0.25000000 </v>
   <v>      -0.39285714       0.35714286       0.25000000 </v>
   <v>       0.00000000       0.39285714       0.25000000 </v>
   <v>       0.03571429       0.39285714       0.25000000 </v>
   <v>       0.07142857       0.39285714       0.25000000 </v>
   <v>       0.14285714       0.39285714       0.25000000 </v>
   <v>       0.17857143       0.39285714       0.25000000 </v>
   <v>       0.21428571       0.39285714       0.25000000 </v>
   <v>       0.25000000       0.39285714       0.25000000 </v>
   <v>       0.28571429       0.39285714       0.25000000 </v>
   <v>       0.32142857       0.39285714       0.25000000 </v>
   <v>       0.39285714       0.39285714       0.25000000 </v>
   <v>       0.42857143       0.39285714       0.25000000 </v>
   <v>       0.46428571       0.39285714       0.25000000 </v>
   <v>       0.50000000       0.39285714       0.25000000 </v>
   <v>      -0.46428571       0.39285714       0.25000000 </v>
   <v>      -0.42857143       0.39285714       0.25000000 </v>
   <v>       0.00000000       0.42857143       0.25000000 </v>
   <v>       0.03571429       0.42857143       0.25000000 </v>
   <v>       0.10714286       0.42857143       0.25000000 </v>
   <v>       0.14285714       0.42857143       0.25000000 </v>
   <v>       0.17857143       0.42857143       0.25000000 </v>
   <v>       0.21428571       0.42857143       0.25000000 </v>
   <v>       0.25000000       0.42857143       0.25000000 </v>
   <v>       0.28571429       0.42857143       0.25000000 </v>
   <v>       0.35714286       0.42857143       0.25000000 </v>
   <v>       0.39285714       0.42857143       0.25000000 </v>
   <v>       0.42857143       0.42857143       0.25000000 </v>
   <v>       0.46428571       0.42857143       0.25000000 </v>
   <v>       0.50000000       0.42857143       0.25000000 </v>
   <v>      -0.46428571       0.42857143       0.25000000 </v>
   <v>       0.00000000       0.46428571       0.25000000 </v>
   <v>       0.07142857       0.46428571       0.25000000 </v>
   <v>       0.10714286       0.46428571       0.25000000 </v>
   <v>       0.14285714       0.46428571       0.25000000 </v>
   <v>       0.17857143       0.46428571       0.25000000 </v>
   <v>       0.21428571       0.46428571       0.25000000 </v>
   <v>       0.25000000       0.46428571       0.25000000 </v>
   <v>       0.32142857       0.46428571       0.25000000 </v>
   <v>       0.35714286       0.46428571       0.25000000 </v>
   <v>       0.39285714       0.46428571       0.25000000 </v>
   <v>       0.42857143       0.46428571       0.25000000 </v>
   <v>       0.46428571       0.46428571       0.25000000 </v>
   <v>       0.50000000       0.46428571       0.25000000 </v>
   <v>       0.03571429       0.50000000       0.25000000 </v>
   <v>       0.07142857       0.50000000       0.25000000 </v>
   <v>       0.10714286       0.50000000       0.25000000 </v>
   <v>       0.14285714       0.50000000       0.25000000 </v>
   <v>       0.17857143       0.50000000       0.25000000 </v>
   <v>       0.21428571       0.50000000       0.25000000 </v>
   <v>       0.00000000      -0.46428571       0.25000000 </v>
   <v>       0.03571429      -0.46428571       0.25000000 </v>
   <v>       0.07142857      -0.46428571       0.25000000 </v>
   <v>       0.10714286      -0.46428571       0.25000000 </v>
   <v>       0.14285714      -0.46428571       0.25000000 </v>
   <v>       0.17857143      -0.46428571       0.25000000 </v>
   <v>       0.25000000      -0.46428571       0.25000000 </v>
   <v>       0.28571429      -0.46428571       0.25000000 </v>
   <v>       0.32142857      -0.46428571       0.25000000 </v>
   <v>       0.35714286      -0.46428571       0.25000000 </v>
   <v>       0.39285714      -0.46428571       0.25000000 </v>
   <v>       0.42857143      -0.46428571       0.25000000 </v>
   <v>       0.00000000      -0.42857143       0.25000000 </v>
   <v>       0.03571429      -0.42857143       0.25000000 </v>
   <v>       0.07142857      -0.42857143       0.25000000 </v>
   <v>       0.10714286      -0.42857143       0.25000000 </v>
   <v>       0.14285714      -0.42857143       0.25000000 </v>
   <v>       0.21428571      -0.42857143       0.25000000 </v>
   <v>       0.25000000      -0.42857143       0.25000000 </v>
   <v>       0.28571429      -0.42857143       0.25000000 </v>
   <v>       0.32142857      -0.42857143       0.25000000 </v>
   <v>       0.35714286      -0.42857143       0.25000000 </v>
   <v>       0.39285714      -0.42857143       0.25000000 </v>
   <v>       0.00000000      -0.39285714       0.25000000 </v>
   <v>       0.03571429      -0.39285714       0.25000000 </v>
   <v>       0.07142857      -0.39285714       0.25000000 </v>
   <v>       0.10714286      -0.39285714       0.25000000 </v>
   <v>       0.17857143      -0.39285714       0.25000000 </v>
   <v>       0.21428571      -0.39285714       0.25000000 </v>
   <v>       0.25000000      -0.39285714       0.25000000 </v>
   <v>       0.28571429      -0.39285714       0.25000000 </v>
   <v>       0.32142857      -0.39285714       0.25000000 </v>
   <v>       0.35714286      -0.39285714       0.25000000 </v>
   <v>       0.00000000      -0.35714286       0.25000000 </v>
   <v>       0.03571429      -0.35714286       0.25000000 </v>
   <v>       0.07142857      -0.35714286       0.25000000 </v>
   <v>       0.14285714      -0.35714286       0.25000000 </v>
   <v>       0.17857143      -0.35714286       0.25000000 </v>
   <v>       0.21428571      -0.35714286       0.25000000 </v>
   <v>       0.25000000      -0.35714286       0.25000000 </v>
   <v>       0.28571429      -0.35714286       0.25000000 </v>
   <v>       0.32142857      -0.35714286       0.25000000 </v>
   <v>       0.00000000      -0.32142857       0.25000000 </v>
   <v>       0.03571429      -0.32142857       0.25000000 </v>
   <v>       0.10714286      -0.32142857       0.25000000 </v>
   <v>       0.14285714      -0.32142857       0.25000000 </v>
   <v>       0.17857143      -0.32142857       0.25000000 </v>
   <v>       0.21428571      -0.32142857       0.25000000 </v>
   <v>       0.25000000      -0.32142857       0.25000000 </v>
   <v>       0.28571429      -0.32142857       0.25000000 </v>
   <v>       0.00000000      -0.28571429       0.25000000 </v>
   <v>       0.07142857      -0.28571429       0.25000000 </v>
   <v>       0.10714286      -0.28571429       0.25000000 </v>
   <v>       0.14285714      -0.28571429       0.25000000 </v>
   <v>       0.17857143      -0.28571429       0.25000000 </v>
   <v>       0.21428571      -0.28571429       0.25000000 </v>
   <v>       0.25000000      -0.28571429       0.25000000 </v>
   <v>       0.00000000      -0.21428571       0.25000000 </v>
   <v>       0.03571429      -0.21428571       0.25000000 </v>
   <v>       0.07142857      -0.21428571       0.25000000 </v>
   <v>       0.10714286      -0.21428571       0.25000000 </v>
   <v>       0.14285714      -0.21428571       0.25000000 </v>
   <v>       0.17857143      -0.21428571       0.25000000 </v>
   <v>       0.00000000      -0.17857143       0.25000000 </v>
   <v>       0.03571429      -0.17857143       0.25000000 </v>
   <v>       0.07142857      -0.17857143       0.25000000 </v>
   <v>       0.10714286      -0.17857143       0.25000000 </v>
   <v>       0.14285714      -0.17857143       0.25000000 </v>
   <v>       0.00000000      -0.14285714       0.25000000 </v>
   <v>       0.03571429      -0.14285714       0.25000000 </v>
   <v>       0.07142857      -0.14285714       0.25000000 </v>
   <v>       0.10714286      -0.14285714       0.25000000 </v>
   <v>       0.00000000      -0.10714286       0.25000000 </v>
   <v>       0.03571429      -0.10714286       0.25000000 </v>
   <v>       0.07142857      -0.10714286       0.25000000 </v>
   <v>       0.00000000      -0.07142857       0.25000000 </v>
   <v>       0.03571429      -0.07142857       0.25000000 </v>
   <v>       0.00000000      -0.03571429       0.25000000 </v>
   <v>       0.00000000       0.00000000       0.37500000 </v>
   <v>       0.03571429       0.00000000       0.37500000 </v>
   <v>       0.07142857       0.00000000       0.37500000 </v>
   <v>       0.10714286       0.00000000       0.37500000 </v>
   <v>       0.14285714       0.00000000       0.37500000 </v>
   <v>       0.17857143       0.00000000       0.37500000 </v>
   <v>       0.21428571       0.00000000       0.37500000 </v>
   <v>       0.25000000       0.00000000       0.37500000 </v>
   <v>       0.28571429       0.00000000       0.37500000 </v>
   <v>       0.32142857       0.00000000       0.37500000 </v>
   <v>       0.35714286       0.00000000       0.37500000 </v>
   <v>       0.39285714       0.00000000       0.37500000 </v>
   <v>       0.42857143       0.00000000       0.37500000 </v>
   <v>       0.46428571       0.00000000       0.37500000 </v>
   <v>      -0.46428571       0.00000000       0.37500000 </v>
   <v>      -0.42857143       0.00000000       0.37500000 </v>
   <v>      -0.39285714       0.00000000       0.37500000 </v>
   <v>      -0.35714286       0.00000000       0.37500000 </v>
   <v>      -0.32142857       0.00000000       0.37500000 </v>
   <v>      -0.28571429       0.00000000       0.37500000 </v>
   <v>      -0.21428571       0.00000000       0.37500000 </v>
   <v>      -0.17857143       0.00000000       0.37500000 </v>
   <v>      -0.14285714       0.00000000       0.37500000 </v>
   <v>      -0.10714286       0.00000000       0.37500000 </v>
   <v>      -0.07142857       0.00000000       0.37500000 </v>
   <v>      -0.03571429       0.00000000       0.37500000 </v>
   <v>       0.00000000       0.03571429       0.37500000 </v>
   <v>       0.03571429       0.03571429       0.37500000 </v>
   <v>       0.07142857       0.03571429       0.37500000 </v>
   <v>       0.10714286       0.03571429       0.37500000 </v>
   <v>       0.14285714       0.03571429       0.37500000 </v>
   <v>       0.17857143       0.03571429       0.37500000 </v>
   <v>       0.21428571       0.03571429       0.37500000 </v>
   <v>       0.25000000       0.03571429       0.37500000 </v>
   <v>       0.28571429       0.03571429       0.37500000 </v>
   <v>       0.32142857       0.03571429       0.37500000 </v>
   <v>       0.35714286       0.03571429       0.37500000 </v>
   <v>       0.39285714       0.03571429       0.37500000 </v>
   <v>       0.42857143       0.03571429       0.37500000 </v>
   <v>       0.50000000       0.03571429       0.37500000 </v>
   <v>      -0.46428571       0.03571429       0.37500000 </v>
   <v>      -0.42857143       0.03571429       0.37500000 </v>
   <v>      -0.39285714       0.03571429       0.37500000 </v>
   <v>      -0.35714286       0.03571429       0.37500000 </v>
   <v>      -0.32142857       0.03571429       0.37500000 </v>
   <v>      -0.25000000       0.03571429       0.37500000 </v>
   <v>      -0.21428571       0.03571429       0.37500000 </v>
   <v>      -0.17857143       0.03571429       0.37500000 </v>
   <v>      -0.14285714       0.03571429       0.37500000 </v>
   <v>      -0.10714286       0.03571429       0.37500000 </v>
   <v>      -0.07142857       0.03571429       0.37500000 </v>
   <v>       0.00000000       0.07142857       0.37500000 </v>
   <v>       0.03571429       0.07142857       0.37500000 </v>
   <v>       0.07142857       0.07142857       0.37500000 </v>
   <v>       0.10714286       0.07142857       0.37500000 </v>
   <v>       0.14285714       0.07142857       0.37500000 </v>
   <v>       0.17857143       0.07142857       0.37500000 </v>
   <v>       0.21428571       0.07142857       0.37500000 </v>
   <v>       0.25000000       0.07142857       0.37500000 </v>
   <v>       0.28571429       0.07142857       0.37500000 </v>
   <v>       0.32142857       0.07142857       0.37500000 </v>
   <v>       0.35714286       0.07142857       0.37500000 </v>
   <v>       0.39285714       0.07142857       0.37500000 </v>
   <v>       0.46428571       0.07142857       0.37500000 </v>
   <v>       0.50000000       0.07142857       0.37500000 </v>
   <v>      -0.46428571       0.07142857       0.37500000 </v>
   <v>      -0.42857143       0.07142857       0.37500000 </v>
   <v>      -0.39285714       0.07142857       0.37500000 </v>
   <v>      -0.35714286       0.07142857       0.37500000 </v>
   <v>      -0.28571429       0.07142857       0.37500000 </v>
   <v>      -0.25000000       0.07142857       0.37500000 </v>
   <v>      -0.21428571       0.07142857       0.37500000 </v>
   <v>      -0.17857143       0.07142857       0.37500000 </v>
   <v>      -0.14285714       0.07142857       0.37500000 </v>
   <v>      -0.10714286       0.07142857       0.37500000 </v>
   <v>       0.00000000       0.10714286       0.37500000 </v>
   <v>       0.03571429       0.10714286       0.37500000 </v>
   <v>       0.07142857       0.10714286       0.37500000 </v>
   <v>       0.10714286       0.10714286       0.37500000 </v>
   <v>       0.14285714       0.10714286       0.37500000 </v>
   <v>       0.17857143       0.10714286       0.37500000 </v>
   <v>       0.21428571       0.10714286       0.37500000 </v>
   <v>       0.25000000       0.10714286       0.37500000 </v>
   <v>       0.28571429       0.10714286       0.37500000 </v>
   <v>       0.32142857       0.10714286       0.37500000 </v>
   <v>       0.35714286       0.10714286       0.37500000 </v>
   <v>       0.42857143       0.10714286       0.37500000 </v>
   <v>       0.46428571       0.10714286       0.37500000 </v>
   <v>       0.50000000       0.10714286       0.37500000 </v>
   <v>      -0.46428571       0.10714286       0.37500000 </v>
   <v>      -0.42857143       0.10714286       0.37500000 </v>
   <v>      -0.39285714       0.10714286       0.37500000 </v>
   <v>      -0.32142857       0.10714286       0.37500000 </v>
   <v>      -0.28571429       0.10714286       0.37500000 </v>
   <v>      -0.25000000       0.10714286       0.37500000 </v>
   <v>      -0.21428571       0.10714286       0.37500000 </v>
   <v>      -0.17857143       0.10714286       0.37500000 </v>
   <v>      -0.14285714       0.10714286       0.37500000 </v>
   <v>       0.00000000       0.14285714       0.37500000 </v>
   <v>       0.03571429       0.14285714       0.37500000 </v>
   <v>       0.07142857       0.14285714       0.37500000 </v>
   <v>       0.14285714       0.14285714       0.37500000 </v>
   <v>       0.17857143       0.14285714       0.37500000 </v>
   <v>       0.21428571       0.14285714       0.37500000 </v>
   <v>       0.25000000       0.14285714       0.37500000 </v>
   <v>       0.28571429       0.14285714       0.37500000 </v>
   <v>       0.32142857       0.14285714       0.37500000 </v>
   <v>       0.39285714       0.14285714       0.37500000 </v>
   <v>       0.42857143       0.14285714       0.37500000 </v>
   <v>       0.46428571       0.14285714       0.37500000 </v>
   <v>       0.50000000       0.14285714       0.37500000 </v>
   <v>      -0.46428571       0.14285714       0.37500000 </v>
   <v>      -0.42857143       0.14285714       0.37500000 </v>
   <v>      -0.35714286       0.14285714       0.37500000 </v>
   <v>      -0.32142857       0.14285714       0.37500000 </v>
   <v>      -0.28571429       0.14285714       0.37500000 </v>
   <v>      -0.25000000       0.14285714       0.37500000 </v>
   <v>      -0.21428571       0.14285714       0.37500000 </v>
   <v>      -0.17857143       0.14285714       0.37500000 </v>
   <v>       0.00000000       0.17857143       0.37500000 </v>
   <v>       0.03571429       0.17857143       0.37500000 </v>
   <v>       0.10714286       0.17857143       0.37500000 </v>
   <v>       0.14285714       0.17857143       0.37500000 </v>
   <v>       0.17857143       0.17857143       0.37500000 </v>
   <v>       0.21428571       0.17857143       0.37500000 </v>
   <v>       0.25000000       0.17857143       0.37500000 </v>
   <v>       0.28571429       0.17857143       0.37500000 </v>
   <v>       0.35714286       0.17857143       0.37500000 </v>
   <v>       0.39285714       0.17857143       0.37500000 </v>
   <v>       0.42857143       0.17857143       0.37500000 </v>
   <v>       0.46428571       0.17857143       0.37500000 </v>
   <v>       0.50000000       0.17857143       0.37500000 </v>
   <v>      -0.46428571       0.17857143       0.37500000 </v>
   <v>      -0.39285714       0.17857143       0.37500000 </v>
   <v>      -0.35714286       0.17857143       0.37500000 </v>
   <v>      -0.32142857       0.17857143       0.37500000 </v>
   <v>      -0.28571429       0.17857143       0.37500000 </v>
   <v>      -0.25000000       0.17857143       0.37500000 </v>
   <v>      -0.21428571       0.17857143       0.37500000 </v>
   <v>       0.00000000       0.21428571       0.37500000 </v>
   <v>       0.07142857       0.21428571       0.37500000 </v>
   <v>       0.10714286       0.21428571       0.37500000 </v>
   <v>       0.14285714       0.21428571       0.37500000 </v>
   <v>       0.17857143       0.21428571       0.37500000 </v>
   <v>       0.21428571       0.21428571       0.37500000 </v>
   <v>       0.25000000       0.21428571       0.37500000 </v>
   <v>       0.32142857       0.21428571       0.37500000 </v>
   <v>       0.35714286       0.21428571       0.37500000 </v>
   <v>       0.39285714       0.21428571       0.37500000 </v>
   <v>       0.42857143       0.21428571       0.37500000 </v>
   <v>       0.46428571       0.21428571       0.37500000 </v>
   <v>       0.50000000       0.21428571       0.37500000 </v>
   <v>      -0.42857143       0.21428571       0.37500000 </v>
   <v>      -0.39285714       0.21428571       0.37500000 </v>
   <v>      -0.35714286       0.21428571       0.37500000 </v>
   <v>      -0.32142857       0.21428571       0.37500000 </v>
   <v>      -0.28571429       0.21428571       0.37500000 </v>
   <v>      -0.25000000       0.21428571       0.37500000 </v>
   <v>       0.03571429       0.25000000       0.37500000 </v>
   <v>       0.07142857       0.25000000       0.37500000 </v>
   <v>       0.10714286       0.25000000       0.37500000 </v>
   <v>       0.14285714       0.25000000       0.37500000 </v>
   <v>       0.17857143       0.25000000       0.37500000 </v>
   <v>       0.21428571       0.25000000       0.37500000 </v>
   <v>       0.28571429       0.25000000       0.37500000 </v>
   <v>       0.32142857       0.25000000       0.37500000 </v>
   <v>       0.35714286       0.25000000       0.37500000 </v>
   <v>       0.00000000       0.28571429       0.37500000 </v>
   <v>       0.03571429       0.28571429       0.37500000 </v>
   <v>       0.07142857       0.28571429       0.37500000 </v>
   <v>       0.10714286       0.28571429       0.37500000 </v>
   <v>       0.14285714       0.28571429       0.37500000 </v>
   <v>       0.17857143       0.28571429       0.37500000 </v>
   <v>       0.25000000       0.28571429       0.37500000 </v>
   <v>       0.28571429       0.28571429       0.37500000 </v>
   <v>       0.32142857       0.28571429       0.37500000 </v>
   <v>       0.35714286       0.28571429       0.37500000 </v>
   <v>       0.39285714       0.28571429       0.37500000 </v>
   <v>       0.42857143       0.28571429       0.37500000 </v>
   <v>       0.50000000       0.28571429       0.37500000 </v>
   <v>      -0.46428571       0.28571429       0.37500000 </v>
   <v>      -0.42857143       0.28571429       0.37500000 </v>
   <v>      -0.39285714       0.28571429       0.37500000 </v>
   <v>      -0.35714286       0.28571429       0.37500000 </v>
   <v>      -0.32142857       0.28571429       0.37500000 </v>
   <v>       0.00000000       0.32142857       0.37500000 </v>
   <v>       0.03571429       0.32142857       0.37500000 </v>
   <v>       0.07142857       0.32142857       0.37500000 </v>
   <v>       0.10714286       0.32142857       0.37500000 </v>
   <v>       0.14285714       0.32142857       0.37500000 </v>
   <v>       0.21428571       0.32142857       0.37500000 </v>
   <v>       0.25000000       0.32142857       0.37500000 </v>
   <v>       0.28571429       0.32142857       0.37500000 </v>
   <v>       0.32142857       0.32142857       0.37500000 </v>
   <v>       0.35714286       0.32142857       0.37500000 </v>
   <v>       0.39285714       0.32142857       0.37500000 </v>
   <v>       0.46428571       0.32142857       0.37500000 </v>
   <v>       0.50000000       0.32142857       0.37500000 </v>
   <v>      -0.46428571       0.32142857       0.37500000 </v>
   <v>      -0.42857143       0.32142857       0.37500000 </v>
   <v>      -0.39285714       0.32142857       0.37500000 </v>
   <v>      -0.35714286       0.32142857       0.37500000 </v>
   <v>       0.00000000       0.35714286       0.37500000 </v>
   <v>       0.03571429       0.35714286       0.37500000 </v>
   <v>       0.07142857       0.35714286       0.37500000 </v>
   <v>       0.10714286       0.35714286       0.37500000 </v>
   <v>       0.17857143       0.35714286       0.37500000 </v>
   <v>       0.21428571       0.35714286       0.37500000 </v>
   <v>       0.25000000       0.35714286       0.37500000 </v>
   <v>       0.28571429       0.35714286       0.37500000 </v>
   <v>       0.32142857       0.35714286       0.37500000 </v>
   <v>       0.35714286       0.35714286       0.37500000 </v>
   <v>       0.42857143       0.35714286       0.37500000 </v>
   <v>       0.46428571       0.35714286       0.37500000 </v>
   <v>       0.50000000       0.35714286       0.37500000 </v>
   <v>      -0.46428571       0.35714286       0.37500000 </v>
   <v>      -0.42857143       0.35714286       0.37500000 </v>
   <v>      -0.39285714       0.35714286       0.37500000 </v>
   <v>       0.00000000       0.39285714       0.37500000 </v>
   <v>       0.03571429       0.39285714       0.37500000 </v>
   <v>       0.07142857       0.39285714       0.37500000 </v>
   <v>       0.14285714       0.39285714       0.37500000 </v>
   <v>       0.17857143       0.39285714       0.37500000 </v>
   <v>       0.21428571       0.39285714       0.37500000 </v>
   <v>       0.25000000       0.39285714       0.37500000 </v>
   <v>       0.28571429       0.39285714       0.37500000 </v>
   <v>       0.32142857       0.39285714       0.37500000 </v>
   <v>       0.39285714       0.39285714       0.37500000 </v>
   <v>       0.42857143       0.39285714       0.37500000 </v>
   <v>       0.46428571       0.39285714       0.37500000 </v>
   <v>       0.50000000       0.39285714       0.37500000 </v>
   <v>      -0.46428571       0.39285714       0.37500000 </v>
   <v>      -0.42857143       0.39285714       0.37500000 </v>
   <v>       0.00000000       0.42857143       0.37500000 </v>
   <v>       0.03571429       0.42857143       0.37500000 </v>
   <v>       0.10714286       0.42857143       0.37500000 </v>
   <v>       0.14285714       0.42857143       0.37500000 </v>
   <v>       0.17857143       0.42857143       0.37500000 </v>
   <v>       0.21428571       0.42857143       0.37500000 </v>
   <v>       0.25000000       0.42857143       0.37500000 </v>
   <v>       0.28571429       0.42857143       0.37500000 </v>
   <v>       0.35714286       0.42857143       0.37500000 </v>
   <v>       0.39285714       0.42857143       0.37500000 </v>
   <v>       0.42857143       0.42857143       0.37500000 </v>
   <v>       0.46428571       0.42857143       0.37500000 </v>
   <v>       0.50000000       0.42857143       0.37500000 </v>
   <v>      -0.46428571       0.42857143       0.37500000 </v>
   <v>       0.00000000       0.46428571       0.37500000 </v>
   <v>       0.07142857       0.46428571       0.37500000 </v>
   <v>       0.10714286       0.46428571       0.37500000 </v>
   <v>       0.14285714       0.46428571       0.37500000 </v>
   <v>       0.17857143       0.46428571       0.37500000 </v>
   <v>       0.21428571       0.46428571       0.37500000 </v>
   <v>       0.25000000       0.46428571       0.37500000 </v>
   <v>       0.32142857       0.46428571       0.37500000 </v>
   <v>       0.35714286       0.46428571       0.37500000 </v>
   <v>       0.39285714       0.46428571       0.37500000 </v>
   <v>       0.42857143       0.46428571       0.37500000 </v>
   <v>       0.46428571       0.46428571       0.37500000 </v>
   <v>       0.50000000       0.46428571       0.37500000 </v>
   <v>       0.00000000      -0.46428571       0.37500000 </v>
   <v>       0.03571429      -0.46428571       0.37500000 </v>
   <v>       0.07142857      -0.46428571       0.37500000 </v>
   <v>       0.10714286      -0.46428571       0.37500000 </v>
   <v>       0.14285714      -0.46428571       0.37500000 </v>
   <v>       0.17857143      -0.46428571       0.37500000 </v>
   <v>       0.25000000      -0.46428571       0.37500000 </v>
   <v>       0.28571429      -0.46428571       0.37500000 </v>
   <v>       0.32142857      -0.46428571       0.37500000 </v>
   <v>       0.35714286      -0.46428571       0.37500000 </v>
   <v>       0.39285714      -0.46428571       0.37500000 </v>
   <v>       0.42857143      -0.46428571       0.37500000 </v>
   <v>       0.00000000      -0.42857143       0.37500000 </v>
   <v>       0.03571429      -0.42857143       0.37500000 </v>
[...]
       <r>    5.2860    1.0000 </r>
       <r>    5.3866    1.0000 </r>
       <r>    5.6518    1.0000 </r>
       <r>    5.9739    1.0000 </r>
       <r>    6.1014    1.0000 </r>
       <r>    6.4666    1.0000 </r>
       <r>    6.5648    1.0000 </r>
       <r>    6.6591    1.0000 </r>
       <r>    6.7561    1.0000 </r>
       <r>    8.5650    0.0090 </r>
       <r>    9.2995    0.0000 </r>
       <r>    9.4878    0.0000 </r>
       <r>   10.3703    0.0000 </r>
       <r>   11.5796    0.0000 </r>
       <r>   12.3588    0.0000 </r>
       <r>   14.8356    0.0000 </r>
       <r>   15.9112    0.0000 </r>
      </set>
      <set comment="kpoint 1473">
       <r>    2.0419    1.0000 </r>
       <r>    2.1542    1.0000 </r>
       <r>    2.2375    1.0000 </r>
       <r>    2.3604    1.0000 </r>
       <r>    2.6439    1.0000 </r>
       <r>    3.4629    1.0000 </r>
       <r>    3.5142    1.0000 </r>
       <r>    3.9983    1.0000 </r>
       <r>    4.3613    1.0000 </r>
       <r>    4.5288    1.0000 </r>
       <r>    4.9171    1.0000 </r>
       <r>    5.1844    1.0000 </r>
       <r>    5.2082    1.0000 </r>
       <r>    5.6343    1.0000 </r>
       <r>    5.8870    1.0000 </r>
       <r>    6.0054    1.0000 </r>
       <r>    6.4682    1.0000 </r>
       <r>    6.5338    1.0000 </r>
       <r>    6.7078    1.0000 </r>
       <r>    6.7311    1.0000 </r>
       <r>    9.1933   -0.0002 </r>
       <r>    9.2100   -0.0001 </r>
       <r>   10.1860    0.0000 </r>
       <r>   10.2638    0.0000 </r>
       <r>   12.0383    0.0000 </r>
       <r>   12.1207    0.0000 </r>
       <r>   14.8399    0.0000 </r>
       <r>   15.6270    0.0000 </r>
      </set>
      <set comment="kpoint 1474">
       <r>    1.6394    1.0000 </r>
       <r>    1.8112    1.0000 </r>
       <r>    1.8559    1.0000 </r>
       <r>    2.1612    1.0000 </r>
       <r>    2.5013    1.0000 </r>
       <r>    3.4144    1.0000 </r>
       <r>    3.6061    1.0000 </r>
       <r>    4.2024    1.0000 </r>
       <r>    4.5077    1.0000 </r>
       <r>    4.6846    1.0000 </r>
       <r>    5.4237    1.0000 </r>
       <r>    5.5118    1.0000 </r>
       <r>    5.7575    1.0000 </r>
       <r>    5.8390    1.0000 </r>
       <r>    6.2284    1.0000 </r>
       <r>    6.3109    1.0000 </r>
       <r>    6.3516    1.0000 </r>
       <r>    6.5042    1.0000 </r>
       <r>    6.6244    1.0000 </r>
       <r>    6.7532    1.0000 </r>
       <r>    7.7101    1.0069 </r>
       <r>    8.4066    0.2761 </r>
       <r>    9.3266    0.0000 </r>
       <r>   10.3103    0.0000 </r>
       <r>   11.2604    0.0000 </r>
       <r>   12.6277    0.0000 </r>
       <r>   14.5166    0.0000 </r>
       <r>   16.1858    0.0000 </r>
      </set>
      <set comment="kpoint 1475">
       <r>    1.7561    1.0000 </r>
       <r>    1.9099    1.0000 </r>
       <r>    1.9324    1.0000 </r>
       <r>    2.1940    1.0000 </r>
       <r>    2.5296    1.0000 </r>
       <r>    3.4271    1.0000 </r>
       <r>    3.5937    1.0000 </r>
       <r>    4.1420    1.0000 </r>
       <r>    4.4547    1.0000 </r>
       <r>    4.6656    1.0000 </r>
       <r>    5.3943    1.0000 </r>
       <r>    5.4308    1.0000 </r>
       <r>    5.5568    1.0000 </r>
       <r>    5.6847    1.0000 </r>
       <r>    6.1047    1.0000 </r>
       <r>    6.2266    1.0000 </r>
       <r>    6.4689    1.0000 </r>
       <r>    6.5870    1.0000 </r>
       <r>    6.6222    1.0000 </r>
       <r>    6.7495    1.0000 </r>
       <r>    8.6047   -0.0172 </r>
       <r>    8.8261   -0.0197 </r>
       <r>    9.5246    0.0000 </r>
       <r>    9.7919    0.0000 </r>
       <r>   11.8059    0.0000 </r>
       <r>   11.9181    0.0000 </r>
       <r>   15.1088    0.0000 </r>
       <r>   15.6363    0.0000 </r>
      </set>
     </set>
    </set>
   </array>
  </eigenvalues>
  <separator name="orbital magnetization" >
   <v name="MAGDIPOLOUT">      0.00000000      0.00000000      0.00000000</v>
  </separator>
  <dos>
   <i name="efermi">      8.32384770 </i>
   <total>
    <array>
     <dimension dim="1">gridpoints</dimension>
     <dimension dim="2">spin</dimension>
     <field>energy</field>
     <field>total</field>
     <field>integrated</field>
     <set>
      <set comment="spin 1">
       <r>    -4.0091     0.0000     0.0000 </r>
       <r>    -3.9137     0.0000     0.0000 </r>
       <r>    -3.8183     0.0000     0.0000 </r>
       <r>    -3.7229     0.0000     0.0000 </r>
       <r>    -3.6274     0.0000     0.0000 </r>
       <r>    -3.5320     0.0000     0.0000 </r>
       <r>    -3.4366     0.0000     0.0000 </r>
       <r>    -3.3412     0.0000     0.0000 </r>
       <r>    -3.2458     0.0000     0.0000 </r>
       <r>    -3.1504     0.0000     0.0000 </r>
       <r>    -3.0550     0.0000     0.0000 </r>
       <r>    -2.9595     0.0000     0.0000 </r>
       <r>    -2.8641     0.0000     0.0000 </r>
       <r>    -2.7687     0.0000     0.0000 </r>
       <r>    -2.6733     0.0000     0.0000 </r>
       <r>    -2.5779     0.0000     0.0000 </r>
       <r>    -2.4825     0.0000     0.0000 </r>
       <r>    -2.3871     0.0000     0.0000 </r>
       <r>    -2.2917     0.0000     0.0000 </r>
       <r>    -2.1962     0.0000     0.0000 </r>
       <r>    -2.1008     0.0000     0.0000 </r>
       <r>    -2.0054     0.0000     0.0000 </r>
       <r>    -1.9100     0.0000     0.0000 </r>
       <r>    -1.8146     0.0000     0.0000 </r>
       <r>    -1.7192    -0.0001     0.0000 </r>
       <r>    -1.6238    -0.0003     0.0000 </r>
       <r>    -1.5283    -0.0010    -0.0001 </r>
       <r>    -1.4329    -0.0025    -0.0004 </r>
       <r>    -1.3375    -0.0045    -0.0008 </r>
       <r>    -1.2421    -0.0050    -0.0013 </r>
       <r>    -1.1467     0.0008    -0.0012 </r>
       <r>    -1.0513     0.0186     0.0006 </r>
       <r>    -0.9559     0.0513     0.0055 </r>
       <r>    -0.8604     0.0957     0.0146 </r>
       <r>    -0.7650     0.1436     0.0283 </r>
       <r>    -0.6696     0.1864     0.0461 </r>
       <r>    -0.5742     0.2194     0.0670 </r>
       <r>    -0.4788     0.2436     0.0902 </r>
       <r>    -0.3834     0.2640     0.1154 </r>
       <r>    -0.2880     0.2856     0.1427 </r>
       <r>    -0.1925     0.3108     0.1723 </r>
       <r>    -0.0971     0.3390     0.2047 </r>
       <r>    -0.0017     0.3687     0.2399 </r>
       <r>     0.0937     0.3989     0.2779 </r>
       <r>     0.1891     0.4306     0.3190 </r>
       <r>     0.2845     0.4650     0.3634 </r>
       <r>     0.3799     0.5006     0.4111 </r>
       <r>     0.4754     0.5328     0.4620 </r>
       <r>     0.5708     0.5594     0.5153 </r>
       <r>     0.6662     0.5825     0.5709 </r>
       <r>     0.7616     0.6069     0.6288 </r>
       <r>     0.8570     0.6403     0.6899 </r>
       <r>     0.9524     0.6920     0.7560 </r>
       <r>     1.0478     0.7653     0.8290 </r>
       <r>     1.1432     0.8567     0.9107 </r>
       <r>     1.2387     0.9729     1.0035 </r>
       <r>     1.3341     1.1462     1.1129 </r>
       <r>     1.4295     1.4179     1.2482 </r>
       <r>     1.5249     1.8038     1.4203 </r>
       <r>     1.6203     2.2876     1.6386 </r>
       <r>     1.7157     2.8436     1.9099 </r>
       <r>     1.8111     3.4462     2.2387 </r>
       <r>     1.9066     4.0640     2.6265 </r>
       <r>     2.0020     4.6670     3.0718 </r>
       <r>     2.0974     5.2306     3.5708 </r>
       <r>     2.1928     5.7127     4.1159 </r>
       <r>     2.2882     6.0605     4.6942 </r>
       <r>     2.3836     6.2717     5.2926 </r>
       <r>     2.4790     6.4116     5.9043 </r>
       <r>     2.5745     6.5228     6.5267 </r>
       <r>     2.6699     6.5433     7.1510 </r>
       <r>     2.7653     6.3586     7.7577 </r>
       <r>     2.8607     5.9418     8.3246 </r>
       <r>     2.9561     5.4487     8.8445 </r>
       <r>     3.0515     5.1877     9.3395 </r>
       <r>     3.1469     5.4523     9.8597 </r>
       <r>     3.2424     6.2979    10.4606 </r>
       <r>     3.3378     7.4439    11.1709 </r>
       <r>     3.4332     8.4276    11.9750 </r>
       <r>     3.5286     8.9167    12.8257 </r>
       <r>     3.6240     8.9125    13.6761 </r>
       <r>     3.7194     8.6559    14.5020 </r>
       <r>     3.8148     8.3555    15.2992 </r>
       <r>     3.9103     8.0668    16.0689 </r>
       <r>     4.0057     7.8336    16.8164 </r>
       <r>     4.1011     7.8156    17.5621 </r>
       <r>     4.1965     8.1506    18.3398 </r>
       <r>     4.2919     8.7025    19.1701 </r>
       <r>     4.3873     9.0486    20.0335 </r>
       <r>     4.4827     8.8072    20.8738 </r>
       <r>     4.5781     8.0203    21.6390 </r>
       <r>     4.6736     7.1957    22.3256 </r>
       <r>     4.7690     6.9048    22.9844 </r>
       <r>     4.8644     7.2891    23.6799 </r>
       <r>     4.9598     7.9517    24.4386 </r>
       <r>     5.0552     8.3302    25.2334 </r>
       <r>     5.1506     8.1664    26.0126 </r>
       <r>     5.2460     7.6381    26.7414 </r>
       <r>     5.3415     7.1300    27.4217 </r>
       <r>     5.4369     6.9619    28.0860 </r>
       <r>     5.5323     7.2791    28.7805 </r>
       <r>     5.6277     8.0167    29.5454 </r>
       <r>     5.7231     8.8638    30.3911 </r>
       <r>     5.8185     9.3778    31.2859 </r>
       <r>     5.9139     9.3202    32.1752 </r>
       <r>     6.0094     8.8941    33.0238 </r>
       <r>     6.1048     8.5730    33.8418 </r>
       <r>     6.2002     8.7368    34.6754 </r>
       <r>     6.2956     9.5172    35.5835 </r>
       <r>     6.3910    10.8157    36.6154 </r>
       <r>     6.4864    12.2422    37.7835 </r>
       <r>     6.5818    13.0755    39.0311 </r>
       <r>     6.6773    12.5487    40.2284 </r>
       <r>     6.7727    10.4092    41.2216 </r>
       <r>     6.8681     7.2495    41.9133 </r>
       <r>     6.9635     4.1857    42.3127 </r>
       <r>     7.0589     2.0990    42.5129 </r>
       <r>     7.1543     1.1529    42.6229 </r>
       <r>     7.2497     0.9592    42.7145 </r>
       <r>     7.3452     1.0503    42.8147 </r>
       <r>     7.4406     1.1562    42.9250 </r>
       <r>     7.5360     1.2027    43.0397 </r>
       <r>     7.6314     1.2135    43.1555 </r>
       <r>     7.7268     1.2318    43.2731 </r>
       <r>     7.8222     1.2683    43.3941 </r>
       <r>     7.9176     1.2894    43.5171 </r>
       <r>     8.0130     1.2585    43.6372 </r>
       <r>     8.1085     1.1891    43.7506 </r>
       <r>     8.2039     1.1416    43.8596 </r>
       <r>     8.2993     1.1622    43.9705 </r>
       <r>     8.3947     1.2294    44.0878 </r>
       <r>     8.4901     1.2707    44.2090 </r>
       <r>     8.5855     1.2344    44.3268 </r>
       <r>     8.6809     1.1426    44.4358 </r>
       <r>     8.7764     1.0704    44.5379 </r>
       <r>     8.8718     1.0745    44.6405 </r>
       <r>     8.9672     1.1413    44.7494 </r>
       <r>     9.0626     1.2006    44.8639 </r>
       <r>     9.1580     1.1886    44.9773 </r>
       <r>     9.2534     1.1054    45.0828 </r>
       <r>     9.3488     1.0162    45.1798 </r>
       <r>     9.4443     0.9927    45.2745 </r>
       <r>     9.5397     1.0473    45.3744 </r>
       <r>     9.6351     1.1289    45.4821 </r>
       <r>     9.7305     1.1756    45.5943 </r>
       <r>     9.8259     1.1630    45.7052 </r>
       <r>     9.9213     1.1049    45.8107 </r>
       <r>    10.0167     1.0317    45.9091 </r>
       <r>    10.1122     0.9785    46.0025 </r>
       <r>    10.2076     0.9725    46.0953 </r>
       <r>    10.3030     1.0113    46.1918 </r>
       <r>    10.3984     1.0566    46.2926 </r>
       <r>    10.4938     1.0645    46.3941 </r>
       <r>    10.5892     1.0245    46.4919 </r>
       <r>    10.6846     0.9662    46.5841 </r>
       <r>    10.7801     0.9317    46.6730 </r>
       <r>    10.8755     0.9473    46.7634 </r>
       <r>    10.9709     1.0173    46.8604 </r>
       <r>    11.0663     1.1272    46.9680 </r>
       <r>    11.1617     1.2426    47.0865 </r>
       <r>    11.2571     1.3172    47.2122 </r>
       <r>    11.3525     1.3229    47.3384 </r>
       <r>    11.4480     1.2775    47.4603 </r>
       <r>    11.5434     1.2340    47.5781 </r>
       <r>    11.6388     1.2366    47.6961 </r>
       <r>    11.7342     1.2868    47.8188 </r>
       <r>    11.8296     1.3484    47.9475 </r>
       <r>    11.9250     1.3835    48.0795 </r>
       <r>    12.0204     1.3813    48.2113 </r>
       <r>    12.1158     1.3573    48.3408 </r>
       <r>    12.2113     1.3271    48.4674 </r>
       <r>    12.3067     1.2881    48.5903 </r>
       <r>    12.4021     1.2346    48.7081 </r>
       <r>    12.4975     1.1835    48.8211 </r>
       <r>    12.5929     1.1672    48.9324 </r>
       <r>    12.6883     1.1928    49.0462 </r>
       <r>    12.7837     1.2259    49.1632 </r>
       <r>    12.8792     1.2264    49.2802 </r>
       <r>    12.9746     1.1918    49.3939 </r>
       <r>    13.0700     1.1545    49.5041 </r>
       <r>    13.1654     1.1459    49.6134 </r>
       <r>    13.2608     1.1687    49.7249 </r>
       <r>    13.3562     1.2033    49.8398 </r>
       <r>    13.4516     1.2328    49.9574 </r>
       <r>    13.5471     1.2562    50.0772 </r>
       <r>    13.6425     1.2785    50.1992 </r>
       <r>    13.7379     1.2971    50.3230 </r>
       <r>    13.8333     1.3071    50.4477 </r>
       <r>    13.9287     1.3149    50.5732 </r>
       <r>    14.0241     1.3358    50.7006 </r>
       <r>    14.1195     1.3787    50.8322 </r>
       <r>    14.2150     1.4444    50.9700 </r>
       <r>    14.3104     1.5350    51.1164 </r>
       <r>    14.4058     1.6493    51.2738 </r>
       <r>    14.5012     1.7632    51.4420 </r>
       <r>    14.5966     1.8323    51.6169 </r>
       <r>    14.6920     1.8275    51.7912 </r>
       <r>    14.7874     1.7652    51.9597 </r>
       <r>    14.8829     1.6951    52.1214 </r>
       <r>    14.9783     1.6578    52.2796 </r>
       <r>    15.0737     1.6539    52.4374 </r>
       <r>    15.1691     1.6519    52.5950 </r>
       <r>    15.2645     1.6239    52.7499 </r>
       <r>    15.3599     1.5740    52.9001 </r>
       <r>    15.4553     1.5337    53.0464 </r>
       <r>    15.5507     1.5331    53.1927 </r>
       <r>    15.6462     1.5738    53.3429 </r>
       <r>    15.7416     1.6267    53.4981 </r>
       <r>    15.8370     1.6529    53.6558 </r>
       <r>    15.9324     1.6306    53.8114 </r>
       <r>    16.0278     1.5720    53.9614 </r>
       <r>    16.1232     1.5191    54.1063 </r>
       <r>    16.2186     1.5214    54.2515 </r>
       <r>    16.3141     1.6077    54.4049 </r>
       <r>    16.4095     1.7628    54.5731 </r>
       <r>    16.5049     1.9146    54.7558 </r>
       <r>    16.6003     1.9446    54.9413 </r>
       <r>    16.6957     1.7507    55.1083 </r>
       <r>    16.7911     1.3378    55.2360 </r>
       <r>    16.8865     0.8409    55.3162 </r>
       <r>    16.9820     0.4349    55.3577 </r>
       <r>    17.0774     0.2163    55.3784 </r>
       <r>    17.1728     0.1692    55.3945 </r>
       <r>    17.2682     0.2170    55.4152 </r>
       <r>    17.3636     0.2837    55.4423 </r>
       <r>    17.4590     0.3205    55.4729 </r>
       <r>    17.5544     0.3117    55.5026 </r>
       <r>    17.6499     0.2705    55.5284 </r>
       <r>    17.7453     0.2250    55.5499 </r>
       <r>    17.8407     0.1983    55.5688 </r>
       <r>    17.9361     0.1978    55.5877 </r>
       <r>    18.0315     0.2157    55.6083 </r>
       <r>    18.1269     0.2346    55.6306 </r>
       <r>    18.2223     0.2355    55.6531 </r>
       <r>    18.3178     0.2108    55.6732 </r>
       <r>    18.4132     0.1717    55.6896 </r>
       <r>    18.5086     0.1388    55.7028 </r>
       <r>    18.6040     0.1257    55.7148 </r>
       <r>    18.6994     0.1320    55.7274 </r>
       <r>    18.7948     0.1474    55.7415 </r>
       <r>    18.8902     0.1575    55.7565 </r>
       <r>    18.9856     0.1512    55.7710 </r>
       <r>    19.0811     0.1286    55.7832 </r>
       <r>    19.1765     0.1022    55.7930 </r>
       <r>    19.2719     0.0864    55.8012 </r>
       <r>    19.3673     0.0886    55.8097 </r>
       <r>    19.4627     0.1058    55.8198 </r>
       <r>    19.5581     0.1277    55.8320 </r>
       <r>    19.6535     0.1416    55.8455 </r>
       <r>    19.7490     0.1397    55.8588 </r>
       <r>    19.8444     0.1246    55.8707 </r>
       <r>    19.9398     0.1080    55.8810 </r>
       <r>    20.0352     0.1023    55.8907 </r>
       <r>    20.1306     0.1118    55.9014 </r>
       <r>    20.2260     0.1300    55.9138 </r>
       <r>    20.3214     0.1453    55.9277 </r>
       <r>    20.4169     0.1479    55.9418 </r>
       <r>    20.5123     0.1354    55.9547 </r>
       <r>    20.6077     0.1138    55.9656 </r>
       <r>    20.7031     0.0923    55.9744 </r>
       <r>    20.7985     0.0762    55.9816 </r>
       <r>    20.8939     0.0636    55.9877 </r>
       <r>    20.9893     0.0505    55.9925 </r>
       <r>    21.0848     0.0359    55.9960 </r>
       <r>    21.1802     0.0222    55.9981 </r>
       <r>    21.2756     0.0118    55.9992 </r>
       <r>    21.3710     0.0054    55.9997 </r>
       <r>    21.4664     0.0020    55.9999 </r>
       <r>    21.5618     0.0006    56.0000 </r>
       <r>    21.6572     0.0002    56.0000 </r>
       <r>    21.7527     0.0001    56.0000 </r>
       <r>    21.8481     0.0001    56.0000 </r>
       <r>    21.9435     0.0000    56.0000 </r>
       <r>    22.0389    -0.0001    56.0000 </r>
       <r>    22.1343    -0.0001    56.0000 </r>
       <r>    22.2297     0.0000    56.0000 </r>
       <r>    22.3251     0.0000    56.0000 </r>
       <r>    22.4205     0.0000    56.0000 </r>
       <r>    22.5160     0.0000    56.0000 </r>
       <r>    22.6114     0.0000    56.0000 </r>
       <r>    22.7068     0.0000    56.0000 </r>
       <r>    22.8022     0.0000    56.0000 </r>
       <r>    22.8976     0.0000    56.0000 </r>
       <r>    22.9930     0.0000    56.0000 </r>
       <r>    23.0884     0.0000    56.0000 </r>
       <r>    23.1839     0.0000    56.0000 </r>
       <r>    23.2793     0.0000    56.0000 </r>
       <r>    23.3747     0.0000    56.0000 </r>
       <r>    23.4701     0.0000    56.0000 </r>
       <r>    23.5655     0.0000    56.0000 </r>
       <r>    23.6609     0.0000    56.0000 </r>
       <r>    23.7563     0.0000    56.0000 </r>
       <r>    23.8518     0.0000    56.0000 </r>
       <r>    23.9472     0.0000    56.0000 </r>
       <r>    24.0426     0.0000    56.0000 </r>
       <r>    24.1380     0.0000    56.0000 </r>
       <r>    24.2334     0.0000    56.0000 </r>
       <r>    24.3288     0.0000    56.0000 </r>
       <r>    24.4242     0.0000    56.0000 </r>
       <r>    24.5197     0.0000    56.0000 </r>
       <r>    24.6151     0.0000    56.0000 </r>
      </set>
     </set>
    </array>
   </total>
  </dos>
 </calculation>
 <structure name="finalpos" >
  <crystal>
   <varray name="basis" >
    <v>      -2.05056190       0.00000000      -2.05056190 </v>
    <v>       2.05056190      -2.05056190       0.00000000 </v>
    <v>      -5.97034131      -3.91977941       5.97034131 </v>
   </varray>
   <i name="volume">     66.69013606 </i>
   <varray name="rec_basis" >
    <v>      -0.18357369      -0.18357369      -0.30409752 </v>
    <v>       0.12052383      -0.36714738      -0.12052383 </v>
    <v>      -0.06304987      -0.06304987       0.06304987 </v>
   </varray>
  </crystal>
  <varray name="positions" >
   <v>       0.75000000       0.50000000       0.25000000 </v>
   <v>       0.00665200       0.01330399       0.01995599 </v>
   <v>       0.25000000       0.50000000       0.75000000 </v>
   <v>       0.49334800       0.98669601       0.48004401 </v>
  </varray>
 </structure>
</modeling>
