<?xml version="1.0" encoding="ISO-8859-1"?>
<modeling>
 <generator>
  <i name="program" type="string">vasp </i>
  <i name="version" type="string">5.3.5  </i>
  <i name="subversion" type="string">31Mar14 (build Jun 20 2014 13:15:13) complex                          parallel </i>
  <i name="platform" type="string">LinuxIFC </i>
  <i name="date" type="string">2025 12 12 </i>
  <i name="time" type="string">12:44:06 </i>
 </generator>
 <incar>
  <i type="string" name="PREC">accurate</i>
  <i type="int" name="IALGO">    38</i>
  <i type="logical" name="ADDGRID"> T  </i>
  <i type="int" name="ISPIN">     2</i>
  <i type="int" name="NELM">   100</i>
  <i type="int" name="NELMIN">     4</i>
  <i name="EDIFF">      0.00000100</i>
  <i name="ENCUT">    500.00000000</i>
  <i type="logical" name="LREAL"> F  </i>
  <i type="int" name="ISMEAR">     0</i>
  <i name="SIGMA">      0.05000000</i>
  <i type="logical" name="LWAVE"> F  </i>
  <i type="logical" name="LCHARG"> F  </i>
  <i type="int" name="NELM">   100</i>
  <i type="logical" name="LDAU"> T  </i>
  <v name="LDAUU">      0.00000000      4.00000000      0.00000000</v>
  <v name="LDAUJ">      0.00000000      0.00000000      0.00000000</v>
 </incar>
 <kpoints>
  <generation param="Auto">
   <i name="subdivisionlength">     20.00000000 </i>
   <v type="int" name="divisions">       3        2        4 </v>
   <v name="usershift">      0.00000000       0.00000000       0.00000000 </v>
   <v name="genvec1">      0.33333333       0.00000000       0.00000000 </v>
   <v name="genvec2">      0.00000000       0.50000000       0.00000000 </v>
   <v name="genvec3">      0.00000000       0.00000000       0.25000000 </v>
   <v name="shift">      0.00000000       0.00000000       0.00000000 </v>
  </generation>
  <varray name="kpointlist" >
   <v>       0.00000000       0.00000000       0.00000000 </v>
   <v>       0.33333333       0.00000000       0.00000000 </v>
   <v>       0.00000000       0.50000000       0.00000000 </v>
   <v>       0.33333333       0.50000000       0.00000000 </v>
   <v>       0.00000000       0.00000000       0.25000000 </v>
   <v>       0.33333333       0.00000000       0.25000000 </v>
   <v>       0.00000000       0.50000000       0.25000000 </v>
   <v>       0.33333333       0.50000000       0.25000000 </v>
   <v>       0.00000000       0.00000000       0.50000000 </v>
   <v>       0.33333333       0.00000000       0.50000000 </v>
   <v>       0.00000000       0.50000000       0.50000000 </v>
   <v>       0.33333333       0.50000000       0.50000000 </v>
  </varray>
  <varray name="weights" >
   <v>       0.04166667 </v>
   <v>       0.08333333 </v>
   <v>       0.04166667 </v>
   <v>       0.08333333 </v>
   <v>       0.08333333 </v>
   <v>       0.16666667 </v>
   <v>       0.08333333 </v>
   <v>       0.16666667 </v>
   <v>       0.04166667 </v>
   <v>       0.08333333 </v>
   <v>       0.04166667 </v>
   <v>       0.08333333 </v>
  </varray>
 </kpoints>
 <parameters>
  <separator name="general" >
   <i type="string" name="SYSTEM">unknown system</i>
   <i type="logical" name="LCOMPAT"> F  </i>
  </separator>
  <separator name="electronic" >
   <i type="string" name="PREC">accura</i>
   <i name="ENMAX">    500.00000000</i>
   <i name="ENAUG">    586.98000000</i>
   <i name="EDIFF">      0.00000100</i>
   <i type="int" name="IALGO">    38</i>
   <i type="int" name="IWAVPR">    10</i>
   <i type="int" name="NBANDS">   176</i>
   <i name="NELECT">    264.00000000</i>
   <i type="int" name="TURBO">     0</i>
   <i type="int" name="IRESTART">     0</i>
   <i type="int" name="NREBOOT">     0</i>
   <i type="int" name="NMIN">     0</i>
   <i name="EREF">      0.00000000</i>
   <separator name="electronic smearing" >
    <i type="int" name="ISMEAR">     0</i>
    <i name="SIGMA">      0.05000000</i>
    <i name="KSPACING">      0.50000000</i>
    <i type="logical" name="KGAMMA"> T  </i>
   </separator>
   <separator name="electronic projectors" >
    <i type="logical" name="LREAL"> F  </i>
    <v name="ROPT">      0.00000000      0.00000000      0.00000000</v>
    <i type="int" name="LMAXPAW">  -100</i>
    <i type="int" name="LMAXMIX">     2</i>
    <i type="logical" name="NLSPLINE"> F  </i>
   </separator>
   <separator name="electronic startup" >
    <i type="int" name="ISTART">     0</i>
    <i type="int" name="ICHARG">     2</i>
    <i type="int" name="INIWAV">     1</i>
   </separator>
   <separator name="electronic spin" >
    <i type="int" name="ISPIN">     2</i>
    <i type="logical" name="LNONCOLLINEAR"> F  </i>
    <v name="MAGMOM">      1.00000000      1.00000000      1.00000000      1.00000000      1.00000000      1.00000000      1.00000000      1.00000000      1.00000000      1.00000000      1.00000000      1.00000000      1.00000000      1.00000000      1.00000000      1.00000000      1.00000000      1.00000000      1.00000000      1.00000000
      1.00000000      1.00000000      1.00000000      1.00000000      1.00000000      1.00000000      1.00000000      1.00000000      1.00000000      1.00000000      1.00000000      1.00000000</v>
    <i name="NUPDOWN">     -1.00000000</i>
    <i type="logical" name="LSORBIT"> F  </i>
    <v name="SAXIS">      0.00000000      0.00000000      1.00000000</v>
    <i type="logical" name="LSPIRAL"> F  </i>
    <v name="QSPIRAL">      0.00000000      0.00000000      0.00000000</v>
    <i type="logical" name="LZEROZ"> F  </i>
   </separator>
   <separator name="electronic exchange-correlation" >
    <i type="logical" name="LASPH"> F  </i>
    <i type="logical" name="LMETAGGA"> F  </i>
   </separator>
   <separator name="electronic convergence" >
    <i type="int" name="NELM">   100</i>
    <i type="int" name="NELMDL">    -5</i>
    <i type="int" name="NELMIN">     4</i>
    <i name="ENINI">    500.00000000</i>
    <separator name="electronic convergence detail" >
     <i type="logical" name="LDIAG"> T  </i>
     <i type="logical" name="LSUBROT"> F  </i>
     <i name="WEIMIN">      0.00000000</i>
     <i name="EBREAK">      0.00000000</i>
     <i name="DEPER">      0.30000000</i>
     <i type="int" name="NRMM">     4</i>
     <i name="TIME">      0.40000000</i>
    </separator>
   </separator>
   <separator name="electronic mixer" >
    <i name="AMIX">      0.40000000</i>
    <i name="BMIX">      1.00000000</i>
    <i name="AMIN">      0.10000000</i>
    <i name="AMIX_MAG">      1.60000000</i>
    <i name="BMIX_MAG">      1.00000000</i>
    <separator name="electronic mixer details" >
     <i type="int" name="IMIX">     4</i>
     <i type="int" name="MAXMIX">   -45</i>
     <i name="WC">    100.00000000</i>
     <i type="int" name="INIMIX">     1</i>
     <i type="int" name="MIXPRE">     1</i>
     <i type="int" name="MREMOVE">     5</i>
    </separator>
   </separator>
   <separator name="electronic dipolcorrection" >
    <i type="logical" name="LDIPOL"> F  </i>
    <i type="logical" name="LMONO"> F  </i>
    <i type="int" name="IDIPOL">     0</i>
    <i name="EPSILON">      1.00000000</i>
    <v name="DIPOL">   -100.00000000   -100.00000000   -100.00000000</v>
    <i name="EFIELD">      0.00000000</i>
   </separator>
  </separator>
  <separator name="grids" >
   <i type="int" name="NGX">    60</i>
   <i type="int" name="NGY">    84</i>
   <i type="int" name="NGZ">    42</i>
   <i type="int" name="NGXF">   120</i>
   <i type="int" name="NGYF">   168</i>
   <i type="int" name="NGZF">    84</i>
   <i type="logical" name="ADDGRID"> T  </i>
  </separator>
  <separator name="ionic" >
   <i type="int" name="NSW">     0</i>
   <i type="int" name="IBRION">    -1</i>
   <i type="int" name="ISIF">     2</i>
   <i name="PSTRESS">      0.00000000</i>
   <i name="EDIFFG">      0.00001000</i>
   <i type="int" name="NFREE">     0</i>
   <i name="POTIM">      0.50000000</i>
   <i name="SMASS">     -3.00000000</i>
   <i name="SCALEE">      1.00000000</i>
  </separator>
  <separator name="ionic md" >
   <i name="TEBEG">      0.00010000</i>
   <i name="TEEND">      0.00010000</i>
   <i type="int" name="NBLOCK">     1</i>
   <i type="int" name="KBLOCK">     1</i>
   <i type="int" name="NPACO">   256</i>
   <i name="APACO">     16.00000000</i>
  </separator>
  <separator name="symmetry" >
   <i type="int" name="ISYM">     2</i>
   <i name="SYMPREC">      0.00001000</i>
  </separator>
  <separator name="dos" >
   <i type="logical" name="LORBIT"> F  </i>
   <v name="RWIGS">     -1.00000000     -1.00000000     -1.00000000</v>
   <i type="int" name="NEDOS">   301</i>
   <i name="EMIN">     10.00000000</i>
   <i name="EMAX">    -10.00000000</i>
   <i name="EFERMI">      0.00000000</i>
  </separator>
  <separator name="writing" >
   <i type="int" name="NWRITE">     2</i>
   <i type="logical" name="LWAVE"> F  </i>
   <i type="logical" name="LCHARG"> F  </i>
   <i type="logical" name="LPARD"> F  </i>
   <i type="logical" name="LVTOT"> F  </i>
   <i type="logical" name="LVHAR"> F  </i>
   <i type="logical" name="LELF"> F  </i>
   <i type="logical" name="LOPTICS"> F  </i>
   <v name="STM">      0.00000000      0.00000000      0.00000000      0.00000000      0.00000000      0.00000000      0.00000000</v>
  </separator>
  <separator name="performance" >
   <i type="int" name="NPAR">     4</i>
   <i type="int" name="NSIM">     4</i>
   <i type="int" name="NBLK">    -1</i>
   <i type="logical" name="LPLANE"> T  </i>
   <i type="logical" name="LSCALAPACK"> T  </i>
   <i type="logical" name="LSCAAWARE"> F  </i>
   <i type="logical" name="LSCALU"> F  </i>
   <i type="logical" name="LASYNC"> F  </i>
   <i type="logical" name="LORBITALREAL"> F  </i>
  </separator>
  <separator name="miscellaneous" >
   <i type="int" name="IDIOT">     3</i>
   <i type="logical" name="LMUSIC"> F  </i>
   <v name="POMASS">     87.62000000     63.54600000     16.00000000</v>
   <v name="DARWINR">      0.00000000      0.00000000      0.00000000</v>
   <v name="DARWINV">      1.00000000      1.00000000      1.00000000</v>
   <i type="logical" name="LCORR"> T  </i>
  </separator>
  <i type="logical" name="GGA_COMPAT"> T  </i>
  <i type="logical" name="LBERRY"> F  </i>
  <i type="int" name="ICORELEVEL">     0</i>
  <i type="logical" name="LDAU"> T  </i>
  <v type="int" name="LDAUTYPE">     2</v>
  <v type="int" name="LDAUL">     2</v>
  <v name="LDAUU">      0.00000000</v>
  <v name="LDAUJ">      0.00000000</v>
  <i type="int" name="LDAUPRINT">     0</i>
  <i type="int" name="I_CONSTRAINED_M">     0</i>
  <separator name="electronic exchange-correlation" >
   <i type="string" name="GGA">--</i>
   <i type="int" name="VOSKOWN">     0</i>
   <i type="logical" name="LHFCALC"> F  </i>
   <i type="string" name="PRECFOCK"></i>
   <i type="logical" name="LSYMGRAD"> F  </i>
   <i type="logical" name="LHFONE"> F  </i>
   <i type="logical" name="LRHFCALC"> F  </i>
   <i type="logical" name="LTHOMAS"> F  </i>
   <i type="logical" name="LMODELHF"> F  </i>
   <i name="ENCUT4O">     -1.00000000</i>
   <i type="int" name="EXXOEP">     0</i>
   <i type="int" name="FOURORBIT">     0</i>
   <i name="AEXX">      0.00000000</i>
   <i name="HFALPHA">      0.00000000</i>
   <i name="MCALPHA">      0.00000000</i>
   <i name="ALDAX">      1.00000000</i>
   <i name="AGGAX">      1.00000000</i>
   <i name="ALDAC">      1.00000000</i>
   <i name="AGGAC">      1.00000000</i>
   <i type="int" name="NKREDX">     1</i>
   <i type="int" name="NKREDY">     1</i>
   <i type="int" name="NKREDZ">     1</i>
   <i type="logical" name="SHIFTRED"> F  </i>
   <i type="logical" name="ODDONLY"> F  </i>
   <i type="logical" name="EVENONLY"> F  </i>
   <i type="int" name="LMAXFOCK">     0</i>
   <i type="int" name="NMAXFOCKAE">     0</i>
   <i type="logical" name="LFOCKAEDFT"> F  </i>
   <i name="HFSCREEN">      0.00000000</i>
   <i name="HFSCREENC">      0.00000000</i>
   <i type="int" name="NBANDSGWLOW">     0</i>
  </separator>
  <separator name="vdW DFT" >
   <i type="logical" name="LUSE_VDW"> F  </i>
   <i name="Zab_VDW">     -0.84910000</i>
   <i name="PARAM1">      0.12340000</i>
   <i name="PARAM2">      1.00000000</i>
   <i name="PARAM3">      0.00000000</i>
  </separator>
  <separator name="model GW" >
   <i type="int" name="MODEL_GW">     0</i>
   <i name="MODEL_EPS0">      9.60000000</i>
   <i name="MODEL_ALPHA">      1.00000000</i>
  </separator>
  <separator name="linear response parameters" >
   <i type="logical" name="LEPSILON"> F  </i>
   <i type="logical" name="LRPA"> F  </i>
   <i type="logical" name="LNABLA"> F  </i>
   <i type="logical" name="LVEL"> F  </i>
   <i type="int" name="KINTER">     0</i>
   <i name="CSHIFT">      0.10000000</i>
   <i name="OMEGAMAX">     -1.00000000</i>
   <i name="DEG_THRESHOLD">      0.00200000</i>
  </separator>
  <separator name="orbital magnetization" >
   <i type="logical" name="NUCIND"> F  </i>
   <v name="MAGPOS">      0.00000000      0.00000000      0.00000000</v>
   <i type="logical" name="LNICSALL"> T  </i>
   <i type="logical" name="ORBITALMAG"> F  </i>
   <i type="logical" name="LMAGBLOCH"> F  </i>
   <i type="logical" name="LCHIMAG"> F  </i>
   <i type="logical" name="LGAUGE"> T  </i>
   <i type="int" name="MAGATOM">     0</i>
   <v name="MAGDIPOL">      0.00000000      0.00000000      0.00000000</v>
   <v name="AVECCONST">      0.00000000      0.00000000      0.00000000</v>
  </separator>
  <separator name="response functions" >
   <i type="logical" name="LADDER"> F  </i>
   <i type="logical" name="LFXC"> F  </i>
   <i type="logical" name="LHARTREE"> T  </i>
   <i type="int" name="IBSE">     0</i>
   <i type="logical" name="LTCTE"> F  </i>
   <i type="logical" name="LTETE"> F  </i>
   <i type="logical" name="LTRIPLET"> F  </i>
   <i type="logical" name="LFXCEPS"> F  </i>
   <i type="logical" name="LFXHEG"> F  </i>
   <i type="logical" name="L2ORDER"> F  </i>
   <i type="logical" name="LUSEW"> F  </i>
   <i name="ENCUTGW">     -2.00000000</i>
   <i name="ENCUTGWSOFT">     -2.00000000</i>
   <i name="ENCUTLF">     -1.00000000</i>
   <i type="int" name="LMAXMP2">    -1</i>
   <i name="SCISSOR">      0.00000000</i>
   <i type="int" name="NOMEGA">     0</i>
   <i type="int" name="NOMEGAR">     0</i>
   <i type="int" name="NBANDSGW">    -1</i>
   <i type="int" name="NBANDSO">    -1</i>
   <i type="int" name="NBANDSV">    -1</i>
   <i type="int" name="NELM">   100</i>
   <i type="int" name="DIM">     3</i>
   <i type="int" name="ANTIRES">     0</i>
   <i name="OMEGAMAX">    -30.00000000</i>
   <i name="OMEGAMIN">    -30.00000000</i>
   <i name="OMEGATL">   -200.00000000</i>
   <i type="int" name="OMEGAGRID">     0</i>
   <i name="CSHIFT">     -0.10000000</i>
   <i type="logical" name="SELFENERGY"> F  </i>
   <i type="logical" name="LSPECTRAL"> F  </i>
   <i type="logical" name="ODDONLYGW"> F  </i>
   <i type="logical" name="EVENONLYGW"> F  </i>
   <i type="int" name="NKREDLFX">     1</i>
   <i type="int" name="NKREDLFY">     1</i>
   <i type="int" name="NKREDLFZ">     1</i>
   <i type="int" name="MAXMEM">  1800</i>
   <i type="int" name="TELESCOPE">     0</i>
   <i type="int" name="TAUPAR">     1</i>
  </separator>
  <separator name="External order field" >
   <i name="OFIELD_KAPPA">      0.00000000</i>
   <v name="OFIELD_K">      0.00000000      0.00000000      0.00000000</v>
   <i name="OFIELD_Q6_NEAR">      0.00000000</i>
   <i name="OFIELD_Q6_FAR">      0.00000000</i>
   <i name="OFIELD_A">      0.00000000</i>
  </separator>
 </parameters>
 <atominfo>
  <atoms>      32 </atoms>
  <types>       3 </types>
  <array name="atoms" >
   <dimension dim="1">ion</dimension>
   <field type="string">element</field>
   <field type="int">atomtype</field>
   <set>
    <rc><c>Sr</c><c>   1</c></rc>
    <rc><c>Sr</c><c>   1</c></rc>
    <rc><c>Sr</c><c>   1</c></rc>
    <rc><c>Sr</c><c>   1</c></rc>
    <rc><c>Sr</c><c>   1</c></rc>
    <rc><c>Sr</c><c>   1</c></rc>
    <rc><c>Sr</c><c>   1</c></rc>
    <rc><c>Sr</c><c>   1</c></rc>
    <rc><c>Cu</c><c>   2</c></rc>
    <rc><c>Cu</c><c>   2</c></rc>
    <rc><c>Cu</c><c>   2</c></rc>
    <rc><c>Cu</c><c>   2</c></rc>
    <rc><c>Cu</c><c>   2</c></rc>
    <rc><c>Cu</c><c>   2</c></rc>
    <rc><c>Cu</c><c>   2</c></rc>
    <rc><c>Cu</c><c>   2</c></rc>
    <rc><c>O </c><c>   3</c></rc>
    <rc><c>O </c><c>   3</c></rc>
    <rc><c>O </c><c>   3</c></rc>
    <rc><c>O </c><c>   3</c></rc>
    <rc><c>O </c><c>   3</c></rc>
    <rc><c>O </c><c>   3</c></rc>
    <rc><c>O </c><c>   3</c></rc>
    <rc><c>O </c><c>   3</c></rc>
    <rc><c>O </c><c>   3</c></rc>
    <rc><c>O </c><c>   3</c></rc>
    <rc><c>O </c><c>   3</c></rc>
    <rc><c>O </c><c>   3</c></rc>
    <rc><c>O </c><c>   3</c></rc>
    <rc><c>O </c><c>   3</c></rc>
    <rc><c>O </c><c>   3</c></rc>
    <rc><c>O </c><c>   3</c></rc>
   </set>
  </array>
  <array name="atomtypes" >
   <dimension dim="1">type</dimension>
   <field type="int">atomspertype</field>
   <field type="string">element</field>
   <field>mass</field>
   <field>valence</field>
   <field type="string">pseudopotential</field>
   <set>
    <rc><c>   8</c><c>Sr</c><c>     87.62000000</c><c>     10.00000000</c><c>  PAW_PBE Sr_sv 07Sep2000               </c></rc>
    <rc><c>   8</c><c>Cu</c><c>     63.54600000</c><c>     11.00000000</c><c>  PAW_PBE Cu 22Jun2005                  </c></rc>
    <rc><c>  16</c><c>O </c><c>     16.00000000</c><c>      6.00000000</c><c>  PAW_PBE O_s 07Sep2000                 </c></rc>
   </set>
  </array>
 </atominfo>
 <structure name="initialpos" >
  <crystal>
   <varray name="basis" >
    <v>       8.00000000       0.00000000       0.00000000 </v>
    <v>       0.00000000      11.31370850       0.00000000 </v>
    <v>       0.00000000       0.00000000       5.65685425 </v>
   </varray>
   <i name="volume">    512.00000000 </i>
   <varray name="rec_basis" >
    <v>       0.12500000       0.00000000       0.00000000 </v>
    <v>       0.00000000       0.08838835       0.00000000 </v>
    <v>       0.00000000       0.00000000       0.17677670 </v>
   </varray>
  </crystal>
  <varray name="positions" >
   <v>       0.75000000       0.00000000       0.00000000 </v>
   <v>       0.25000000       0.25000000       0.50000000 </v>
   <v>       0.25000000       0.00000000       0.00000000 </v>
   <v>       0.25000000       0.75000000       0.50000000 </v>
   <v>       0.25000000       0.50000000       0.00000000 </v>
   <v>       0.75000000       0.75000000       0.50000000 </v>
   <v>       0.75000000       0.50000000       0.00000000 </v>
   <v>       0.75000000       0.25000000       0.50000000 </v>
   <v>       0.50000000       0.00000000       0.50000000 </v>
   <v>       0.00000000       0.25000000       0.00000000 </v>
   <v>       0.00000000       0.00000000       0.50000000 </v>
   <v>       0.00000000       0.75000000       0.00000000 </v>
   <v>       0.00000000       0.50000000       0.50000000 </v>
   <v>       0.50000000       0.75000000       0.00000000 </v>
   <v>       0.50000000       0.50000000       0.50000000 </v>
   <v>       0.50000000       0.25000000       0.00000000 </v>
   <v>       0.00000000       0.12500000       0.25000000 </v>
   <v>       0.00000000       0.87500000       0.75000000 </v>
   <v>       0.00000000       0.12500000       0.75000000 </v>
   <v>       0.00000000       0.87500000       0.25000000 </v>
   <v>       0.75000000       0.00000000       0.50000000 </v>
   <v>       0.25000000       0.25000000       0.00000000 </v>
   <v>       0.25000000       0.00000000       0.50000000 </v>
   <v>       0.25000000       0.75000000       0.00000000 </v>
   <v>       0.50000000       0.62500000       0.25000000 </v>
   <v>       0.50000000       0.37500000       0.75000000 </v>
   <v>       0.50000000       0.62500000       0.75000000 </v>
   <v>       0.50000000       0.37500000       0.25000000 </v>
   <v>       0.25000000       0.50000000       0.50000000 </v>
   <v>       0.75000000       0.75000000       0.00000000 </v>
   <v>       0.75000000       0.50000000       0.50000000 </v>
   <v>       0.75000000       0.25000000       0.00000000 </v>
  </varray>
 </structure>
 <calculation>
  <scstep>
   <time name="dav">   13.80   13.80</time>
   <time name="total">   14.19   14.21</time>
   <energy>
    <i name="alphaZ">   1197.30728287 </i>
    <i name="ewald"> -17105.06113880 </i>
    <i name="hartreedc">  -7783.05230685 </i>
    <i name="XCdc">   1086.35689907 </i>
    <i name="pawpsdc">  20377.93945936 </i>
    <i name="pawaedc"> -21035.46554250 </i>
    <i name="eentropy">     -0.00893825 </i>
    <i name="bandstr">   1948.59213706 </i>
    <i name="atom">  24790.01456472 </i>
    <i name="e_fr_energy">   3476.62241669 </i>
    <i name="e_wo_entrp">   3476.63135494 </i>
    <i name="e_0_energy">   3476.62688582 </i>
   </energy>
  </scstep>
  <scstep>
   <time name="dav">   13.90   13.90</time>
   <time name="total">   13.90   13.92</time>
   <energy>
    <i name="e_fr_energy">    410.39475214 </i>
    <i name="e_wo_entrp">    410.40304533 </i>
    <i name="e_0_energy">    410.39889873 </i>
   </energy>
  </scstep>
  <scstep>
   <time name="dav">   13.61   13.61</time>
   <time name="total">   13.61   13.64</time>
   <energy>
    <i name="e_fr_energy">   -139.44547618 </i>
    <i name="e_wo_entrp">   -139.42682996 </i>
    <i name="e_0_energy">   -139.43615307 </i>
   </energy>
  </scstep>
  <scstep>
   <time name="dav">   17.92   17.92</time>
   <time name="total">   17.92   17.94</time>
   <energy>
    <i name="e_fr_energy">   -190.33760264 </i>
    <i name="e_wo_entrp">   -190.31732653 </i>
    <i name="e_0_energy">   -190.32746459 </i>
   </energy>
  </scstep>
  <scstep>
   <time name="dav">   21.65   21.89</time>
   <time name="total">   22.51   22.76</time>
   <energy>
    <i name="e_fr_energy">   -193.54774662 </i>
    <i name="e_wo_entrp">   -193.52560498 </i>
    <i name="e_0_energy">   -193.53667580 </i>
   </energy>
  </scstep>
  <scstep>
   <time name="dav">   18.83   18.83</time>
   <time name="total">   20.07   20.09</time>
   <energy>
    <i name="e_fr_energy">   -169.41729530 </i>
    <i name="e_wo_entrp">   -169.38875255 </i>
    <i name="e_0_energy">   -169.40302393 </i>
   </energy>
  </scstep>
  <scstep>
   <time name="dav">   18.45   18.71</time>
   <time name="total">   19.69   19.96</time>
   <energy>
    <i name="e_fr_energy">   -155.78402218 </i>
    <i name="e_wo_entrp">   -155.76845956 </i>
    <i name="e_0_energy">   -155.77624087 </i>
   </energy>
  </scstep>
  <scstep>
   <time name="dav">   19.29   19.29</time>
   <time name="total">   20.52   20.54</time>
   <energy>
    <i name="e_fr_energy">   -154.96404160 </i>
    <i name="e_wo_entrp">   -154.95108244 </i>
    <i name="e_0_energy">   -154.95756202 </i>
   </energy>
  </scstep>
  <scstep>
   <time name="dav">   19.62   19.62</time>
   <time name="total">   20.85   20.87</time>
   <energy>
    <i name="e_fr_energy">   -155.32931157 </i>
    <i name="e_wo_entrp">   -155.31256419 </i>
    <i name="e_0_energy">   -155.32093788 </i>
   </energy>
  </scstep>
  <scstep>
   <time name="dav">   19.42   19.43</time>
   <time name="total">   20.88   21.14</time>
   <energy>
    <i name="e_fr_energy">   -155.65509102 </i>
    <i name="e_wo_entrp">   -155.63796393 </i>
    <i name="e_0_energy">   -155.64652748 </i>
   </energy>
  </scstep>
  <scstep>
   <time name="dav">   18.25   18.48</time>
   <time name="total">   19.74   19.99</time>
   <energy>
    <i name="e_fr_energy">   -155.23441661 </i>
    <i name="e_wo_entrp">   -155.22173150 </i>
    <i name="e_0_energy">   -155.22807405 </i>
   </energy>
  </scstep>
  <scstep>
   <time name="dav">   19.62   19.63</time>
   <time name="total">   20.86   20.88</time>
   <energy>
    <i name="e_fr_energy">   -155.36562700 </i>
    <i name="e_wo_entrp">   -155.35476196 </i>
    <i name="e_0_energy">   -155.36019448 </i>
   </energy>
  </scstep>
  <scstep>
   <time name="dav">   19.23   19.24</time>
   <time name="total">   20.47   20.49</time>
   <energy>
    <i name="e_fr_energy">   -155.39764755 </i>
    <i name="e_wo_entrp">   -155.38623714 </i>
    <i name="e_0_energy">   -155.39194234 </i>
   </energy>
  </scstep>
  <scstep>
   <time name="dav">   20.07   20.07</time>
   <time name="total">   21.30   21.32</time>
   <energy>
    <i name="e_fr_energy">   -155.39473901 </i>
    <i name="e_wo_entrp">   -155.38300355 </i>
    <i name="e_0_energy">   -155.38887128 </i>
   </energy>
  </scstep>
  <scstep>
   <time name="dav">   18.69   18.91</time>
   <time name="total">   19.92   20.16</time>
   <energy>
    <i name="e_fr_energy">   -155.40369460 </i>
    <i name="e_wo_entrp">   -155.39195660 </i>
    <i name="e_0_energy">   -155.39782560 </i>
   </energy>
  </scstep>
  <scstep>
   <time name="dav">   19.38   19.38</time>
   <time name="total">   20.61   20.63</time>
   <energy>
    <i name="e_fr_energy">   -155.40607270 </i>
    <i name="e_wo_entrp">   -155.39442384 </i>
    <i name="e_0_energy">   -155.40024827 </i>
   </energy>
  </scstep>
  <scstep>
   <time name="dav">   19.33   19.33</time>
   <time name="total">   20.56   20.58</time>
   <energy>
    <i name="e_fr_energy">   -155.40659620 </i>
    <i name="e_wo_entrp">   -155.39513887 </i>
    <i name="e_0_energy">   -155.40086753 </i>
   </energy>
  </scstep>
  <scstep>
   <time name="dav">   20.18   20.42</time>
   <time name="total">   21.42   21.67</time>
   <energy>
    <i name="e_fr_energy">   -155.40679866 </i>
    <i name="e_wo_entrp">   -155.39538712 </i>
    <i name="e_0_energy">   -155.40109289 </i>
   </energy>
  </scstep>
  <scstep>
   <time name="dav">   19.22   19.23</time>
   <time name="total">   20.46   20.49</time>
   <energy>
    <i name="e_fr_energy">   -155.40688296 </i>
    <i name="e_wo_entrp">   -155.39548029 </i>
    <i name="e_0_energy">   -155.40118162 </i>
   </energy>
  </scstep>
  <scstep>
   <time name="dav">   20.39   20.40</time>
   <time name="total">   21.63   21.65</time>
   <energy>
    <i name="e_fr_energy">   -155.40692049 </i>
    <i name="e_wo_entrp">   -155.39550208 </i>
    <i name="e_0_energy">   -155.40121128 </i>
   </energy>
  </scstep>
  <scstep>
   <time name="dav">   17.01   17.01</time>
   <time name="total">   18.24   18.26</time>
   <energy>
    <i name="e_fr_energy">   -155.40694153 </i>
    <i name="e_wo_entrp">   -155.39551785 </i>
    <i name="e_0_energy">   -155.40122969 </i>
   </energy>
  </scstep>
  <scstep>
   <time name="dav">   14.11   14.11</time>
   <time name="total">   15.34   15.36</time>
   <energy>
    <i name="e_fr_energy">   -155.40694668 </i>
    <i name="e_wo_entrp">   -155.39552061 </i>
    <i name="e_0_energy">   -155.40123365 </i>
   </energy>
  </scstep>
  <scstep>
   <time name="dav">   12.06   12.06</time>
   <time name="total">   13.54   13.56</time>
   <energy>
    <i name="e_fr_energy">   -155.40695023 </i>
    <i name="e_wo_entrp">   -155.39552230 </i>
    <i name="e_0_energy">   -155.40123626 </i>
   </energy>
  </scstep>
  <scstep>
   <time name="dav">   15.23   15.23</time>
   <time name="total">   16.46   16.48</time>
   <energy>
    <i name="e_fr_energy">   -155.40695292 </i>
    <i name="e_wo_entrp">   -155.39552300 </i>
    <i name="e_0_energy">   -155.40123796 </i>
   </energy>
  </scstep>
  <scstep>
   <time name="dav">   13.66   13.67</time>
   <time name="total">   14.90   14.92</time>
   <energy>
    <i name="e_fr_energy">   -155.40695476 </i>
    <i name="e_wo_entrp">   -155.39552405 </i>
    <i name="e_0_energy">   -155.40123940 </i>
   </energy>
  </scstep>
  <scstep>
   <time name="dav">   10.31   10.31</time>
   <time name="total">   10.69   10.71</time>
   <energy>
    <i name="alphaZ">   1197.30728287 </i>
    <i name="ewald"> -17105.06113880 </i>
    <i name="hartreedc">  -7800.61395441 </i>
    <i name="XCdc">   1086.63533284 </i>
    <i name="pawpsdc">  30979.71103622 </i>
    <i name="pawaedc"> -31710.18764427 </i>
    <i name="eentropy">     -0.01143238 </i>
    <i name="bandstr">  -1593.20100207 </i>
    <i name="atom">  24790.01456472 </i>
    <i name="e_fr_energy">   -155.40695529 </i>
    <i name="e_wo_entrp">   -155.39552291 </i>
    <i name="e_0_energy">   -155.40123910 </i>
   </energy>
  </scstep>
  <structure>
   <crystal>
    <varray name="basis" >
     <v>       8.00000000       0.00000000       0.00000000 </v>
     <v>       0.00000000      11.31370850       0.00000000 </v>
     <v>       0.00000000       0.00000000       5.65685425 </v>
    </varray>
    <i name="volume">    512.00000000 </i>
    <varray name="rec_basis" >
     <v>       0.12500000       0.00000000       0.00000000 </v>
     <v>       0.00000000       0.08838835       0.00000000 </v>
     <v>       0.00000000       0.00000000       0.17677670 </v>
    </varray>
   </crystal>
   <varray name="positions" >
    <v>       0.75000000       0.00000000       0.00000000 </v>
    <v>       0.25000000       0.25000000       0.50000000 </v>
    <v>       0.25000000       0.00000000       0.00000000 </v>
    <v>       0.25000000       0.75000000       0.50000000 </v>
    <v>       0.25000000       0.50000000       0.00000000 </v>
    <v>       0.75000000       0.75000000       0.50000000 </v>
    <v>       0.75000000       0.50000000       0.00000000 </v>
    <v>       0.75000000       0.25000000       0.50000000 </v>
    <v>       0.50000000       0.00000000       0.50000000 </v>
    <v>       0.00000000       0.25000000       0.00000000 </v>
    <v>       0.00000000       0.00000000       0.50000000 </v>
    <v>       0.00000000       0.75000000       0.00000000 </v>
    <v>       0.00000000       0.50000000       0.50000000 </v>
    <v>       0.50000000       0.75000000       0.00000000 </v>
    <v>       0.50000000       0.50000000       0.50000000 </v>
    <v>       0.50000000       0.25000000       0.00000000 </v>
    <v>       0.00000000       0.12500000       0.25000000 </v>
    <v>       0.00000000       0.87500000       0.75000000 </v>
    <v>       0.00000000       0.12500000       0.75000000 </v>
    <v>       0.00000000       0.87500000       0.25000000 </v>
    <v>       0.75000000       0.00000000       0.50000000 </v>
    <v>       0.25000000       0.25000000       0.00000000 </v>
    <v>       0.25000000       0.00000000       0.50000000 </v>
    <v>       0.25000000       0.75000000       0.00000000 </v>
    <v>       0.50000000       0.62500000       0.25000000 </v>
    <v>       0.50000000       0.37500000       0.75000000 </v>
    <v>       0.50000000       0.62500000       0.75000000 </v>
    <v>       0.50000000       0.37500000       0.25000000 </v>
    <v>       0.25000000       0.50000000       0.50000000 </v>
    <v>       0.75000000       0.75000000       0.00000000 </v>
    <v>       0.75000000       0.50000000       0.50000000 </v>
    <v>       0.75000000       0.25000000       0.00000000 </v>
   </varray>
  </structure>
  <varray name="forces" >
   <v>       2.67176287       0.00000000       0.00000000 </v>
   <v>       0.00000000       0.00000000       0.00000000 </v>
   <v>      -2.67176287       0.00000000       0.00000000 </v>
   <v>       0.00000000       0.00000000       0.00000000 </v>
   <v>       2.67176287       0.00000000       0.00000000 </v>
   <v>       0.00000000       0.00000000       0.00000000 </v>
   <v>      -2.67176287       0.00000000       0.00000000 </v>
   <v>       0.00000000       0.00000000       0.00000000 </v>
   <v>       0.00000000       0.00000000       0.00000000 </v>
   <v>       0.00000000      -1.66319817       0.00000000 </v>
   <v>       0.00000000       0.00000000       0.00000000 </v>
   <v>       0.00000000       1.66319817       0.00000000 </v>
   <v>       0.00000000       0.00000000       0.00000000 </v>
   <v>       0.00000000      -1.66319817       0.00000000 </v>
   <v>       0.00000000       0.00000000       0.00000000 </v>
   <v>       0.00000000       1.66319817       0.00000000 </v>
   <v>       0.00000000       0.30299480       0.48828012 </v>
   <v>       0.00000000      -0.30299480      -0.48828012 </v>
   <v>       0.00000000       0.30299480      -0.48828012 </v>
   <v>       0.00000000      -0.30299480       0.48828012 </v>
   <v>      -3.09678640       0.00000000       0.00000000 </v>
   <v>       0.00000000       0.00000000       0.00000000 </v>
   <v>       3.09678640       0.00000000       0.00000000 </v>
   <v>       0.00000000       0.00000000       0.00000000 </v>
   <v>       0.00000000       0.30299480       0.48828012 </v>
   <v>       0.00000000      -0.30299480      -0.48828012 </v>
   <v>       0.00000000       0.30299480      -0.48828012 </v>
   <v>       0.00000000      -0.30299480       0.48828012 </v>
   <v>      -3.09678640       0.00000000       0.00000000 </v>
   <v>       0.00000000       0.00000000       0.00000000 </v>
   <v>       3.09678640       0.00000000       0.00000000 </v>
   <v>       0.00000000       0.00000000       0.00000000 </v>
  </varray>
  <varray name="stress" >
   <v>     -97.42800427       0.00000000       0.00000000 </v>
   <v>       0.00000000     -99.42874520       0.00000000 </v>
   <v>       0.00000000       0.00000000     -67.41341984 </v>
  </varray>
  <energy>
   <i name="e_fr_energy">   -155.40695529 </i>
   <i name="e_wo_entrp">   -155.40123910 </i>
   <i name="e_0_energy">     -0.01143238 </i>
  </energy>
  <time name="totalsc">  500.38  502.36</time>
  <eigenvalues>
   <array>
    <dimension dim="1">band</dimension>
    <dimension dim="2">kpoint</dimension>
    <dimension dim="3">spin</dimension>
    <field>eigene</field>
    <field>occ</field>
    <set>
     <set comment="spin 1">
      <set comment="kpoint 1">
       <r>  -31.4619    1.0000 </r>
       <r>  -31.4604    1.0000 </r>
       <r>  -31.4490    1.0000 </r>
       <r>  -31.4476    1.0000 </r>
       <r>  -31.3232    1.0000 </r>
       <r>  -31.3223    1.0000 </r>
       <r>  -31.3105    1.0000 </r>
       <r>  -31.3097    1.0000 </r>
       <r>  -14.9484    1.0000 </r>
       <r>  -14.7702    1.0000 </r>
       <r>  -14.7197    1.0000 </r>
       <r>  -14.4229    1.0000 </r>
       <r>  -14.3593    1.0000 </r>
       <r>  -14.3397    1.0000 </r>
       <r>  -14.3234    1.0000 </r>
       <r>  -14.2421    1.0000 </r>
       <r>  -14.0991    1.0000 </r>
       <r>  -14.0769    1.0000 </r>
       <r>  -14.0404    1.0000 </r>
       <r>  -13.9924    1.0000 </r>
       <r>  -13.9315    1.0000 </r>
       <r>  -13.8198    1.0000 </r>
       <r>  -13.6540    1.0000 </r>
       <r>  -13.6279    1.0000 </r>
       <r>  -13.6035    1.0000 </r>
       <r>  -13.5240    1.0000 </r>
       <r>  -13.5004    1.0000 </r>
       <r>  -13.4733    1.0000 </r>
       <r>  -13.4694    1.0000 </r>
       <r>  -13.4636    1.0000 </r>
       <r>  -13.4198    1.0000 </r>
       <r>  -13.3933    1.0000 </r>
       <r>  -13.3535    1.0000 </r>
       <r>  -13.3060    1.0000 </r>
       <r>  -13.2933    1.0000 </r>
       <r>  -13.2919    1.0000 </r>
       <r>  -13.2450    1.0000 </r>
       <r>  -13.2386    1.0000 </r>
       <r>  -13.1991    1.0000 </r>
       <r>  -13.1265    1.0000 </r>
       <r>  -13.1148    1.0000 </r>
       <r>  -13.0278    1.0000 </r>
       <r>  -13.0147    1.0000 </r>
       <r>  -12.9573    1.0000 </r>
       <r>  -12.9326    1.0000 </r>
       <r>  -12.8948    1.0000 </r>
       <r>  -12.7234    1.0000 </r>
       <r>  -12.7100    1.0000 </r>
       <r>   -3.0570    1.0000 </r>
       <r>   -3.0157    1.0000 </r>
       <r>   -2.9682    1.0000 </r>
       <r>   -2.7428    1.0000 </r>
       <r>   -2.6588    1.0000 </r>
       <r>   -2.3989    1.0000 </r>
       <r>   -2.2604    1.0000 </r>
       <r>   -2.2496    1.0000 </r>
       <r>   -1.9430    1.0000 </r>
       <r>   -1.8616    1.0000 </r>
       <r>   -1.8110    1.0000 </r>
       <r>   -1.7505    1.0000 </r>
       <r>   -1.7219    1.0000 </r>
       <r>   -1.6943    1.0000 </r>
       <r>   -1.5980    1.0000 </r>
       <r>   -1.5946    1.0000 </r>
       <r>   -1.5529    1.0000 </r>
       <r>   -1.5159    1.0000 </r>
       <r>   -1.5041    1.0000 </r>
       <r>   -1.3009    1.0000 </r>
       <r>   -1.1896    1.0000 </r>
       <r>   -1.1569    1.0000 </r>
       <r>   -0.9287    1.0000 </r>
       <r>   -0.8474    1.0000 </r>
       <r>   -0.8164    1.0000 </r>
       <r>   -0.7770    1.0000 </r>
       <r>   -0.7655    1.0000 </r>
       <r>   -0.7403    1.0000 </r>
       <r>   -0.7337    1.0000 </r>
       <r>   -0.7323    1.0000 </r>
       <r>   -0.6785    1.0000 </r>
       <r>   -0.6575    1.0000 </r>
       <r>   -0.5971    1.0000 </r>
       <r>   -0.5936    1.0000 </r>
       <r>   -0.5635    1.0000 </r>
       <r>   -0.5169    1.0000 </r>
       <r>   -0.4672    1.0000 </r>
       <r>   -0.4555    1.0000 </r>
       <r>   -0.4449    1.0000 </r>
       <r>   -0.4429    1.0000 </r>
       <r>   -0.4231    1.0000 </r>
       <r>   -0.3524    1.0000 </r>
       <r>   -0.2930    1.0000 </r>
       <r>   -0.2443    1.0000 </r>
       <r>   -0.0977    1.0000 </r>
       <r>   -0.0715    1.0000 </r>
       <r>    0.0168    1.0000 </r>
       <r>    0.2159    1.0000 </r>
       <r>    0.2431    1.0000 </r>
       <r>    0.2909    1.0000 </r>
       <r>    0.3707    1.0000 </r>
       <r>    0.5999    1.0000 </r>
       <r>    0.6400    1.0000 </r>
       <r>    0.7240    1.0000 </r>
       <r>    0.7783    1.0000 </r>
       <r>    0.7809    1.0000 </r>
       <r>    0.8599    1.0000 </r>
       <r>    0.9177    1.0000 </r>
       <r>    0.9755    1.0000 </r>
       <r>    1.1067    1.0000 </r>
       <r>    1.1931    1.0000 </r>
       <r>    1.2557    1.0000 </r>
       <r>    1.3048    1.0000 </r>
       <r>    1.3193    1.0000 </r>
       <r>    1.3291    1.0000 </r>
       <r>    1.3979    1.0000 </r>
       <r>    1.4089    1.0000 </r>
       <r>    1.4148    1.0000 </r>
       <r>    1.4241    1.0000 </r>
       <r>    1.4295    1.0000 </r>
       <r>    1.4554    1.0000 </r>
       <r>    1.4816    1.0000 </r>
       <r>    1.7853    1.0000 </r>
       <r>    1.8133    1.0000 </r>
       <r>    1.8347    1.0000 </r>
       <r>    1.8374    1.0000 </r>
       <r>    1.9993    1.0000 </r>
       <r>    2.0321    1.0000 </r>
       <r>    2.0846    1.0000 </r>
       <r>    2.1798    1.0000 </r>
       <r>    2.2157    1.0000 </r>
       <r>    2.3098    1.0000 </r>
       <r>    2.3181    1.0000 </r>
       <r>    2.4352    1.0000 </r>
       <r>    2.8682    0.0000 </r>
       <r>    2.9771    0.0000 </r>
       <r>    3.2765    0.0000 </r>
       <r>    3.2987    0.0000 </r>
       <r>    3.5192    0.0000 </r>
       <r>    3.6181    0.0000 </r>
       <r>    4.4698    0.0000 </r>
       <r>    4.8403    0.0000 </r>
       <r>    5.4501    0.0000 </r>
       <r>    5.5393    0.0000 </r>
       <r>    6.0143    0.0000 </r>
       <r>    6.1833    0.0000 </r>
       <r>    6.2441    0.0000 </r>
       <r>    6.9171    0.0000 </r>
       <r>    7.1424    0.0000 </r>
       <r>    7.2368    0.0000 </r>
       <r>    7.2710    0.0000 </r>
       <r>    7.3157    0.0000 </r>
       <r>    7.6502    0.0000 </r>
       <r>    8.0496    0.0000 </r>
       <r>    8.1147    0.0000 </r>
       <r>    8.1958    0.0000 </r>
       <r>    8.3783    0.0000 </r>
       <r>    8.3819    0.0000 </r>
       <r>    8.4115    0.0000 </r>
       <r>    8.4430    0.0000 </r>
       <r>    8.6557    0.0000 </r>
       <r>    8.6939    0.0000 </r>
       <r>    8.9042    0.0000 </r>
       <r>    9.1317    0.0000 </r>
       <r>    9.1760    0.0000 </r>
       <r>    9.2215    0.0000 </r>
       <r>    9.2394    0.0000 </r>
       <r>    9.3685    0.0000 </r>
       <r>    9.5596    0.0000 </r>
       <r>    9.5763    0.0000 </r>
       <r>    9.6118    0.0000 </r>
       <r>    9.6405    0.0000 </r>
       <r>    9.6955    0.0000 </r>
       <r>    9.8056    0.0000 </r>
       <r>    9.8719    0.0000 </r>
       <r>    9.9736    0.0000 </r>
       <r>   10.1033    0.0000 </r>
       <r>   10.4871    0.0000 </r>
      </set>
      <set comment="kpoint 2">
       <r>  -31.4587    1.0000 </r>
       <r>  -31.4572    1.0000 </r>
       <r>  -31.4522    1.0000 </r>
       <r>  -31.4508    1.0000 </r>
       <r>  -31.3200    1.0000 </r>
       <r>  -31.3191    1.0000 </r>
       <r>  -31.3137    1.0000 </r>
       <r>  -31.3128    1.0000 </r>
       <r>  -14.8895    1.0000 </r>
       <r>  -14.7936    1.0000 </r>
       <r>  -14.6654    1.0000 </r>
       <r>  -14.5371    1.0000 </r>
       <r>  -14.3753    1.0000 </r>
       <r>  -14.3501    1.0000 </r>
       <r>  -14.1896    1.0000 </r>
       <r>  -14.1626    1.0000 </r>
       <r>  -14.0984    1.0000 </r>
       <r>  -14.0606    1.0000 </r>
       <r>  -14.0180    1.0000 </r>
       <r>  -14.0151    1.0000 </r>
       <r>  -13.9770    1.0000 </r>
       <r>  -13.8819    1.0000 </r>
       <r>  -13.7677    1.0000 </r>
       <r>  -13.6282    1.0000 </r>
       <r>  -13.5987    1.0000 </r>
       <r>  -13.5739    1.0000 </r>
       <r>  -13.5709    1.0000 </r>
       <r>  -13.5406    1.0000 </r>
       <r>  -13.5179    1.0000 </r>
       <r>  -13.4660    1.0000 </r>
       <r>  -13.4381    1.0000 </r>
       <r>  -13.4283    1.0000 </r>
       <r>  -13.3171    1.0000 </r>
       <r>  -13.3025    1.0000 </r>
       <r>  -13.2814    1.0000 </r>
       <r>  -13.2577    1.0000 </r>
       <r>  -13.1625    1.0000 </r>
       <r>  -13.1614    1.0000 </r>
       <r>  -13.1510    1.0000 </r>
       <r>  -13.0958    1.0000 </r>
       <r>  -13.0536    1.0000 </r>
       <r>  -13.0398    1.0000 </r>
       <r>  -13.0136    1.0000 </r>
       <r>  -12.9668    1.0000 </r>
       <r>  -12.9361    1.0000 </r>
       <r>  -12.8474    1.0000 </r>
       <r>  -12.7759    1.0000 </r>
       <r>  -12.7530    1.0000 </r>
       <r>   -2.7999    1.0000 </r>
       <r>   -2.7000    1.0000 </r>
       <r>   -2.6694    1.0000 </r>
       <r>   -2.6382    1.0000 </r>
       <r>   -2.3833    1.0000 </r>
       <r>   -2.2582    1.0000 </r>
       <r>   -2.2529    1.0000 </r>
       <r>   -2.2047    1.0000 </r>
       <r>   -1.9053    1.0000 </r>
       <r>   -1.8422    1.0000 </r>
       <r>   -1.7946    1.0000 </r>
       <r>   -1.7887    1.0000 </r>
       <r>   -1.6754    1.0000 </r>
       <r>   -1.6605    1.0000 </r>
       <r>   -1.6357    1.0000 </r>
       <r>   -1.6300    1.0000 </r>
       <r>   -1.5853    1.0000 </r>
       <r>   -1.5502    1.0000 </r>
       <r>   -1.5205    1.0000 </r>
       <r>   -1.5182    1.0000 </r>
       <r>   -1.3782    1.0000 </r>
       <r>   -1.3308    1.0000 </r>
       <r>   -1.3089    1.0000 </r>
       <r>   -1.1847    1.0000 </r>
       <r>   -1.0857    1.0000 </r>
       <r>   -1.0485    1.0000 </r>
       <r>   -1.0299    1.0000 </r>
       <r>   -0.9397    1.0000 </r>
       <r>   -0.8920    1.0000 </r>
       <r>   -0.8864    1.0000 </r>
       <r>   -0.8529    1.0000 </r>
       <r>   -0.8466    1.0000 </r>
       <r>   -0.7992    1.0000 </r>
       <r>   -0.7789    1.0000 </r>
       <r>   -0.7492    1.0000 </r>
       <r>   -0.7367    1.0000 </r>
       <r>   -0.6565    1.0000 </r>
       <r>   -0.6146    1.0000 </r>
       <r>   -0.4391    1.0000 </r>
       <r>   -0.4345    1.0000 </r>
       <r>   -0.4268    1.0000 </r>
       <r>   -0.4232    1.0000 </r>
       <r>   -0.0796    1.0000 </r>
       <r>   -0.0771    1.0000 </r>
       <r>   -0.0718    1.0000 </r>
       <r>   -0.0495    1.0000 </r>
       <r>    0.3376    1.0000 </r>
       <r>    0.3959    1.0000 </r>
       <r>    0.4194    1.0000 </r>
       <r>    0.5561    1.0000 </r>
       <r>    0.6320    1.0000 </r>
       <r>    0.8550    1.0000 </r>
       <r>    0.8839    1.0000 </r>
       <r>    0.8965    1.0000 </r>
       <r>    0.8982    1.0000 </r>
       <r>    0.9806    1.0000 </r>
       <r>    0.9908    1.0000 </r>
       <r>    0.9909    1.0000 </r>
       <r>    1.0522    1.0000 </r>
       <r>    1.1964    1.0000 </r>
       <r>    1.2105    1.0000 </r>
       <r>    1.2287    1.0000 </r>
       <r>    1.2716    1.0000 </r>
       <r>    1.3075    1.0000 </r>
       <r>    1.3115    1.0000 </r>
       <r>    1.3619    1.0000 </r>
       <r>    1.3994    1.0000 </r>
       <r>    1.4404    1.0000 </r>
       <r>    1.4765    1.0000 </r>
       <r>    1.4842    1.0000 </r>
       <r>    1.5740    1.0000 </r>
       <r>    1.6713    1.0000 </r>
       <r>    1.6857    1.0000 </r>
       <r>    1.6907    1.0000 </r>
       <r>    1.7040    1.0000 </r>
       <r>    1.7681    1.0000 </r>
       <r>    1.9326    1.0000 </r>
       <r>    1.9888    1.0000 </r>
       <r>    2.0759    1.0000 </r>
       <r>    2.1404    1.0000 </r>
       <r>    2.1955    1.0000 </r>
       <r>    2.3915    1.0000 </r>
       <r>    2.4440    1.0000 </r>
       <r>    2.4673    1.0000 </r>
       <r>    2.8422    0.0000 </r>
       <r>    2.9446    0.0000 </r>
       <r>    3.3668    0.0000 </r>
       <r>    3.4746    0.0000 </r>
       <r>    3.7449    0.0000 </r>
       <r>    3.9685    0.0000 </r>
       <r>    4.2613    0.0000 </r>
       <r>    4.8598    0.0000 </r>
       <r>    5.0918    0.0000 </r>
       <r>    5.4271    0.0000 </r>
       <r>    6.2321    0.0000 </r>
       <r>    6.3292    0.0000 </r>
       <r>    6.6631    0.0000 </r>
       <r>    6.6688    0.0000 </r>
       <r>    6.7765    0.0000 </r>
       <r>    6.9424    0.0000 </r>
       <r>    7.0356    0.0000 </r>
       <r>    7.5343    0.0000 </r>
       <r>    7.6434    0.0000 </r>
       <r>    7.8928    0.0000 </r>
       <r>    7.9605    0.0000 </r>
       <r>    7.9829    0.0000 </r>
       <r>    7.9873    0.0000 </r>
       <r>    8.1729    0.0000 </r>
       <r>    8.3767    0.0000 </r>
       <r>    8.5794    0.0000 </r>
       <r>    8.6061    0.0000 </r>
       <r>    8.8595    0.0000 </r>
       <r>    9.0602    0.0000 </r>
       <r>    9.0821    0.0000 </r>
       <r>    9.2149    0.0000 </r>
       <r>    9.2553    0.0000 </r>
       <r>    9.4424    0.0000 </r>
       <r>    9.5280    0.0000 </r>
       <r>    9.5652    0.0000 </r>
       <r>    9.6009    0.0000 </r>
       <r>    9.6605    0.0000 </r>
       <r>    9.6653    0.0000 </r>
       <r>    9.7106    0.0000 </r>
       <r>    9.7327    0.0000 </r>
       <r>    9.7632    0.0000 </r>
       <r>    9.9119    0.0000 </r>
       <r>   10.0795    0.0000 </r>
       <r>   10.0927    0.0000 </r>
      </set>
      <set comment="kpoint 3">
       <r>  -31.4612    1.0000 </r>
       <r>  -31.4612    1.0000 </r>
       <r>  -31.4483    1.0000 </r>
       <r>  -31.4483    1.0000 </r>
       <r>  -31.3227    1.0000 </r>
       <r>  -31.3227    1.0000 </r>
       <r>  -31.3101    1.0000 </r>
       <r>  -31.3101    1.0000 </r>
       <r>  -14.8668    1.0000 </r>
       <r>  -14.8668    1.0000 </r>
       <r>  -14.6080    1.0000 </r>
       <r>  -14.6080    1.0000 </r>
       <r>  -14.2698    1.0000 </r>
       <r>  -14.2698    1.0000 </r>
       <r>  -14.2412    1.0000 </r>
       <r>  -14.2412    1.0000 </r>
       <r>  -14.1939    1.0000 </r>
       <r>  -14.1939    1.0000 </r>
       <r>  -14.0434    1.0000 </r>
       <r>  -14.0434    1.0000 </r>
       <r>  -13.9022    1.0000 </r>
       <r>  -13.9022    1.0000 </r>
       <r>  -13.6518    1.0000 </r>
       <r>  -13.6518    1.0000 </r>
       <r>  -13.5105    1.0000 </r>
       <r>  -13.5105    1.0000 </r>
       <r>  -13.4671    1.0000 </r>
       <r>  -13.4671    1.0000 </r>
       <r>  -13.4505    1.0000 </r>
       <r>  -13.4505    1.0000 </r>
       <r>  -13.3879    1.0000 </r>
       <r>  -13.3879    1.0000 </r>
       <r>  -13.2642    1.0000 </r>
       <r>  -13.2642    1.0000 </r>
       <r>  -13.2620    1.0000 </r>
       <r>  -13.2620    1.0000 </r>
       <r>  -13.1983    1.0000 </r>
       <r>  -13.1983    1.0000 </r>
       <r>  -13.1860    1.0000 </r>
       <r>  -13.1860    1.0000 </r>
       <r>  -13.1534    1.0000 </r>
       <r>  -13.1534    1.0000 </r>
       <r>  -13.0082    1.0000 </r>
       <r>  -13.0082    1.0000 </r>
       <r>  -12.9425    1.0000 </r>
       <r>  -12.9425    1.0000 </r>
       <r>  -12.7158    1.0000 </r>
       <r>  -12.7158    1.0000 </r>
       <r>   -3.0362    1.0000 </r>
       <r>   -3.0362    1.0000 </r>
       <r>   -2.8938    1.0000 </r>
       <r>   -2.8938    1.0000 </r>
       <r>   -2.4915    1.0000 </r>
       <r>   -2.4915    1.0000 </r>
       <r>   -2.2551    1.0000 </r>
       <r>   -2.2551    1.0000 </r>
       <r>   -1.8862    1.0000 </r>
       <r>   -1.8862    1.0000 </r>
       <r>   -1.8061    1.0000 </r>
       <r>   -1.8061    1.0000 </r>
       <r>   -1.7098    1.0000 </r>
       <r>   -1.7098    1.0000 </r>
       <r>   -1.5666    1.0000 </r>
       <r>   -1.5666    1.0000 </r>
       <r>   -1.5096    1.0000 </r>
       <r>   -1.5096    1.0000 </r>
       <r>   -1.4120    1.0000 </r>
       <r>   -1.4120    1.0000 </r>
       <r>   -1.2307    1.0000 </r>
       <r>   -1.2307    1.0000 </r>
       <r>   -0.8372    1.0000 </r>
       <r>   -0.8372    1.0000 </r>
       <r>   -0.8057    1.0000 </r>
       <r>   -0.8057    1.0000 </r>
       <r>   -0.7696    1.0000 </r>
       <r>   -0.7696    1.0000 </r>
       <r>   -0.7620    1.0000 </r>
       <r>   -0.7620    1.0000 </r>
       <r>   -0.6240    1.0000 </r>
       <r>   -0.6240    1.0000 </r>
       <r>   -0.6008    1.0000 </r>
       <r>   -0.6008    1.0000 </r>
       <r>   -0.5630    1.0000 </r>
       <r>   -0.5630    1.0000 </r>
       <r>   -0.4353    1.0000 </r>
       <r>   -0.4353    1.0000 </r>
       <r>   -0.4270    1.0000 </r>
       <r>   -0.4270    1.0000 </r>
       <r>   -0.3952    1.0000 </r>
       <r>   -0.3952    1.0000 </r>
       <r>   -0.2246    1.0000 </r>
       <r>   -0.2246    1.0000 </r>
       <r>   -0.1388    1.0000 </r>
       <r>   -0.1388    1.0000 </r>
       <r>    0.1196    1.0000 </r>
       <r>    0.1196    1.0000 </r>
       <r>    0.3438    1.0000 </r>
       <r>    0.3438    1.0000 </r>
       <r>    0.4434    1.0000 </r>
       <r>    0.4434    1.0000 </r>
       <r>    0.6105    1.0000 </r>
       <r>    0.6105    1.0000 </r>
       <r>    0.6774    1.0000 </r>
       <r>    0.6774    1.0000 </r>
       <r>    0.9486    1.0000 </r>
       <r>    0.9486    1.0000 </r>
       <r>    1.1567    1.0000 </r>
       <r>    1.1567    1.0000 </r>
       <r>    1.1991    1.0000 </r>
       <r>    1.1991    1.0000 </r>
       <r>    1.1995    1.0000 </r>
       <r>    1.1995    1.0000 </r>
       <r>    1.3491    1.0000 </r>
       <r>    1.3491    1.0000 </r>
       <r>    1.3797    1.0000 </r>
       <r>    1.3797    1.0000 </r>
       <r>    1.4686    1.0000 </r>
       <r>    1.4686    1.0000 </r>
       <r>    1.6356    1.0000 </r>
       <r>    1.6356    1.0000 </r>
       <r>    1.7669    1.0000 </r>
       <r>    1.7669    1.0000 </r>
       <r>    1.8944    1.0000 </r>
       <r>    1.8944    1.0000 </r>
       <r>    2.0271    1.0000 </r>
       <r>    2.0271    1.0000 </r>
       <r>    2.1761    1.0000 </r>
       <r>    2.1761    1.0000 </r>
       <r>    2.1776    1.0000 </r>
       <r>    2.1776    1.0000 </r>
       <r>    2.3810    1.0000 </r>
       <r>    2.3810    1.0000 </r>
       <r>    2.6450    0.2847 </r>
       <r>    2.6450    0.2847 </r>
       <r>    3.3777    0.0000 </r>
       <r>    3.3777    0.0000 </r>
       <r>    3.5998    0.0000 </r>
       <r>    3.5998    0.0000 </r>
       <r>    4.8965    0.0000 </r>
       <r>    4.8965    0.0000 </r>
       <r>    5.1812    0.0000 </r>
       <r>    5.1812    0.0000 </r>
       <r>    6.2554    0.0000 </r>
       <r>    6.2554    0.0000 </r>
       <r>    6.6340    0.0000 </r>
       <r>    6.6340    0.0000 </r>
       <r>    7.0847    0.0000 </r>
       <r>    7.0847    0.0000 </r>
       <r>    7.5607    0.0000 </r>
       <r>    7.5607    0.0000 </r>
       <r>    7.6673    0.0000 </r>
       <r>    7.6673    0.0000 </r>
       <r>    7.7729    0.0000 </r>
       <r>    7.7729    0.0000 </r>
       <r>    8.5649    0.0000 </r>
       <r>    8.5649    0.0000 </r>
       <r>    8.6166    0.0000 </r>
       <r>    8.6166    0.0000 </r>
       <r>    8.7669    0.0000 </r>
       <r>    8.7669    0.0000 </r>
       <r>    8.8954    0.0000 </r>
       <r>    8.8954    0.0000 </r>
       <r>    9.1733    0.0000 </r>
       <r>    9.1733    0.0000 </r>
       <r>    9.4852    0.0000 </r>
       <r>    9.4852    0.0000 </r>
       <r>    9.5345    0.0000 </r>
       <r>    9.5345    0.0000 </r>
       <r>    9.6843    0.0000 </r>
       <r>    9.6843    0.0000 </r>
       <r>    9.9239    0.0000 </r>
       <r>    9.9242    0.0000 </r>
       <r>    9.9912    0.0000 </r>
       <r>    9.9920    0.0000 </r>
       <r>   10.1454    0.0000 </r>
       <r>   10.1537    0.0000 </r>
      </set>
      <set comment="kpoint 4">
       <r>  -31.4580    1.0000 </r>
       <r>  -31.4580    1.0000 </r>
       <r>  -31.4515    1.0000 </r>
       <r>  -31.4515    1.0000 </r>
       <r>  -31.3196    1.0000 </r>
       <r>  -31.3196    1.0000 </r>
       <r>  -31.3133    1.0000 </r>
       <r>  -31.3133    1.0000 </r>
       <r>  -14.8397    1.0000 </r>
       <r>  -14.8397    1.0000 </r>
       <r>  -14.5731    1.0000 </r>
       <r>  -14.5731    1.0000 </r>
       <r>  -14.3277    1.0000 </r>
       <r>  -14.3277    1.0000 </r>
       <r>  -14.2822    1.0000 </r>
       <r>  -14.2822    1.0000 </r>
       <r>  -14.1321    1.0000 </r>
       <r>  -14.1321    1.0000 </r>
       <r>  -14.0257    1.0000 </r>
       <r>  -14.0257    1.0000 </r>
       <r>  -13.9017    1.0000 </r>
       <r>  -13.9017    1.0000 </r>
       <r>  -13.6975    1.0000 </r>
       <r>  -13.6975    1.0000 </r>
       <r>  -13.5726    1.0000 </r>
       <r>  -13.5726    1.0000 </r>
       <r>  -13.4926    1.0000 </r>
       <r>  -13.4926    1.0000 </r>
       <r>  -13.4395    1.0000 </r>
       <r>  -13.4395    1.0000 </r>
       <r>  -13.4203    1.0000 </r>
       <r>  -13.4203    1.0000 </r>
       <r>  -13.2848    1.0000 </r>
       <r>  -13.2848    1.0000 </r>
       <r>  -13.2840    1.0000 </r>
       <r>  -13.2840    1.0000 </r>
       <r>  -13.1500    1.0000 </r>
       <r>  -13.1500    1.0000 </r>
       <r>  -13.1322    1.0000 </r>
       <r>  -13.1322    1.0000 </r>
       <r>  -13.1069    1.0000 </r>
       <r>  -13.1069    1.0000 </r>
       <r>  -12.9825    1.0000 </r>
       <r>  -12.9825    1.0000 </r>
       <r>  -12.9219    1.0000 </r>
       <r>  -12.9219    1.0000 </r>
       <r>  -12.7644    1.0000 </r>
       <r>  -12.7644    1.0000 </r>
       <r>   -2.7488    1.0000 </r>
       <r>   -2.7488    1.0000 </r>
       <r>   -2.6654    1.0000 </r>
       <r>   -2.6654    1.0000 </r>
       <r>   -2.2845    1.0000 </r>
       <r>   -2.2845    1.0000 </r>
       <r>   -2.2557    1.0000 </r>
       <r>   -2.2557    1.0000 </r>
       <r>   -1.8924    1.0000 </r>
       <r>   -1.8924    1.0000 </r>
       <r>   -1.7406    1.0000 </r>
       <r>   -1.7406    1.0000 </r>
       <r>   -1.6681    1.0000 </r>
       <r>   -1.6681    1.0000 </r>
       <r>   -1.6602    1.0000 </r>
       <r>   -1.6602    1.0000 </r>
       <r>   -1.5604    1.0000 </r>
       <r>   -1.5604    1.0000 </r>
       <r>   -1.5198    1.0000 </r>
       <r>   -1.5198    1.0000 </r>
       <r>   -1.3271    1.0000 </r>
       <r>   -1.3271    1.0000 </r>
       <r>   -1.2482    1.0000 </r>
       <r>   -1.2482    1.0000 </r>
       <r>   -1.1251    1.0000 </r>
       <r>   -1.1251    1.0000 </r>
       <r>   -0.9306    1.0000 </r>
       <r>   -0.9306    1.0000 </r>
       <r>   -0.8837    1.0000 </r>
       <r>   -0.8837    1.0000 </r>
       <r>   -0.8449    1.0000 </r>
       <r>   -0.8449    1.0000 </r>
       <r>   -0.7952    1.0000 </r>
       <r>   -0.7952    1.0000 </r>
       <r>   -0.7917    1.0000 </r>
       <r>   -0.7917    1.0000 </r>
       <r>   -0.6185    1.0000 </r>
       <r>   -0.6185    1.0000 </r>
       <r>   -0.4310    1.0000 </r>
       <r>   -0.4310    1.0000 </r>
       <r>   -0.4192    1.0000 </r>
       <r>   -0.4192    1.0000 </r>
       <r>   -0.1224    1.0000 </r>
       <r>   -0.1224    1.0000 </r>
       <r>   -0.0362    1.0000 </r>
       <r>   -0.0362    1.0000 </r>
       <r>    0.4379    1.0000 </r>
       <r>    0.4379    1.0000 </r>
       <r>    0.4702    1.0000 </r>
       <r>    0.4702    1.0000 </r>
       <r>    0.7476    1.0000 </r>
       <r>    0.7476    1.0000 </r>
       <r>    0.8337    1.0000 </r>
       <r>    0.8337    1.0000 </r>
       <r>    0.8877    1.0000 </r>
       <r>    0.8877    1.0000 </r>
       <r>    1.0469    1.0000 </r>
       <r>    1.0469    1.0000 </r>
       <r>    1.1610    1.0000 </r>
       <r>    1.1610    1.0000 </r>
       <r>    1.2153    1.0000 </r>
       <r>    1.2153    1.0000 </r>
       <r>    1.2740    1.0000 </r>
       <r>    1.2740    1.0000 </r>
       <r>    1.3344    1.0000 </r>
       <r>    1.3344    1.0000 </r>
       <r>    1.3934    1.0000 </r>
       <r>    1.3934    1.0000 </r>
       <r>    1.4090    1.0000 </r>
       <r>    1.4090    1.0000 </r>
       <r>    1.5504    1.0000 </r>
       <r>    1.5504    1.0000 </r>
       <r>    1.8120    1.0000 </r>
       <r>    1.8120    1.0000 </r>
       <r>    1.8550    1.0000 </r>
       <r>    1.8550    1.0000 </r>
       <r>    1.8587    1.0000 </r>
       <r>    1.8587    1.0000 </r>
       <r>    2.1391    1.0000 </r>
       <r>    2.1391    1.0000 </r>
       <r>    2.3284    1.0000 </r>
       <r>    2.3284    1.0000 </r>
       <r>    2.4159    1.0000 </r>
       <r>    2.4159    1.0000 </r>
       <r>    2.8407    0.0000 </r>
       <r>    2.8407    0.0000 </r>
       <r>    3.4053    0.0000 </r>
       <r>    3.4053    0.0000 </r>
       <r>    3.7929    0.0000 </r>
       <r>    3.7929    0.0000 </r>
       <r>    4.5772    0.0000 </r>
       <r>    4.5772    0.0000 </r>
       <r>    5.2968    0.0000 </r>
       <r>    5.2968    0.0000 </r>
       <r>    6.4324    0.0000 </r>
       <r>    6.4324    0.0000 </r>
       <r>    6.5526    0.0000 </r>
       <r>    6.5526    0.0000 </r>
       <r>    7.1258    0.0000 </r>
       <r>    7.1258    0.0000 </r>
       <r>    7.3777    0.0000 </r>
       <r>    7.3777    0.0000 </r>
       <r>    7.4140    0.0000 </r>
       <r>    7.4140    0.0000 </r>
       <r>    7.7170    0.0000 </r>
       <r>    7.7170    0.0000 </r>
       <r>    8.2802    0.0000 </r>
       <r>    8.2802    0.0000 </r>
       <r>    8.6396    0.0000 </r>
       <r>    8.6396    0.0000 </r>
       <r>    8.8321    0.0000 </r>
       <r>    8.8321    0.0000 </r>
       <r>    9.0035    0.0000 </r>
       <r>    9.0035    0.0000 </r>
       <r>    9.0284    0.0000 </r>
       <r>    9.0284    0.0000 </r>
       <r>    9.3867    0.0000 </r>
       <r>    9.3867    0.0000 </r>
       <r>    9.5352    0.0000 </r>
       <r>    9.5352    0.0000 </r>
       <r>    9.9266    0.0000 </r>
       <r>    9.9283    0.0000 </r>
       <r>   10.0171    0.0000 </r>
       <r>   10.0264    0.0000 </r>
       <r>   10.0463    0.0000 </r>
       <r>   10.0697    0.0000 </r>
       <r>   10.0759    0.0000 </r>
       <r>   10.0850    0.0000 </r>
      </set>
      <set comment="kpoint 5">
       <r>  -31.4612    1.0000 </r>
       <r>  -31.4602    1.0000 </r>
       <r>  -31.4483    1.0000 </r>
       <r>  -31.4475    1.0000 </r>
       <r>  -31.3230    1.0000 </r>
       <r>  -31.3227    1.0000 </r>
       <r>  -31.3104    1.0000 </r>
       <r>  -31.3101    1.0000 </r>
       <r>  -14.9746    1.0000 </r>
       <r>  -14.8278    1.0000 </r>
       <r>  -14.7874    1.0000 </r>
       <r>  -14.5668    1.0000 </r>
       <r>  -14.4833    1.0000 </r>
       <r>  -14.4348    1.0000 </r>
       <r>  -14.3907    1.0000 </r>
       <r>  -14.3413    1.0000 </r>
       <r>  -14.2548    1.0000 </r>
       <r>  -14.1689    1.0000 </r>
       <r>  -14.0802    1.0000 </r>
       <r>  -13.9797    1.0000 </r>
       <r>  -13.8207    1.0000 </r>
       <r>  -13.7756    1.0000 </r>
       <r>  -13.7406    1.0000 </r>
       <r>  -13.5851    1.0000 </r>
       <r>  -13.5515    1.0000 </r>
       <r>  -13.5039    1.0000 </r>
       <r>  -13.4671    1.0000 </r>
       <r>  -13.4634    1.0000 </r>
       <r>  -13.4540    1.0000 </r>
       <r>  -13.4041    1.0000 </r>
       <r>  -13.4015    1.0000 </r>
       <r>  -13.2716    1.0000 </r>
       <r>  -13.2636    1.0000 </r>
       <r>  -13.2492    1.0000 </r>
       <r>  -13.2472    1.0000 </r>
       <r>  -13.2211    1.0000 </r>
       <r>  -13.2101    1.0000 </r>
       <r>  -13.1713    1.0000 </r>
       <r>  -13.1450    1.0000 </r>
       <r>  -13.1362    1.0000 </r>
       <r>  -13.0738    1.0000 </r>
       <r>  -13.0564    1.0000 </r>
       <r>  -12.9059    1.0000 </r>
       <r>  -12.8950    1.0000 </r>
       <r>  -12.8563    1.0000 </r>
       <r>  -12.8222    1.0000 </r>
       <r>  -12.6916    1.0000 </r>
       <r>  -12.6880    1.0000 </r>
       <r>   -3.0549    1.0000 </r>
       <r>   -3.0228    1.0000 </r>
       <r>   -2.8694    1.0000 </r>
       <r>   -2.8093    1.0000 </r>
       <r>   -2.5772    1.0000 </r>
       <r>   -2.4200    1.0000 </r>
       <r>   -2.3088    1.0000 </r>
       <r>   -2.2510    1.0000 </r>
       <r>   -1.9442    1.0000 </r>
       <r>   -1.9175    1.0000 </r>
       <r>   -1.8420    1.0000 </r>
       <r>   -1.7799    1.0000 </r>
       <r>   -1.7221    1.0000 </r>
       <r>   -1.7195    1.0000 </r>
       <r>   -1.5570    1.0000 </r>
       <r>   -1.5153    1.0000 </r>
       <r>   -1.4914    1.0000 </r>
       <r>   -1.4762    1.0000 </r>
       <r>   -1.4385    1.0000 </r>
       <r>   -1.3890    1.0000 </r>
       <r>   -1.3206    1.0000 </r>
       <r>   -1.2693    1.0000 </r>
       <r>   -0.8340    1.0000 </r>
       <r>   -0.8193    1.0000 </r>
       <r>   -0.8011    1.0000 </r>
       <r>   -0.7875    1.0000 </r>
       <r>   -0.7720    1.0000 </r>
       <r>   -0.7679    1.0000 </r>
       <r>   -0.7530    1.0000 </r>
       <r>   -0.7517    1.0000 </r>
       <r>   -0.7343    1.0000 </r>
       <r>   -0.7099    1.0000 </r>
       <r>   -0.6619    1.0000 </r>
       <r>   -0.6289    1.0000 </r>
       <r>   -0.5470    1.0000 </r>
       <r>   -0.5285    1.0000 </r>
       <r>   -0.5007    1.0000 </r>
       <r>   -0.4458    1.0000 </r>
       <r>   -0.4304    1.0000 </r>
       <r>   -0.4284    1.0000 </r>
       <r>   -0.4218    1.0000 </r>
       <r>   -0.3895    1.0000 </r>
       <r>   -0.2926    1.0000 </r>
       <r>   -0.2374    1.0000 </r>
       <r>   -0.1481    1.0000 </r>
       <r>   -0.0707    1.0000 </r>
       <r>   -0.0482    1.0000 </r>
       <r>    0.1324    1.0000 </r>
       <r>    0.1340    1.0000 </r>
       <r>    0.3351    1.0000 </r>
       <r>    0.4258    1.0000 </r>
       <r>    0.4585    1.0000 </r>
       <r>    0.4612    1.0000 </r>
       <r>    0.6747    1.0000 </r>
       <r>    0.6940    1.0000 </r>
       <r>    0.8226    1.0000 </r>
       <r>    0.9006    1.0000 </r>
       <r>    1.0069    1.0000 </r>
       <r>    1.0767    1.0000 </r>
       <r>    1.0865    1.0000 </r>
       <r>    1.1501    1.0000 </r>
       <r>    1.1802    1.0000 </r>
       <r>    1.2094    1.0000 </r>
       <r>    1.2203    1.0000 </r>
       <r>    1.3511    1.0000 </r>
       <r>    1.3909    1.0000 </r>
       <r>    1.4141    1.0000 </r>
       <r>    1.4504    1.0000 </r>
       <r>    1.4614    1.0000 </r>
       <r>    1.4827    1.0000 </r>
       <r>    1.5108    1.0000 </r>
       <r>    1.5503    1.0000 </r>
       <r>    1.6918    1.0000 </r>
       <r>    1.7591    1.0000 </r>
       <r>    1.7681    1.0000 </r>
       <r>    1.7844    1.0000 </r>
       <r>    1.8922    1.0000 </r>
       <r>    1.9596    1.0000 </r>
       <r>    2.0003    1.0000 </r>
       <r>    2.0402    1.0000 </r>
       <r>    2.1026    1.0000 </r>
       <r>    2.1297    1.0000 </r>
       <r>    2.2002    1.0000 </r>
       <r>    2.2640    1.0000 </r>
       <r>    2.3930    1.0000 </r>
       <r>    2.7879    0.0000 </r>
       <r>    3.0664    0.0000 </r>
       <r>    3.3148    0.0000 </r>
       <r>    3.5334    0.0000 </r>
       <r>    3.8918    0.0000 </r>
       <r>    4.3785    0.0000 </r>
       <r>    4.8915    0.0000 </r>
       <r>    5.2032    0.0000 </r>
       <r>    5.5451    0.0000 </r>
       <r>    5.5726    0.0000 </r>
       <r>    6.0754    0.0000 </r>
       <r>    6.9080    0.0000 </r>
       <r>    7.1513    0.0000 </r>
       <r>    7.2269    0.0000 </r>
       <r>    7.5710    0.0000 </r>
       <r>    7.6645    0.0000 </r>
       <r>    7.7802    0.0000 </r>
       <r>    8.1256    0.0000 </r>
       <r>    8.1466    0.0000 </r>
       <r>    8.2757    0.0000 </r>
       <r>    8.3078    0.0000 </r>
       <r>    8.3931    0.0000 </r>
       <r>    8.7751    0.0000 </r>
       <r>    8.7902    0.0000 </r>
       <r>    8.8456    0.0000 </r>
       <r>    8.8475    0.0000 </r>
       <r>    8.9205    0.0000 </r>
       <r>    8.9546    0.0000 </r>
       <r>    9.2074    0.0000 </r>
       <r>    9.2596    0.0000 </r>
       <r>    9.4981    0.0000 </r>
       <r>    9.5080    0.0000 </r>
       <r>    9.5297    0.0000 </r>
       <r>    9.7933    0.0000 </r>
       <r>    9.8331    0.0000 </r>
       <r>    9.8821    0.0000 </r>
       <r>    9.9093    0.0000 </r>
       <r>    9.9867    0.0000 </r>
       <r>    9.9992    0.0000 </r>
       <r>   10.1280    0.0000 </r>
       <r>   10.2508    0.0000 </r>
       <r>   10.2584    0.0000 </r>
       <r>   10.3825    0.0000 </r>
      </set>
      <set comment="kpoint 6">
       <r>  -31.4580    1.0000 </r>
       <r>  -31.4571    1.0000 </r>
       <r>  -31.4515    1.0000 </r>
       <r>  -31.4507    1.0000 </r>
       <r>  -31.3198    1.0000 </r>
       <r>  -31.3196    1.0000 </r>
       <r>  -31.3135    1.0000 </r>
       <r>  -31.3133    1.0000 </r>
       <r>  -14.9100    1.0000 </r>
       <r>  -14.8024    1.0000 </r>
       <r>  -14.7592    1.0000 </r>
       <r>  -14.5903    1.0000 </r>
       <r>  -14.5337    1.0000 </r>
       <r>  -14.4737    1.0000 </r>
       <r>  -14.4523    1.0000 </r>
       <r>  -14.3375    1.0000 </r>
       <r>  -14.1693    1.0000 </r>
       <r>  -14.1306    1.0000 </r>
       <r>  -14.0683    1.0000 </r>
       <r>  -13.9061    1.0000 </r>
       <r>  -13.9017    1.0000 </r>
       <r>  -13.8358    1.0000 </r>
       <r>  -13.7320    1.0000 </r>
       <r>  -13.6619    1.0000 </r>
       <r>  -13.5642    1.0000 </r>
       <r>  -13.5600    1.0000 </r>
       <r>  -13.5395    1.0000 </r>
       <r>  -13.5128    1.0000 </r>
       <r>  -13.4083    1.0000 </r>
       <r>  -13.4078    1.0000 </r>
       <r>  -13.3203    1.0000 </r>
       <r>  -13.3117    1.0000 </r>
       <r>  -13.3065    1.0000 </r>
       <r>  -13.2748    1.0000 </r>
       <r>  -13.2218    1.0000 </r>
       <r>  -13.2075    1.0000 </r>
       <r>  -13.1844    1.0000 </r>
       <r>  -13.1607    1.0000 </r>
       <r>  -13.1271    1.0000 </r>
       <r>  -13.0898    1.0000 </r>
       <r>  -12.9915    1.0000 </r>
       <r>  -12.9621    1.0000 </r>
       <r>  -12.9230    1.0000 </r>
       <r>  -12.8899    1.0000 </r>
       <r>  -12.8456    1.0000 </r>
       <r>  -12.8124    1.0000 </r>
       <r>  -12.7663    1.0000 </r>
       <r>  -12.7258    1.0000 </r>
       <r>   -2.7001    1.0000 </r>
       <r>   -2.6902    1.0000 </r>
       <r>   -2.6227    1.0000 </r>
       <r>   -2.5815    1.0000 </r>
       <r>   -2.5161    1.0000 </r>
       <r>   -2.3263    1.0000 </r>
       <r>   -2.2559    1.0000 </r>
       <r>   -2.1772    1.0000 </r>
       <r>   -1.8474    1.0000 </r>
       <r>   -1.8463    1.0000 </r>
       <r>   -1.8071    1.0000 </r>
       <r>   -1.7564    1.0000 </r>
       <r>   -1.7501    1.0000 </r>
       <r>   -1.7475    1.0000 </r>
       <r>   -1.6491    1.0000 </r>
       <r>   -1.6350    1.0000 </r>
       <r>   -1.5544    1.0000 </r>
       <r>   -1.5201    1.0000 </r>
       <r>   -1.5152    1.0000 </r>
       <r>   -1.4987    1.0000 </r>
       <r>   -1.3716    1.0000 </r>
       <r>   -1.3547    1.0000 </r>
       <r>   -1.2753    1.0000 </r>
       <r>   -1.2125    1.0000 </r>
       <r>   -1.2042    1.0000 </r>
       <r>   -1.1638    1.0000 </r>
       <r>   -1.0119    1.0000 </r>
       <r>   -0.9462    1.0000 </r>
       <r>   -0.9315    1.0000 </r>
       <r>   -0.9115    1.0000 </r>
       <r>   -0.8466    1.0000 </r>
       <r>   -0.8368    1.0000 </r>
       <r>   -0.8272    1.0000 </r>
       <r>   -0.8181    1.0000 </r>
       <r>   -0.7628    1.0000 </r>
       <r>   -0.7516    1.0000 </r>
       <r>   -0.7306    1.0000 </r>
       <r>   -0.7062    1.0000 </r>
       <r>   -0.4267    1.0000 </r>
       <r>   -0.4237    1.0000 </r>
       <r>   -0.4177    1.0000 </r>
       <r>   -0.4128    1.0000 </r>
       <r>   -0.0355    1.0000 </r>
       <r>    0.0228    1.0000 </r>
       <r>    0.0951    1.0000 </r>
       <r>    0.1663    1.0000 </r>
       <r>    0.1675    1.0000 </r>
       <r>    0.2470    1.0000 </r>
       <r>    0.3938    1.0000 </r>
       <r>    0.5899    1.0000 </r>
       <r>    0.6539    1.0000 </r>
       <r>    0.6607    1.0000 </r>
       <r>    0.7372    1.0000 </r>
       <r>    0.7642    1.0000 </r>
       <r>    0.8101    1.0000 </r>
       <r>    0.8878    1.0000 </r>
       <r>    0.9663    1.0000 </r>
       <r>    1.0416    1.0000 </r>
       <r>    1.0554    1.0000 </r>
       <r>    1.1427    1.0000 </r>
       <r>    1.1442    1.0000 </r>
       <r>    1.1852    1.0000 </r>
       <r>    1.2439    1.0000 </r>
       <r>    1.2839    1.0000 </r>
       <r>    1.2958    1.0000 </r>
       <r>    1.2988    1.0000 </r>
       <r>    1.4033    1.0000 </r>
       <r>    1.4106    1.0000 </r>
       <r>    1.4167    1.0000 </r>
       <r>    1.4203    1.0000 </r>
       <r>    1.4909    1.0000 </r>
       <r>    1.5359    1.0000 </r>
       <r>    1.5449    1.0000 </r>
       <r>    1.6027    1.0000 </r>
       <r>    1.8485    1.0000 </r>
       <r>    1.8799    1.0000 </r>
       <r>    1.9212    1.0000 </r>
       <r>    1.9480    1.0000 </r>
       <r>    2.0060    1.0000 </r>
       <r>    2.0245    1.0000 </r>
       <r>    2.2567    1.0000 </r>
       <r>    2.2668    1.0000 </r>
       <r>    2.3221    1.0000 </r>
       <r>    2.4566    1.0000 </r>
       <r>    2.4758    1.0000 </r>
       <r>    2.7834    0.0000 </r>
       <r>    3.2117    0.0000 </r>
       <r>    3.4623    0.0000 </r>
       <r>    3.6400    0.0000 </r>
       <r>    4.2029    0.0000 </r>
       <r>    4.2226    0.0000 </r>
       <r>    4.8451    0.0000 </r>
       <r>    4.9875    0.0000 </r>
       <r>    5.0529    0.0000 </r>
       <r>    5.8080    0.0000 </r>
       <r>    6.0857    0.0000 </r>
       <r>    7.0647    0.0000 </r>
       <r>    7.1643    0.0000 </r>
       <r>    7.3324    0.0000 </r>
       <r>    7.4100    0.0000 </r>
       <r>    7.5754    0.0000 </r>
       <r>    7.6284    0.0000 </r>
       <r>    7.8027    0.0000 </r>
       <r>    8.1282    0.0000 </r>
       <r>    8.1835    0.0000 </r>
       <r>    8.2447    0.0000 </r>
       <r>    8.2990    0.0000 </r>
       <r>    8.4812    0.0000 </r>
       <r>    8.8224    0.0000 </r>
       <r>    8.8761    0.0000 </r>
       <r>    8.9423    0.0000 </r>
       <r>    8.9653    0.0000 </r>
       <r>    9.1151    0.0000 </r>
       <r>    9.2839    0.0000 </r>
       <r>    9.3001    0.0000 </r>
       <r>    9.3663    0.0000 </r>
       <r>    9.3920    0.0000 </r>
       <r>    9.5825    0.0000 </r>
       <r>    9.7475    0.0000 </r>
       <r>    9.8332    0.0000 </r>
       <r>    9.9124    0.0000 </r>
       <r>    9.9173    0.0000 </r>
       <r>    9.9274    0.0000 </r>
       <r>   10.0373    0.0000 </r>
       <r>   10.0708    0.0000 </r>
       <r>   10.1507    0.0000 </r>
       <r>   10.1772    0.0000 </r>
       <r>   10.2050    0.0000 </r>
      </set>
      <set comment="kpoint 7">
       <r>  -31.4607    1.0000 </r>
       <r>  -31.4607    1.0000 </r>
       <r>  -31.4479    1.0000 </r>
       <r>  -31.4479    1.0000 </r>
       <r>  -31.3229    1.0000 </r>
       <r>  -31.3229    1.0000 </r>
       <r>  -31.3102    1.0000 </r>
       <r>  -31.3102    1.0000 </r>
       <r>  -14.8861    1.0000 </r>
       <r>  -14.8861    1.0000 </r>
       <r>  -14.7290    1.0000 </r>
       <r>  -14.7290    1.0000 </r>
       <r>  -14.3828    1.0000 </r>
       <r>  -14.3828    1.0000 </r>
       <r>  -14.3458    1.0000 </r>
       <r>  -14.3458    1.0000 </r>
       <r>  -14.3211    1.0000 </r>
       <r>  -14.3211    1.0000 </r>
       <r>  -13.9820    1.0000 </r>
       <r>  -13.9820    1.0000 </r>
       <r>  -13.8891    1.0000 </r>
       <r>  -13.8891    1.0000 </r>
       <r>  -13.6216    1.0000 </r>
       <r>  -13.6216    1.0000 </r>
       <r>  -13.4660    1.0000 </r>
       <r>  -13.4660    1.0000 </r>
       <r>  -13.4332    1.0000 </r>
       <r>  -13.4332    1.0000 </r>
       <r>  -13.4067    1.0000 </r>
       <r>  -13.4067    1.0000 </r>
       <r>  -13.3103    1.0000 </r>
       <r>  -13.3103    1.0000 </r>
       <r>  -13.3078    1.0000 </r>
       <r>  -13.3078    1.0000 </r>
       <r>  -13.2768    1.0000 </r>
       <r>  -13.2768    1.0000 </r>
       <r>  -13.2241    1.0000 </r>
       <r>  -13.2241    1.0000 </r>
       <r>  -13.0392    1.0000 </r>
       <r>  -13.0392    1.0000 </r>
       <r>  -13.0258    1.0000 </r>
       <r>  -13.0258    1.0000 </r>
       <r>  -12.9644    1.0000 </r>
       <r>  -12.9644    1.0000 </r>
       <r>  -12.8778    1.0000 </r>
       <r>  -12.8778    1.0000 </r>
       <r>  -12.6927    1.0000 </r>
       <r>  -12.6927    1.0000 </r>
       <r>   -3.0386    1.0000 </r>
       <r>   -3.0386    1.0000 </r>
       <r>   -2.8459    1.0000 </r>
       <r>   -2.8459    1.0000 </r>
       <r>   -2.4987    1.0000 </r>
       <r>   -2.4987    1.0000 </r>
       <r>   -2.2745    1.0000 </r>
       <r>   -2.2745    1.0000 </r>
       <r>   -1.8785    1.0000 </r>
       <r>   -1.8785    1.0000 </r>
       <r>   -1.7887    1.0000 </r>
       <r>   -1.7887    1.0000 </r>
       <r>   -1.7844    1.0000 </r>
       <r>   -1.7844    1.0000 </r>
       <r>   -1.5291    1.0000 </r>
       <r>   -1.5291    1.0000 </r>
       <r>   -1.4771    1.0000 </r>
       <r>   -1.4771    1.0000 </r>
       <r>   -1.4564    1.0000 </r>
       <r>   -1.4564    1.0000 </r>
       <r>   -1.2608    1.0000 </r>
       <r>   -1.2608    1.0000 </r>
       <r>   -0.8341    1.0000 </r>
       <r>   -0.8341    1.0000 </r>
       <r>   -0.7795    1.0000 </r>
       <r>   -0.7795    1.0000 </r>
       <r>   -0.7749    1.0000 </r>
       <r>   -0.7749    1.0000 </r>
       <r>   -0.7637    1.0000 </r>
       <r>   -0.7637    1.0000 </r>
       <r>   -0.7296    1.0000 </r>
       <r>   -0.7296    1.0000 </r>
       <r>   -0.6227    1.0000 </r>
       <r>   -0.6227    1.0000 </r>
       <r>   -0.5649    1.0000 </r>
       <r>   -0.5649    1.0000 </r>
       <r>   -0.4513    1.0000 </r>
       <r>   -0.4513    1.0000 </r>
       <r>   -0.4317    1.0000 </r>
       <r>   -0.4317    1.0000 </r>
       <r>   -0.4260    1.0000 </r>
       <r>   -0.4260    1.0000 </r>
       <r>   -0.2896    1.0000 </r>
       <r>   -0.2896    1.0000 </r>
       <r>   -0.0054    1.0000 </r>
       <r>   -0.0054    1.0000 </r>
       <r>    0.0575    1.0000 </r>
       <r>    0.0575    1.0000 </r>
       <r>    0.1747    1.0000 </r>
       <r>    0.1747    1.0000 </r>
       <r>    0.3932    1.0000 </r>
       <r>    0.3932    1.0000 </r>
       <r>    0.5555    1.0000 </r>
       <r>    0.5555    1.0000 </r>
       <r>    0.7765    1.0000 </r>
       <r>    0.7765    1.0000 </r>
       <r>    0.9650    1.0000 </r>
       <r>    0.9650    1.0000 </r>
       <r>    1.1099    1.0000 </r>
       <r>    1.1099    1.0000 </r>
       <r>    1.1261    1.0000 </r>
       <r>    1.1261    1.0000 </r>
       <r>    1.2343    1.0000 </r>
       <r>    1.2343    1.0000 </r>
       <r>    1.2724    1.0000 </r>
       <r>    1.2724    1.0000 </r>
       <r>    1.4568    1.0000 </r>
       <r>    1.4568    1.0000 </r>
       <r>    1.4781    1.0000 </r>
       <r>    1.4781    1.0000 </r>
       <r>    1.6302    1.0000 </r>
       <r>    1.6302    1.0000 </r>
       <r>    1.6436    1.0000 </r>
       <r>    1.6436    1.0000 </r>
       <r>    1.8992    1.0000 </r>
       <r>    1.8992    1.0000 </r>
       <r>    1.9613    1.0000 </r>
       <r>    1.9613    1.0000 </r>
       <r>    2.0206    1.0000 </r>
       <r>    2.0206    1.0000 </r>
       <r>    2.0219    1.0000 </r>
       <r>    2.0219    1.0000 </r>
       <r>    2.2503    1.0000 </r>
       <r>    2.2503    1.0000 </r>
       <r>    2.4634    1.0000 </r>
       <r>    2.4634    1.0000 </r>
       <r>    3.2848    0.0000 </r>
       <r>    3.2848    0.0000 </r>
       <r>    3.5834    0.0000 </r>
       <r>    3.5834    0.0000 </r>
       <r>    4.8624    0.0000 </r>
       <r>    4.8624    0.0000 </r>
       <r>    5.2280    0.0000 </r>
       <r>    5.2280    0.0000 </r>
       <r>    5.6883    0.0000 </r>
       <r>    5.6883    0.0000 </r>
       <r>    7.2944    0.0000 </r>
       <r>    7.2944    0.0000 </r>
       <r>    7.5289    0.0000 </r>
       <r>    7.5289    0.0000 </r>
       <r>    7.8191    0.0000 </r>
       <r>    7.8191    0.0000 </r>
       <r>    8.0295    0.0000 </r>
       <r>    8.0295    0.0000 </r>
       <r>    8.0343    0.0000 </r>
       <r>    8.0343    0.0000 </r>
       <r>    8.6502    0.0000 </r>
       <r>    8.6502    0.0000 </r>
       <r>    8.8870    0.0000 </r>
       <r>    8.8870    0.0000 </r>
       <r>    8.9062    0.0000 </r>
       <r>    8.9062    0.0000 </r>
       <r>    9.2525    0.0000 </r>
       <r>    9.2525    0.0000 </r>
       <r>    9.2871    0.0000 </r>
       <r>    9.2871    0.0000 </r>
       <r>    9.5922    0.0000 </r>
       <r>    9.5922    0.0000 </r>
       <r>    9.6422    0.0000 </r>
       <r>    9.6422    0.0000 </r>
       <r>    9.7872    0.0000 </r>
       <r>    9.7872    0.0000 </r>
       <r>    9.9820    0.0000 </r>
       <r>    9.9820    0.0000 </r>
       <r>   10.1627    0.0000 </r>
       <r>   10.1633    0.0000 </r>
       <r>   10.3826    0.0000 </r>
       <r>   10.3887    0.0000 </r>
      </set>
      <set comment="kpoint 8">
       <r>  -31.4575    1.0000 </r>
       <r>  -31.4575    1.0000 </r>
       <r>  -31.4511    1.0000 </r>
       <r>  -31.4511    1.0000 </r>
       <r>  -31.3197    1.0000 </r>
       <r>  -31.3197    1.0000 </r>
       <r>  -31.3134    1.0000 </r>
       <r>  -31.3134    1.0000 </r>
       <r>  -14.8504    1.0000 </r>
       <r>  -14.8504    1.0000 </r>
       <r>  -14.6652    1.0000 </r>
       <r>  -14.6652    1.0000 </r>
       <r>  -14.4809    1.0000 </r>
       <r>  -14.4809    1.0000 </r>
       <r>  -14.4525    1.0000 </r>
       <r>  -14.4525    1.0000 </r>
       <r>  -14.1976    1.0000 </r>
       <r>  -14.1976    1.0000 </r>
       <r>  -13.9793    1.0000 </r>
       <r>  -13.9793    1.0000 </r>
       <r>  -13.8929    1.0000 </r>
       <r>  -13.8929    1.0000 </r>
       <r>  -13.6013    1.0000 </r>
       <r>  -13.6013    1.0000 </r>
       <r>  -13.5643    1.0000 </r>
       <r>  -13.5643    1.0000 </r>
       <r>  -13.4670    1.0000 </r>
       <r>  -13.4670    1.0000 </r>
       <r>  -13.4122    1.0000 </r>
       <r>  -13.4122    1.0000 </r>
       <r>  -13.3426    1.0000 </r>
       <r>  -13.3426    1.0000 </r>
       <r>  -13.2703    1.0000 </r>
       <r>  -13.2703    1.0000 </r>
       <r>  -13.2556    1.0000 </r>
       <r>  -13.2556    1.0000 </r>
       <r>  -13.1989    1.0000 </r>
       <r>  -13.1989    1.0000 </r>
       <r>  -13.0501    1.0000 </r>
       <r>  -13.0501    1.0000 </r>
       <r>  -12.9660    1.0000 </r>
       <r>  -12.9660    1.0000 </r>
       <r>  -12.9159    1.0000 </r>
       <r>  -12.9159    1.0000 </r>
       <r>  -12.8799    1.0000 </r>
       <r>  -12.8799    1.0000 </r>
       <r>  -12.7475    1.0000 </r>
       <r>  -12.7475    1.0000 </r>
       <r>   -2.6891    1.0000 </r>
       <r>   -2.6891    1.0000 </r>
[...]
       <r>     5.0936     4.9210   140.8980 </r>
       <r>     5.2476     4.1430   141.5360 </r>
       <r>     5.4016     2.5190   141.9240 </r>
       <r>     5.5556     2.5968   142.3239 </r>
       <r>     5.7096     1.9341   142.6218 </r>
       <r>     5.8636     3.0633   143.0935 </r>
       <r>     6.0177     1.2146   143.2806 </r>
       <r>     6.1717     1.8195   143.5608 </r>
       <r>     6.3257     1.7318   143.8276 </r>
       <r>     6.4797     1.3135   144.0299 </r>
       <r>     6.6337     1.6121   144.2781 </r>
       <r>     6.7877     1.5077   144.5103 </r>
       <r>     6.9417     1.1261   144.6838 </r>
       <r>     7.0957     2.5632   145.0785 </r>
       <r>     7.2497     4.5272   145.7758 </r>
       <r>     7.4038     6.6810   146.8047 </r>
       <r>     7.5578     7.0250   147.8866 </r>
       <r>     7.7118     8.2100   149.1511 </r>
       <r>     7.8658     5.6248   150.0173 </r>
       <r>     8.0198     6.0630   150.9511 </r>
       <r>     8.1738     7.4330   152.0959 </r>
       <r>     8.3278     8.9002   153.4666 </r>
       <r>     8.4818     8.8809   154.8344 </r>
       <r>     8.6358     9.6371   156.3186 </r>
       <r>     8.7898     4.3237   156.9845 </r>
       <r>     8.9439    12.6364   158.9306 </r>
       <r>     9.0979     9.1759   160.3438 </r>
       <r>     9.2519     9.5607   161.8162 </r>
       <r>     9.4059    12.5499   163.7491 </r>
       <r>     9.5599    10.0182   165.2920 </r>
       <r>     9.7139    14.4100   167.5113 </r>
       <r>     9.8679    11.6442   169.3046 </r>
       <r>    10.0219    17.1889   171.9519 </r>
       <r>    10.1759    14.8188   174.2341 </r>
       <r>    10.3300     7.2015   175.3432 </r>
       <r>    10.4840     3.6296   175.9022 </r>
       <r>    10.6380     0.6347   176.0000 </r>
       <r>    10.7920     0.0001   176.0000 </r>
       <r>    10.9460     0.0000   176.0000 </r>
       <r>    11.1000     0.0000   176.0000 </r>
       <r>    11.2540     0.0000   176.0000 </r>
       <r>    11.4080     0.0000   176.0000 </r>
       <r>    11.5620     0.0000   176.0000 </r>
       <r>    11.7160     0.0000   176.0000 </r>
       <r>    11.8701     0.0000   176.0000 </r>
       <r>    12.0241     0.0000   176.0000 </r>
       <r>    12.1781     0.0000   176.0000 </r>
       <r>    12.3321     0.0000   176.0000 </r>
       <r>    12.4861     0.0000   176.0000 </r>
       <r>    12.6401     0.0000   176.0000 </r>
      </set>
      <set comment="spin 2">
       <r>   -33.5631     0.0000     0.0000 </r>
       <r>   -33.4091     0.0000     0.0000 </r>
       <r>   -33.2551     0.0000     0.0000 </r>
       <r>   -33.1011     0.0000     0.0000 </r>
       <r>   -32.9470     0.0000     0.0000 </r>
       <r>   -32.7930     0.0000     0.0000 </r>
       <r>   -32.6390     0.0000     0.0000 </r>
       <r>   -32.4850     0.0000     0.0000 </r>
       <r>   -32.3310     0.0000     0.0000 </r>
       <r>   -32.1770     0.0000     0.0000 </r>
       <r>   -32.0230     0.0000     0.0000 </r>
       <r>   -31.8690     0.0000     0.0000 </r>
       <r>   -31.7150     0.0000     0.0000 </r>
       <r>   -31.5609     0.0395     0.0061 </r>
       <r>   -31.4069    23.8330     3.6766 </r>
       <r>   -31.2529    27.2192     7.8687 </r>
       <r>   -31.0989     0.8528     8.0000 </r>
       <r>   -30.9449     0.0000     8.0000 </r>
       <r>   -30.7909     0.0000     8.0000 </r>
       <r>   -30.6369     0.0000     8.0000 </r>
       <r>   -30.4829     0.0000     8.0000 </r>
       <r>   -30.3289     0.0000     8.0000 </r>
       <r>   -30.1748     0.0000     8.0000 </r>
       <r>   -30.0208     0.0000     8.0000 </r>
       <r>   -29.8668     0.0000     8.0000 </r>
       <r>   -29.7128     0.0000     8.0000 </r>
       <r>   -29.5588     0.0000     8.0000 </r>
       <r>   -29.4048     0.0000     8.0000 </r>
       <r>   -29.2508     0.0000     8.0000 </r>
       <r>   -29.0968     0.0000     8.0000 </r>
       <r>   -28.9428     0.0000     8.0000 </r>
       <r>   -28.7888     0.0000     8.0000 </r>
       <r>   -28.6347     0.0000     8.0000 </r>
       <r>   -28.4807     0.0000     8.0000 </r>
       <r>   -28.3267     0.0000     8.0000 </r>
       <r>   -28.1727     0.0000     8.0000 </r>
       <r>   -28.0187     0.0000     8.0000 </r>
       <r>   -27.8647     0.0000     8.0000 </r>
       <r>   -27.7107     0.0000     8.0000 </r>
       <r>   -27.5567     0.0000     8.0000 </r>
       <r>   -27.4027     0.0000     8.0000 </r>
       <r>   -27.2486     0.0000     8.0000 </r>
       <r>   -27.0946     0.0000     8.0000 </r>
       <r>   -26.9406     0.0000     8.0000 </r>
       <r>   -26.7866     0.0000     8.0000 </r>
       <r>   -26.6326     0.0000     8.0000 </r>
       <r>   -26.4786     0.0000     8.0000 </r>
       <r>   -26.3246     0.0000     8.0000 </r>
       <r>   -26.1706     0.0000     8.0000 </r>
       <r>   -26.0166     0.0000     8.0000 </r>
       <r>   -25.8626     0.0000     8.0000 </r>
       <r>   -25.7085     0.0000     8.0000 </r>
       <r>   -25.5545     0.0000     8.0000 </r>
       <r>   -25.4005     0.0000     8.0000 </r>
       <r>   -25.2465     0.0000     8.0000 </r>
       <r>   -25.0925     0.0000     8.0000 </r>
       <r>   -24.9385     0.0000     8.0000 </r>
       <r>   -24.7845     0.0000     8.0000 </r>
       <r>   -24.6305     0.0000     8.0000 </r>
       <r>   -24.4765     0.0000     8.0000 </r>
       <r>   -24.3224     0.0000     8.0000 </r>
       <r>   -24.1684     0.0000     8.0000 </r>
       <r>   -24.0144     0.0000     8.0000 </r>
       <r>   -23.8604     0.0000     8.0000 </r>
       <r>   -23.7064     0.0000     8.0000 </r>
       <r>   -23.5524     0.0000     8.0000 </r>
       <r>   -23.3984     0.0000     8.0000 </r>
       <r>   -23.2444     0.0000     8.0000 </r>
       <r>   -23.0904     0.0000     8.0000 </r>
       <r>   -22.9363     0.0000     8.0000 </r>
       <r>   -22.7823     0.0000     8.0000 </r>
       <r>   -22.6283     0.0000     8.0000 </r>
       <r>   -22.4743     0.0000     8.0000 </r>
       <r>   -22.3203     0.0000     8.0000 </r>
       <r>   -22.1663     0.0000     8.0000 </r>
       <r>   -22.0123     0.0000     8.0000 </r>
       <r>   -21.8583     0.0000     8.0000 </r>
       <r>   -21.7043     0.0000     8.0000 </r>
       <r>   -21.5503     0.0000     8.0000 </r>
       <r>   -21.3962     0.0000     8.0000 </r>
       <r>   -21.2422     0.0000     8.0000 </r>
       <r>   -21.0882     0.0000     8.0000 </r>
       <r>   -20.9342     0.0000     8.0000 </r>
       <r>   -20.7802     0.0000     8.0000 </r>
       <r>   -20.6262     0.0000     8.0000 </r>
       <r>   -20.4722     0.0000     8.0000 </r>
       <r>   -20.3182     0.0000     8.0000 </r>
       <r>   -20.1642     0.0000     8.0000 </r>
       <r>   -20.0101     0.0000     8.0000 </r>
       <r>   -19.8561     0.0000     8.0000 </r>
       <r>   -19.7021     0.0000     8.0000 </r>
       <r>   -19.5481     0.0000     8.0000 </r>
       <r>   -19.3941     0.0000     8.0000 </r>
       <r>   -19.2401     0.0000     8.0000 </r>
       <r>   -19.0861     0.0000     8.0000 </r>
       <r>   -18.9321     0.0000     8.0000 </r>
       <r>   -18.7781     0.0000     8.0000 </r>
       <r>   -18.6240     0.0000     8.0000 </r>
       <r>   -18.4700     0.0000     8.0000 </r>
       <r>   -18.3160     0.0000     8.0000 </r>
       <r>   -18.1620     0.0000     8.0000 </r>
       <r>   -18.0080     0.0000     8.0000 </r>
       <r>   -17.8540     0.0000     8.0000 </r>
       <r>   -17.7000     0.0000     8.0000 </r>
       <r>   -17.5460     0.0000     8.0000 </r>
       <r>   -17.3920     0.0000     8.0000 </r>
       <r>   -17.2380     0.0000     8.0000 </r>
       <r>   -17.0839     0.0000     8.0000 </r>
       <r>   -16.9299     0.0000     8.0000 </r>
       <r>   -16.7759     0.0000     8.0000 </r>
       <r>   -16.6219     0.0000     8.0000 </r>
       <r>   -16.4679     0.0000     8.0000 </r>
       <r>   -16.3139     0.0000     8.0000 </r>
       <r>   -16.1599     0.0000     8.0000 </r>
       <r>   -16.0059     0.0000     8.0000 </r>
       <r>   -15.8519     0.0000     8.0000 </r>
       <r>   -15.6978     0.0000     8.0000 </r>
       <r>   -15.5438     0.0000     8.0000 </r>
       <r>   -15.3898     0.0000     8.0000 </r>
       <r>   -15.2358     0.0000     8.0000 </r>
       <r>   -15.0818     0.0000     8.0000 </r>
       <r>   -14.9278     0.1139     8.0175 </r>
       <r>   -14.7738     5.0795     8.7998 </r>
       <r>   -14.6198    13.8371    10.9309 </r>
       <r>   -14.4658     9.7012    12.4250 </r>
       <r>   -14.3118    12.6461    14.3726 </r>
       <r>   -14.1577    11.1630    16.0918 </r>
       <r>   -14.0037    11.9372    17.9303 </r>
       <r>   -13.8497    11.9673    19.7734 </r>
       <r>   -13.6957    11.8671    21.6011 </r>
       <r>   -13.5417    16.6119    24.1595 </r>
       <r>   -13.3877    32.9550    29.2349 </r>
       <r>   -13.2337    30.8400    33.9846 </r>
       <r>   -13.0797    27.4265    38.2085 </r>
       <r>   -12.9257    20.4290    41.3548 </r>
       <r>   -12.7716    24.9530    45.1979 </r>
       <r>   -12.6176    15.0123    47.5099 </r>
       <r>   -12.4636     3.1814    47.9999 </r>
       <r>   -12.3096     0.0007    48.0000 </r>
       <r>   -12.1556     0.0000    48.0000 </r>
       <r>   -12.0016     0.0000    48.0000 </r>
       <r>   -11.8476     0.0000    48.0000 </r>
       <r>   -11.6936     0.0000    48.0000 </r>
       <r>   -11.5396     0.0000    48.0000 </r>
       <r>   -11.3855     0.0000    48.0000 </r>
       <r>   -11.2315     0.0000    48.0000 </r>
       <r>   -11.0775     0.0000    48.0000 </r>
       <r>   -10.9235     0.0000    48.0000 </r>
       <r>   -10.7695     0.0000    48.0000 </r>
       <r>   -10.6155     0.0000    48.0000 </r>
       <r>   -10.4615     0.0000    48.0000 </r>
       <r>   -10.3075     0.0000    48.0000 </r>
       <r>   -10.1535     0.0000    48.0000 </r>
       <r>    -9.9995     0.0000    48.0000 </r>
       <r>    -9.8454     0.0000    48.0000 </r>
       <r>    -9.6914     0.0000    48.0000 </r>
       <r>    -9.5374     0.0000    48.0000 </r>
       <r>    -9.3834     0.0000    48.0000 </r>
       <r>    -9.2294     0.0000    48.0000 </r>
       <r>    -9.0754     0.0000    48.0000 </r>
       <r>    -8.9214     0.0000    48.0000 </r>
       <r>    -8.7674     0.0000    48.0000 </r>
       <r>    -8.6134     0.0000    48.0000 </r>
       <r>    -8.4593     0.0000    48.0000 </r>
       <r>    -8.3053     0.0000    48.0000 </r>
       <r>    -8.1513     0.0000    48.0000 </r>
       <r>    -7.9973     0.0000    48.0000 </r>
       <r>    -7.8433     0.0000    48.0000 </r>
       <r>    -7.6893     0.0000    48.0000 </r>
       <r>    -7.5353     0.0000    48.0000 </r>
       <r>    -7.3813     0.0000    48.0000 </r>
       <r>    -7.2273     0.0000    48.0000 </r>
       <r>    -7.0733     0.0000    48.0000 </r>
       <r>    -6.9192     0.0000    48.0000 </r>
       <r>    -6.7652     0.0000    48.0000 </r>
       <r>    -6.6112     0.0000    48.0000 </r>
       <r>    -6.4572     0.0000    48.0000 </r>
       <r>    -6.3032     0.0000    48.0000 </r>
       <r>    -6.1492     0.0000    48.0000 </r>
       <r>    -5.9952     0.0000    48.0000 </r>
       <r>    -5.8412     0.0000    48.0000 </r>
       <r>    -5.6872     0.0000    48.0000 </r>
       <r>    -5.5331     0.0000    48.0000 </r>
       <r>    -5.3791     0.0000    48.0000 </r>
       <r>    -5.2251     0.0000    48.0000 </r>
       <r>    -5.0711     0.0000    48.0000 </r>
       <r>    -4.9171     0.0000    48.0000 </r>
       <r>    -4.7631     0.0000    48.0000 </r>
       <r>    -4.6091     0.0000    48.0000 </r>
       <r>    -4.4551     0.0000    48.0000 </r>
       <r>    -4.3011     0.0000    48.0000 </r>
       <r>    -4.1470     0.0000    48.0000 </r>
       <r>    -3.9930     0.0000    48.0000 </r>
       <r>    -3.8390     0.0000    48.0000 </r>
       <r>    -3.6850     0.0000    48.0000 </r>
       <r>    -3.5310     0.0000    48.0000 </r>
       <r>    -3.3770     0.0000    48.0000 </r>
       <r>    -3.2230     0.0000    48.0000 </r>
       <r>    -3.0690     0.0000    48.0000 </r>
       <r>    -2.9150     0.0216    48.0033 </r>
       <r>    -2.7610     2.5336    48.3935 </r>
       <r>    -2.6069     5.0049    49.1643 </r>
       <r>    -2.4529     5.8983    50.0727 </r>
       <r>    -2.2989     8.4071    51.3675 </r>
       <r>    -2.1449     4.0974    51.9986 </r>
       <r>    -1.9909     2.1983    52.3371 </r>
       <r>    -1.8369    24.5970    56.1253 </r>
       <r>    -1.6829    13.7388    58.2412 </r>
       <r>    -1.5289    18.3828    61.0724 </r>
       <r>    -1.3749    12.9819    63.0717 </r>
       <r>    -1.2208    35.8695    68.5960 </r>
       <r>    -1.0668    21.6334    71.9278 </r>
       <r>    -0.9128    10.8738    73.6025 </r>
       <r>    -0.7588    23.8464    77.2751 </r>
       <r>    -0.6048    36.5292    82.9010 </r>
       <r>    -0.4508    20.9034    86.1203 </r>
       <r>    -0.2968    24.3887    89.8765 </r>
       <r>    -0.1428     5.1086    90.6632 </r>
       <r>     0.0112     6.8501    91.7182 </r>
       <r>     0.1653     5.4133    92.5519 </r>
       <r>     0.3193     8.9038    93.9232 </r>
       <r>     0.4733    12.2369    95.8078 </r>
       <r>     0.6273    14.1452    97.9863 </r>
       <r>     0.7813    13.1491   100.0114 </r>
       <r>     0.9353    12.4314   101.9260 </r>
       <r>     1.0893    13.7997   104.0513 </r>
       <r>     1.2433    20.8035   107.2552 </r>
       <r>     1.3973    29.4512   111.7911 </r>
       <r>     1.5513    27.9886   116.1016 </r>
       <r>     1.7054    21.3604   119.3913 </r>
       <r>     1.8594    12.8802   121.3750 </r>
       <r>     2.0134    16.9387   123.9837 </r>
       <r>     2.1674    16.8656   126.5812 </r>
       <r>     2.3214    12.8338   128.5578 </r>
       <r>     2.4754     6.7641   129.5995 </r>
       <r>     2.6294     7.5225   130.7581 </r>
       <r>     2.7834     8.6911   132.0966 </r>
       <r>     2.9374     2.8999   132.5432 </r>
       <r>     3.0915     3.6122   133.0995 </r>
       <r>     3.2455     4.2931   133.7607 </r>
       <r>     3.3995     2.2063   134.1005 </r>
       <r>     3.5535     4.9166   134.8577 </r>
       <r>     3.7075     3.0997   135.3351 </r>
       <r>     3.8615     9.9025   136.8602 </r>
       <r>     4.0155     5.1817   137.6582 </r>
       <r>     4.1695     0.3659   137.7146 </r>
       <r>     4.3235     2.6559   138.1236 </r>
       <r>     4.4775     0.9478   138.2696 </r>
       <r>     4.6316     1.2506   138.4622 </r>
       <r>     4.7856     4.4987   139.1550 </r>
       <r>     4.9396     4.0839   139.7840 </r>
       <r>     5.0936     4.4679   140.4721 </r>
       <r>     5.2476     4.1813   141.1160 </r>
       <r>     5.4016     3.6604   141.6798 </r>
       <r>     5.5556     2.8171   142.1136 </r>
       <r>     5.7096     2.9705   142.5711 </r>
       <r>     5.8636     2.4347   142.9461 </r>
       <r>     6.0177     1.9727   143.2499 </r>
       <r>     6.1717     1.8066   143.5281 </r>
       <r>     6.3257     1.7112   143.7917 </r>
       <r>     6.4797     1.3739   144.0033 </r>
       <r>     6.6337     1.5591   144.2434 </r>
       <r>     6.7877     1.5972   144.4894 </r>
       <r>     6.9417     0.8967   144.6275 </r>
       <r>     7.0957     2.5803   145.0249 </r>
       <r>     7.2497     4.3143   145.6893 </r>
       <r>     7.4038     6.6330   146.7109 </r>
       <r>     7.5578     6.8720   147.7693 </r>
       <r>     7.7118     7.7962   148.9700 </r>
       <r>     7.8658     6.3148   149.9425 </r>
       <r>     8.0198     5.8290   150.8402 </r>
       <r>     8.1738     7.2453   151.9561 </r>
       <r>     8.3278     9.2932   153.3873 </r>
       <r>     8.4818     8.5143   154.6986 </r>
       <r>     8.6358     9.5797   156.1740 </r>
       <r>     8.7898     4.7131   156.8999 </r>
       <r>     8.9439    11.7499   158.7095 </r>
       <r>     9.0979    10.1378   160.2708 </r>
       <r>     9.2519     8.3848   161.5622 </r>
       <r>     9.4059    12.3943   163.4710 </r>
       <r>     9.5599    10.1119   165.0284 </r>
       <r>     9.7139    14.2928   167.2296 </r>
       <r>     9.8679    12.4777   169.1513 </r>
       <r>    10.0219    16.4569   171.6858 </r>
       <r>    10.1759    15.3890   174.0559 </r>
       <r>    10.3300     7.7998   175.2572 </r>
       <r>    10.4840     3.9746   175.8693 </r>
       <r>    10.6380     0.8480   175.9999 </r>
       <r>    10.7920     0.0008   176.0000 </r>
       <r>    10.9460     0.0000   176.0000 </r>
       <r>    11.1000     0.0000   176.0000 </r>
       <r>    11.2540     0.0000   176.0000 </r>
       <r>    11.4080     0.0000   176.0000 </r>
       <r>    11.5620     0.0000   176.0000 </r>
       <r>    11.7160     0.0000   176.0000 </r>
       <r>    11.8701     0.0000   176.0000 </r>
       <r>    12.0241     0.0000   176.0000 </r>
       <r>    12.1781     0.0000   176.0000 </r>
       <r>    12.3321     0.0000   176.0000 </r>
       <r>    12.4861     0.0000   176.0000 </r>
       <r>    12.6401     0.0000   176.0000 </r>
      </set>
     </set>
    </array>
   </total>
  </dos>
 </calculation>
 <structure name="finalpos" >
  <crystal>
   <varray name="basis" >
    <v>       8.00000000       0.00000000       0.00000000 </v>
    <v>       0.00000000      11.31370850       0.00000000 </v>
    <v>       0.00000000       0.00000000       5.65685425 </v>
   </varray>
   <i name="volume">    512.00000000 </i>
   <varray name="rec_basis" >
    <v>       0.12500000       0.00000000       0.00000000 </v>
    <v>       0.00000000       0.08838835       0.00000000 </v>
    <v>       0.00000000       0.00000000       0.17677670 </v>
   </varray>
  </crystal>
  <varray name="positions" >
   <v>       0.75000000       0.00000000       0.00000000 </v>
   <v>       0.25000000       0.25000000       0.50000000 </v>
   <v>       0.25000000       0.00000000       0.00000000 </v>
   <v>       0.25000000       0.75000000       0.50000000 </v>
   <v>       0.25000000       0.50000000       0.00000000 </v>
   <v>       0.75000000       0.75000000       0.50000000 </v>
   <v>       0.75000000       0.50000000       0.00000000 </v>
   <v>       0.75000000       0.25000000       0.50000000 </v>
   <v>       0.50000000       0.00000000       0.50000000 </v>
   <v>       0.00000000       0.25000000       0.00000000 </v>
   <v>       0.00000000       0.00000000       0.50000000 </v>
   <v>       0.00000000       0.75000000       0.00000000 </v>
   <v>       0.00000000       0.50000000       0.50000000 </v>
   <v>       0.50000000       0.75000000       0.00000000 </v>
   <v>       0.50000000       0.50000000       0.50000000 </v>
   <v>       0.50000000       0.25000000       0.00000000 </v>
   <v>       0.00000000       0.12500000       0.25000000 </v>
   <v>       0.00000000       0.87500000       0.75000000 </v>
   <v>       0.00000000       0.12500000       0.75000000 </v>
   <v>       0.00000000       0.87500000       0.25000000 </v>
   <v>       0.75000000       0.00000000       0.50000000 </v>
   <v>       0.25000000       0.25000000       0.00000000 </v>
   <v>       0.25000000       0.00000000       0.50000000 </v>
   <v>       0.25000000       0.75000000       0.00000000 </v>
   <v>       0.50000000       0.62500000       0.25000000 </v>
   <v>       0.50000000       0.37500000       0.75000000 </v>
   <v>       0.50000000       0.62500000       0.75000000 </v>
   <v>       0.50000000       0.37500000       0.25000000 </v>
   <v>       0.25000000       0.50000000       0.50000000 </v>
   <v>       0.75000000       0.75000000       0.00000000 </v>
   <v>       0.75000000       0.50000000       0.50000000 </v>
   <v>       0.75000000       0.25000000       0.00000000 </v>
  </varray>
 </structure>
</modeling>
