<?xml version="1.0" encoding="ISO-8859-1"?>
<modeling>
 <generator>
  <i name="program" type="string">vasp </i>
  <i name="version" type="string">5.3.5  </i>
  <i name="subversion" type="string">31Mar14 (build Jun 20 2014 13:15:13) complex                          parallel </i>
  <i name="platform" type="string">LinuxIFC </i>
  <i name="date" type="string">2025 11 21 </i>
  <i name="time" type="string">12:32:29 </i>
 </generator>
 <incar>
  <i type="string" name="PREC">accurate</i>
  <i type="int" name="IALGO">    68</i>
  <i type="logical" name="ADDGRID"> T  </i>
  <i type="int" name="NELM">   100</i>
  <i type="int" name="NELMIN">     4</i>
  <i type="int" name="IBRION">     2</i>
  <i name="EDIFF">      0.00000100</i>
  <i name="EDIFFG">     -0.02000000</i>
  <i type="int" name="NSW">    30</i>
  <i type="int" name="ISIF">     3</i>
  <i name="ENCUT">    500.00000000</i>
  <i type="logical" name="LREAL"> F  </i>
  <i type="int" name="ISMEAR">     1</i>
  <i name="SIGMA">      0.30000000</i>
  <i type="logical" name="LWAVE"> F  </i>
  <i type="logical" name="LCHARG"> F  </i>
  <i type="int" name="NELM">   100</i>
 </incar>
 <kpoints>
  <generation param="Auto">
   <i name="subdivisionlength">     70.00000000 </i>
   <v type="int" name="divisions">      24       24        6 </v>
   <v name="usershift">      0.00000000       0.00000000       0.00000000 </v>
   <v name="genvec1">      0.04166667       0.00000000       0.00000000 </v>
   <v name="genvec2">      0.00000000       0.04166667       0.00000000 </v>
   <v name="genvec3">      0.00000000       0.00000000       0.16666667 </v>
   <v name="shift">      0.00000000       0.00000000       0.00000000 </v>
  </generation>
  <varray name="kpointlist" >
   <v>       0.00000000       0.00000000       0.00000000 </v>
   <v>       0.04166667       0.00000000       0.00000000 </v>
   <v>       0.08333333       0.00000000       0.00000000 </v>
   <v>       0.12500000       0.00000000       0.00000000 </v>
   <v>       0.16666667       0.00000000       0.00000000 </v>
   <v>       0.20833333       0.00000000       0.00000000 </v>
   <v>       0.25000000       0.00000000       0.00000000 </v>
   <v>       0.29166667       0.00000000       0.00000000 </v>
   <v>       0.33333333       0.00000000       0.00000000 </v>
   <v>       0.37500000       0.00000000       0.00000000 </v>
   <v>       0.41666667       0.00000000       0.00000000 </v>
   <v>       0.45833333       0.00000000       0.00000000 </v>
   <v>       0.50000000       0.00000000       0.00000000 </v>
   <v>       0.04166667       0.04166667       0.00000000 </v>
   <v>       0.08333333       0.04166667       0.00000000 </v>
   <v>       0.12500000       0.04166667       0.00000000 </v>
   <v>       0.16666667       0.04166667       0.00000000 </v>
   <v>       0.20833333       0.04166667       0.00000000 </v>
   <v>       0.25000000       0.04166667       0.00000000 </v>
   <v>       0.29166667       0.04166667       0.00000000 </v>
   <v>       0.33333333       0.04166667       0.00000000 </v>
   <v>       0.37500000       0.04166667       0.00000000 </v>
   <v>       0.41666667       0.04166667       0.00000000 </v>
   <v>       0.45833333       0.04166667       0.00000000 </v>
   <v>       0.50000000       0.04166667       0.00000000 </v>
   <v>       0.08333333       0.08333333       0.00000000 </v>
   <v>       0.12500000       0.08333333       0.00000000 </v>
   <v>       0.16666667       0.08333333       0.00000000 </v>
   <v>       0.20833333       0.08333333       0.00000000 </v>
   <v>       0.25000000       0.08333333       0.00000000 </v>
   <v>       0.29166667       0.08333333       0.00000000 </v>
   <v>       0.33333333       0.08333333       0.00000000 </v>
   <v>       0.37500000       0.08333333       0.00000000 </v>
   <v>       0.41666667       0.08333333       0.00000000 </v>
   <v>       0.45833333       0.08333333       0.00000000 </v>
   <v>       0.50000000       0.08333333       0.00000000 </v>
   <v>       0.12500000       0.12500000       0.00000000 </v>
   <v>       0.16666667       0.12500000       0.00000000 </v>
   <v>       0.20833333       0.12500000       0.00000000 </v>
   <v>       0.25000000       0.12500000       0.00000000 </v>
   <v>       0.29166667       0.12500000       0.00000000 </v>
   <v>       0.33333333       0.12500000       0.00000000 </v>
   <v>       0.37500000       0.12500000       0.00000000 </v>
   <v>       0.41666667       0.12500000       0.00000000 </v>
   <v>       0.45833333       0.12500000       0.00000000 </v>
   <v>       0.50000000       0.12500000       0.00000000 </v>
   <v>       0.16666667       0.16666667       0.00000000 </v>
   <v>       0.20833333       0.16666667       0.00000000 </v>
   <v>       0.25000000       0.16666667       0.00000000 </v>
   <v>       0.29166667       0.16666667       0.00000000 </v>
   <v>       0.33333333       0.16666667       0.00000000 </v>
   <v>       0.37500000       0.16666667       0.00000000 </v>
   <v>       0.41666667       0.16666667       0.00000000 </v>
   <v>       0.45833333       0.16666667       0.00000000 </v>
   <v>       0.50000000       0.16666667       0.00000000 </v>
   <v>       0.20833333       0.20833333       0.00000000 </v>
   <v>       0.25000000       0.20833333       0.00000000 </v>
   <v>       0.29166667       0.20833333       0.00000000 </v>
   <v>       0.33333333       0.20833333       0.00000000 </v>
   <v>       0.37500000       0.20833333       0.00000000 </v>
   <v>       0.41666667       0.20833333       0.00000000 </v>
   <v>       0.45833333       0.20833333       0.00000000 </v>
   <v>       0.50000000       0.20833333       0.00000000 </v>
   <v>       0.25000000       0.25000000       0.00000000 </v>
   <v>       0.29166667       0.25000000       0.00000000 </v>
   <v>       0.33333333       0.25000000       0.00000000 </v>
   <v>       0.37500000       0.25000000       0.00000000 </v>
   <v>       0.41666667       0.25000000       0.00000000 </v>
   <v>       0.45833333       0.25000000       0.00000000 </v>
   <v>       0.50000000       0.25000000       0.00000000 </v>
   <v>       0.29166667       0.29166667       0.00000000 </v>
   <v>       0.33333333       0.29166667       0.00000000 </v>
   <v>       0.37500000       0.29166667       0.00000000 </v>
   <v>       0.41666667       0.29166667       0.00000000 </v>
   <v>       0.45833333       0.29166667       0.00000000 </v>
   <v>       0.50000000       0.29166667       0.00000000 </v>
   <v>       0.33333333       0.33333333       0.00000000 </v>
   <v>       0.37500000       0.33333333       0.00000000 </v>
   <v>       0.41666667       0.33333333       0.00000000 </v>
   <v>       0.45833333       0.33333333       0.00000000 </v>
   <v>       0.50000000       0.33333333       0.00000000 </v>
   <v>       0.37500000       0.37500000       0.00000000 </v>
   <v>       0.41666667       0.37500000       0.00000000 </v>
   <v>       0.45833333       0.37500000       0.00000000 </v>
   <v>       0.50000000       0.37500000       0.00000000 </v>
   <v>       0.41666667       0.41666667       0.00000000 </v>
   <v>       0.45833333       0.41666667       0.00000000 </v>
   <v>       0.50000000       0.41666667       0.00000000 </v>
   <v>       0.45833333       0.45833333       0.00000000 </v>
   <v>       0.50000000       0.45833333       0.00000000 </v>
   <v>       0.50000000       0.50000000       0.00000000 </v>
   <v>       0.00000000       0.00000000       0.16666667 </v>
   <v>       0.04166667       0.00000000       0.16666667 </v>
   <v>       0.08333333       0.00000000       0.16666667 </v>
   <v>       0.12500000       0.00000000       0.16666667 </v>
   <v>       0.16666667       0.00000000       0.16666667 </v>
   <v>       0.20833333       0.00000000       0.16666667 </v>
   <v>       0.25000000       0.00000000       0.16666667 </v>
   <v>       0.29166667       0.00000000       0.16666667 </v>
   <v>       0.33333333       0.00000000       0.16666667 </v>
   <v>       0.37500000       0.00000000       0.16666667 </v>
   <v>       0.41666667       0.00000000       0.16666667 </v>
   <v>       0.45833333       0.00000000       0.16666667 </v>
   <v>       0.50000000       0.00000000       0.16666667 </v>
   <v>       0.04166667       0.04166667       0.16666667 </v>
   <v>       0.08333333       0.04166667       0.16666667 </v>
   <v>       0.12500000       0.04166667       0.16666667 </v>
   <v>       0.16666667       0.04166667       0.16666667 </v>
   <v>       0.20833333       0.04166667       0.16666667 </v>
   <v>       0.25000000       0.04166667       0.16666667 </v>
   <v>       0.29166667       0.04166667       0.16666667 </v>
   <v>       0.33333333       0.04166667       0.16666667 </v>
   <v>       0.37500000       0.04166667       0.16666667 </v>
   <v>       0.41666667       0.04166667       0.16666667 </v>
   <v>       0.45833333       0.04166667       0.16666667 </v>
   <v>       0.50000000       0.04166667       0.16666667 </v>
   <v>       0.08333333       0.08333333       0.16666667 </v>
   <v>       0.12500000       0.08333333       0.16666667 </v>
   <v>       0.16666667       0.08333333       0.16666667 </v>
   <v>       0.20833333       0.08333333       0.16666667 </v>
   <v>       0.25000000       0.08333333       0.16666667 </v>
   <v>       0.29166667       0.08333333       0.16666667 </v>
   <v>       0.33333333       0.08333333       0.16666667 </v>
   <v>       0.37500000       0.08333333       0.16666667 </v>
   <v>       0.41666667       0.08333333       0.16666667 </v>
   <v>       0.45833333       0.08333333       0.16666667 </v>
   <v>       0.50000000       0.08333333       0.16666667 </v>
   <v>       0.12500000       0.12500000       0.16666667 </v>
   <v>       0.16666667       0.12500000       0.16666667 </v>
   <v>       0.20833333       0.12500000       0.16666667 </v>
   <v>       0.25000000       0.12500000       0.16666667 </v>
   <v>       0.29166667       0.12500000       0.16666667 </v>
   <v>       0.33333333       0.12500000       0.16666667 </v>
   <v>       0.37500000       0.12500000       0.16666667 </v>
   <v>       0.41666667       0.12500000       0.16666667 </v>
   <v>       0.45833333       0.12500000       0.16666667 </v>
   <v>       0.50000000       0.12500000       0.16666667 </v>
   <v>       0.16666667       0.16666667       0.16666667 </v>
   <v>       0.20833333       0.16666667       0.16666667 </v>
   <v>       0.25000000       0.16666667       0.16666667 </v>
   <v>       0.29166667       0.16666667       0.16666667 </v>
   <v>       0.33333333       0.16666667       0.16666667 </v>
   <v>       0.37500000       0.16666667       0.16666667 </v>
   <v>       0.41666667       0.16666667       0.16666667 </v>
   <v>       0.45833333       0.16666667       0.16666667 </v>
   <v>       0.50000000       0.16666667       0.16666667 </v>
   <v>       0.20833333       0.20833333       0.16666667 </v>
   <v>       0.25000000       0.20833333       0.16666667 </v>
   <v>       0.29166667       0.20833333       0.16666667 </v>
   <v>       0.33333333       0.20833333       0.16666667 </v>
   <v>       0.37500000       0.20833333       0.16666667 </v>
   <v>       0.41666667       0.20833333       0.16666667 </v>
   <v>       0.45833333       0.20833333       0.16666667 </v>
   <v>       0.50000000       0.20833333       0.16666667 </v>
   <v>       0.25000000       0.25000000       0.16666667 </v>
   <v>       0.29166667       0.25000000       0.16666667 </v>
   <v>       0.33333333       0.25000000       0.16666667 </v>
   <v>       0.37500000       0.25000000       0.16666667 </v>
   <v>       0.41666667       0.25000000       0.16666667 </v>
   <v>       0.45833333       0.25000000       0.16666667 </v>
   <v>       0.50000000       0.25000000       0.16666667 </v>
   <v>       0.29166667       0.29166667       0.16666667 </v>
   <v>       0.33333333       0.29166667       0.16666667 </v>
   <v>       0.37500000       0.29166667       0.16666667 </v>
   <v>       0.41666667       0.29166667       0.16666667 </v>
   <v>       0.45833333       0.29166667       0.16666667 </v>
   <v>       0.50000000       0.29166667       0.16666667 </v>
   <v>       0.33333333       0.33333333       0.16666667 </v>
   <v>       0.37500000       0.33333333       0.16666667 </v>
   <v>       0.41666667       0.33333333       0.16666667 </v>
   <v>       0.45833333       0.33333333       0.16666667 </v>
   <v>       0.50000000       0.33333333       0.16666667 </v>
   <v>       0.37500000       0.37500000       0.16666667 </v>
   <v>       0.41666667       0.37500000       0.16666667 </v>
   <v>       0.45833333       0.37500000       0.16666667 </v>
   <v>       0.50000000       0.37500000       0.16666667 </v>
   <v>       0.41666667       0.41666667       0.16666667 </v>
   <v>       0.45833333       0.41666667       0.16666667 </v>
   <v>       0.50000000       0.41666667       0.16666667 </v>
   <v>       0.45833333       0.45833333       0.16666667 </v>
   <v>       0.50000000       0.45833333       0.16666667 </v>
   <v>       0.50000000       0.50000000       0.16666667 </v>
   <v>       0.00000000       0.00000000       0.33333333 </v>
   <v>       0.04166667       0.00000000       0.33333333 </v>
   <v>       0.08333333       0.00000000       0.33333333 </v>
   <v>       0.12500000       0.00000000       0.33333333 </v>
   <v>       0.16666667       0.00000000       0.33333333 </v>
   <v>       0.20833333       0.00000000       0.33333333 </v>
   <v>       0.25000000       0.00000000       0.33333333 </v>
   <v>       0.29166667       0.00000000       0.33333333 </v>
   <v>       0.33333333       0.00000000       0.33333333 </v>
   <v>       0.37500000       0.00000000       0.33333333 </v>
   <v>       0.41666667       0.00000000       0.33333333 </v>
   <v>       0.45833333       0.00000000       0.33333333 </v>
   <v>       0.50000000       0.00000000       0.33333333 </v>
   <v>       0.04166667       0.04166667       0.33333333 </v>
   <v>       0.08333333       0.04166667       0.33333333 </v>
   <v>       0.12500000       0.04166667       0.33333333 </v>
   <v>       0.16666667       0.04166667       0.33333333 </v>
   <v>       0.20833333       0.04166667       0.33333333 </v>
   <v>       0.25000000       0.04166667       0.33333333 </v>
   <v>       0.29166667       0.04166667       0.33333333 </v>
   <v>       0.33333333       0.04166667       0.33333333 </v>
   <v>       0.37500000       0.04166667       0.33333333 </v>
   <v>       0.41666667       0.04166667       0.33333333 </v>
   <v>       0.45833333       0.04166667       0.33333333 </v>
   <v>       0.50000000       0.04166667       0.33333333 </v>
   <v>       0.08333333       0.08333333       0.33333333 </v>
   <v>       0.12500000       0.08333333       0.33333333 </v>
   <v>       0.16666667       0.08333333       0.33333333 </v>
   <v>       0.20833333       0.08333333       0.33333333 </v>
   <v>       0.25000000       0.08333333       0.33333333 </v>
   <v>       0.29166667       0.08333333       0.33333333 </v>
   <v>       0.33333333       0.08333333       0.33333333 </v>
   <v>       0.37500000       0.08333333       0.33333333 </v>
   <v>       0.41666667       0.08333333       0.33333333 </v>
   <v>       0.45833333       0.08333333       0.33333333 </v>
   <v>       0.50000000       0.08333333       0.33333333 </v>
   <v>       0.12500000       0.12500000       0.33333333 </v>
   <v>       0.16666667       0.12500000       0.33333333 </v>
   <v>       0.20833333       0.12500000       0.33333333 </v>
   <v>       0.25000000       0.12500000       0.33333333 </v>
   <v>       0.29166667       0.12500000       0.33333333 </v>
   <v>       0.33333333       0.12500000       0.33333333 </v>
   <v>       0.37500000       0.12500000       0.33333333 </v>
   <v>       0.41666667       0.12500000       0.33333333 </v>
   <v>       0.45833333       0.12500000       0.33333333 </v>
   <v>       0.50000000       0.12500000       0.33333333 </v>
   <v>       0.16666667       0.16666667       0.33333333 </v>
   <v>       0.20833333       0.16666667       0.33333333 </v>
   <v>       0.25000000       0.16666667       0.33333333 </v>
   <v>       0.29166667       0.16666667       0.33333333 </v>
   <v>       0.33333333       0.16666667       0.33333333 </v>
   <v>       0.37500000       0.16666667       0.33333333 </v>
   <v>       0.41666667       0.16666667       0.33333333 </v>
   <v>       0.45833333       0.16666667       0.33333333 </v>
   <v>       0.50000000       0.16666667       0.33333333 </v>
   <v>       0.20833333       0.20833333       0.33333333 </v>
   <v>       0.25000000       0.20833333       0.33333333 </v>
   <v>       0.29166667       0.20833333       0.33333333 </v>
   <v>       0.33333333       0.20833333       0.33333333 </v>
   <v>       0.37500000       0.20833333       0.33333333 </v>
   <v>       0.41666667       0.20833333       0.33333333 </v>
   <v>       0.45833333       0.20833333       0.33333333 </v>
   <v>       0.50000000       0.20833333       0.33333333 </v>
   <v>       0.25000000       0.25000000       0.33333333 </v>
   <v>       0.29166667       0.25000000       0.33333333 </v>
   <v>       0.33333333       0.25000000       0.33333333 </v>
   <v>       0.37500000       0.25000000       0.33333333 </v>
   <v>       0.41666667       0.25000000       0.33333333 </v>
   <v>       0.45833333       0.25000000       0.33333333 </v>
   <v>       0.50000000       0.25000000       0.33333333 </v>
   <v>       0.29166667       0.29166667       0.33333333 </v>
   <v>       0.33333333       0.29166667       0.33333333 </v>
   <v>       0.37500000       0.29166667       0.33333333 </v>
   <v>       0.41666667       0.29166667       0.33333333 </v>
   <v>       0.45833333       0.29166667       0.33333333 </v>
   <v>       0.50000000       0.29166667       0.33333333 </v>
   <v>       0.33333333       0.33333333       0.33333333 </v>
   <v>       0.37500000       0.33333333       0.33333333 </v>
   <v>       0.41666667       0.33333333       0.33333333 </v>
   <v>       0.45833333       0.33333333       0.33333333 </v>
   <v>       0.50000000       0.33333333       0.33333333 </v>
   <v>       0.37500000       0.37500000       0.33333333 </v>
   <v>       0.41666667       0.37500000       0.33333333 </v>
   <v>       0.45833333       0.37500000       0.33333333 </v>
   <v>       0.50000000       0.37500000       0.33333333 </v>
   <v>       0.41666667       0.41666667       0.33333333 </v>
   <v>       0.45833333       0.41666667       0.33333333 </v>
   <v>       0.50000000       0.41666667       0.33333333 </v>
   <v>       0.45833333       0.45833333       0.33333333 </v>
   <v>       0.50000000       0.45833333       0.33333333 </v>
   <v>       0.50000000       0.50000000       0.33333333 </v>
   <v>       0.00000000       0.00000000       0.50000000 </v>
   <v>       0.04166667       0.00000000       0.50000000 </v>
   <v>       0.08333333       0.00000000       0.50000000 </v>
   <v>       0.12500000       0.00000000       0.50000000 </v>
   <v>       0.16666667       0.00000000       0.50000000 </v>
   <v>       0.20833333       0.00000000       0.50000000 </v>
   <v>       0.25000000       0.00000000       0.50000000 </v>
   <v>       0.29166667       0.00000000       0.50000000 </v>
   <v>       0.33333333       0.00000000       0.50000000 </v>
   <v>       0.37500000       0.00000000       0.50000000 </v>
   <v>       0.41666667       0.00000000       0.50000000 </v>
   <v>       0.45833333       0.00000000       0.50000000 </v>
   <v>       0.50000000       0.00000000       0.50000000 </v>
   <v>       0.04166667       0.04166667       0.50000000 </v>
   <v>       0.08333333       0.04166667       0.50000000 </v>
   <v>       0.12500000       0.04166667       0.50000000 </v>
   <v>       0.16666667       0.04166667       0.50000000 </v>
   <v>       0.20833333       0.04166667       0.50000000 </v>
   <v>       0.25000000       0.04166667       0.50000000 </v>
   <v>       0.29166667       0.04166667       0.50000000 </v>
   <v>       0.33333333       0.04166667       0.50000000 </v>
   <v>       0.37500000       0.04166667       0.50000000 </v>
   <v>       0.41666667       0.04166667       0.50000000 </v>
   <v>       0.45833333       0.04166667       0.50000000 </v>
   <v>       0.50000000       0.04166667       0.50000000 </v>
   <v>       0.08333333       0.08333333       0.50000000 </v>
   <v>       0.12500000       0.08333333       0.50000000 </v>
   <v>       0.16666667       0.08333333       0.50000000 </v>
   <v>       0.20833333       0.08333333       0.50000000 </v>
   <v>       0.25000000       0.08333333       0.50000000 </v>
   <v>       0.29166667       0.08333333       0.50000000 </v>
   <v>       0.33333333       0.08333333       0.50000000 </v>
   <v>       0.37500000       0.08333333       0.50000000 </v>
   <v>       0.41666667       0.08333333       0.50000000 </v>
   <v>       0.45833333       0.08333333       0.50000000 </v>
   <v>       0.50000000       0.08333333       0.50000000 </v>
   <v>       0.12500000       0.12500000       0.50000000 </v>
   <v>       0.16666667       0.12500000       0.50000000 </v>
   <v>       0.20833333       0.12500000       0.50000000 </v>
   <v>       0.25000000       0.12500000       0.50000000 </v>
   <v>       0.29166667       0.12500000       0.50000000 </v>
   <v>       0.33333333       0.12500000       0.50000000 </v>
   <v>       0.37500000       0.12500000       0.50000000 </v>
   <v>       0.41666667       0.12500000       0.50000000 </v>
   <v>       0.45833333       0.12500000       0.50000000 </v>
   <v>       0.50000000       0.12500000       0.50000000 </v>
   <v>       0.16666667       0.16666667       0.50000000 </v>
   <v>       0.20833333       0.16666667       0.50000000 </v>
   <v>       0.25000000       0.16666667       0.50000000 </v>
   <v>       0.29166667       0.16666667       0.50000000 </v>
   <v>       0.33333333       0.16666667       0.50000000 </v>
   <v>       0.37500000       0.16666667       0.50000000 </v>
   <v>       0.41666667       0.16666667       0.50000000 </v>
   <v>       0.45833333       0.16666667       0.50000000 </v>
   <v>       0.50000000       0.16666667       0.50000000 </v>
   <v>       0.20833333       0.20833333       0.50000000 </v>
   <v>       0.25000000       0.20833333       0.50000000 </v>
   <v>       0.29166667       0.20833333       0.50000000 </v>
   <v>       0.33333333       0.20833333       0.50000000 </v>
   <v>       0.37500000       0.20833333       0.50000000 </v>
   <v>       0.41666667       0.20833333       0.50000000 </v>
   <v>       0.45833333       0.20833333       0.50000000 </v>
   <v>       0.50000000       0.20833333       0.50000000 </v>
   <v>       0.25000000       0.25000000       0.50000000 </v>
   <v>       0.29166667       0.25000000       0.50000000 </v>
   <v>       0.33333333       0.25000000       0.50000000 </v>
   <v>       0.37500000       0.25000000       0.50000000 </v>
   <v>       0.41666667       0.25000000       0.50000000 </v>
   <v>       0.45833333       0.25000000       0.50000000 </v>
   <v>       0.50000000       0.25000000       0.50000000 </v>
   <v>       0.29166667       0.29166667       0.50000000 </v>
   <v>       0.33333333       0.29166667       0.50000000 </v>
   <v>       0.37500000       0.29166667       0.50000000 </v>
   <v>       0.41666667       0.29166667       0.50000000 </v>
   <v>       0.45833333       0.29166667       0.50000000 </v>
   <v>       0.50000000       0.29166667       0.50000000 </v>
   <v>       0.33333333       0.33333333       0.50000000 </v>
   <v>       0.37500000       0.33333333       0.50000000 </v>
   <v>       0.41666667       0.33333333       0.50000000 </v>
   <v>       0.45833333       0.33333333       0.50000000 </v>
   <v>       0.50000000       0.33333333       0.50000000 </v>
   <v>       0.37500000       0.37500000       0.50000000 </v>
   <v>       0.41666667       0.37500000       0.50000000 </v>
   <v>       0.45833333       0.37500000       0.50000000 </v>
   <v>       0.50000000       0.37500000       0.50000000 </v>
   <v>       0.41666667       0.41666667       0.50000000 </v>
   <v>       0.45833333       0.41666667       0.50000000 </v>
   <v>       0.50000000       0.41666667       0.50000000 </v>
   <v>       0.45833333       0.45833333       0.50000000 </v>
   <v>       0.50000000       0.45833333       0.50000000 </v>
   <v>       0.50000000       0.50000000       0.50000000 </v>
  </varray>
  <varray name="weights" >
   <v>       0.00028935 </v>
   <v>       0.00115741 </v>
   <v>       0.00115741 </v>
   <v>       0.00115741 </v>
   <v>       0.00115741 </v>
   <v>       0.00115741 </v>
   <v>       0.00115741 </v>
   <v>       0.00115741 </v>
   <v>       0.00115741 </v>
   <v>       0.00115741 </v>
   <v>       0.00115741 </v>
   <v>       0.00115741 </v>
   <v>       0.00057870 </v>
   <v>       0.00115741 </v>
   <v>       0.00231481 </v>
   <v>       0.00231481 </v>
   <v>       0.00231481 </v>
   <v>       0.00231481 </v>
   <v>       0.00231481 </v>
   <v>       0.00231481 </v>
   <v>       0.00231481 </v>
   <v>       0.00231481 </v>
   <v>       0.00231481 </v>
   <v>       0.00231481 </v>
   <v>       0.00115741 </v>
   <v>       0.00115741 </v>
   <v>       0.00231481 </v>
   <v>       0.00231481 </v>
   <v>       0.00231481 </v>
   <v>       0.00231481 </v>
   <v>       0.00231481 </v>
   <v>       0.00231481 </v>
   <v>       0.00231481 </v>
   <v>       0.00231481 </v>
   <v>       0.00231481 </v>
   <v>       0.00115741 </v>
   <v>       0.00115741 </v>
   <v>       0.00231481 </v>
   <v>       0.00231481 </v>
   <v>       0.00231481 </v>
   <v>       0.00231481 </v>
   <v>       0.00231481 </v>
   <v>       0.00231481 </v>
   <v>       0.00231481 </v>
   <v>       0.00231481 </v>
   <v>       0.00115741 </v>
   <v>       0.00115741 </v>
   <v>       0.00231481 </v>
   <v>       0.00231481 </v>
   <v>       0.00231481 </v>
   <v>       0.00231481 </v>
   <v>       0.00231481 </v>
   <v>       0.00231481 </v>
   <v>       0.00231481 </v>
   <v>       0.00115741 </v>
   <v>       0.00115741 </v>
   <v>       0.00231481 </v>
   <v>       0.00231481 </v>
   <v>       0.00231481 </v>
   <v>       0.00231481 </v>
   <v>       0.00231481 </v>
   <v>       0.00231481 </v>
   <v>       0.00115741 </v>
   <v>       0.00115741 </v>
   <v>       0.00231481 </v>
   <v>       0.00231481 </v>
   <v>       0.00231481 </v>
   <v>       0.00231481 </v>
   <v>       0.00231481 </v>
   <v>       0.00115741 </v>
   <v>       0.00115741 </v>
   <v>       0.00231481 </v>
   <v>       0.00231481 </v>
   <v>       0.00231481 </v>
   <v>       0.00231481 </v>
   <v>       0.00115741 </v>
   <v>       0.00115741 </v>
   <v>       0.00231481 </v>
   <v>       0.00231481 </v>
   <v>       0.00231481 </v>
   <v>       0.00115741 </v>
   <v>       0.00115741 </v>
   <v>       0.00231481 </v>
   <v>       0.00231481 </v>
   <v>       0.00115741 </v>
   <v>       0.00115741 </v>
   <v>       0.00231481 </v>
   <v>       0.00115741 </v>
   <v>       0.00115741 </v>
   <v>       0.00115741 </v>
   <v>       0.00028935 </v>
   <v>       0.00057870 </v>
   <v>       0.00231481 </v>
   <v>       0.00231481 </v>
   <v>       0.00231481 </v>
   <v>       0.00231481 </v>
   <v>       0.00231481 </v>
   <v>       0.00231481 </v>
   <v>       0.00231481 </v>
   <v>       0.00231481 </v>
   <v>       0.00231481 </v>
   <v>       0.00231481 </v>
   <v>       0.00231481 </v>
   <v>       0.00115741 </v>
   <v>       0.00231481 </v>
   <v>       0.00462963 </v>
   <v>       0.00462963 </v>
   <v>       0.00462963 </v>
   <v>       0.00462963 </v>
   <v>       0.00462963 </v>
   <v>       0.00462963 </v>
   <v>       0.00462963 </v>
   <v>       0.00462963 </v>
   <v>       0.00462963 </v>
   <v>       0.00462963 </v>
   <v>       0.00231481 </v>
   <v>       0.00231481 </v>
   <v>       0.00462963 </v>
   <v>       0.00462963 </v>
   <v>       0.00462963 </v>
   <v>       0.00462963 </v>
   <v>       0.00462963 </v>
   <v>       0.00462963 </v>
   <v>       0.00462963 </v>
   <v>       0.00462963 </v>
   <v>       0.00462963 </v>
   <v>       0.00231481 </v>
   <v>       0.00231481 </v>
   <v>       0.00462963 </v>
   <v>       0.00462963 </v>
   <v>       0.00462963 </v>
   <v>       0.00462963 </v>
   <v>       0.00462963 </v>
   <v>       0.00462963 </v>
   <v>       0.00462963 </v>
   <v>       0.00462963 </v>
   <v>       0.00231481 </v>
   <v>       0.00231481 </v>
   <v>       0.00462963 </v>
   <v>       0.00462963 </v>
   <v>       0.00462963 </v>
   <v>       0.00462963 </v>
   <v>       0.00462963 </v>
   <v>       0.00462963 </v>
   <v>       0.00462963 </v>
   <v>       0.00231481 </v>
   <v>       0.00231481 </v>
   <v>       0.00462963 </v>
   <v>       0.00462963 </v>
   <v>       0.00462963 </v>
   <v>       0.00462963 </v>
   <v>       0.00462963 </v>
   <v>       0.00462963 </v>
   <v>       0.00231481 </v>
   <v>       0.00231481 </v>
   <v>       0.00462963 </v>
   <v>       0.00462963 </v>
   <v>       0.00462963 </v>
   <v>       0.00462963 </v>
   <v>       0.00462963 </v>
   <v>       0.00231481 </v>
   <v>       0.00231481 </v>
   <v>       0.00462963 </v>
   <v>       0.00462963 </v>
   <v>       0.00462963 </v>
   <v>       0.00462963 </v>
   <v>       0.00231481 </v>
   <v>       0.00231481 </v>
   <v>       0.00462963 </v>
   <v>       0.00462963 </v>
   <v>       0.00462963 </v>
   <v>       0.00231481 </v>
   <v>       0.00231481 </v>
   <v>       0.00462963 </v>
   <v>       0.00462963 </v>
   <v>       0.00231481 </v>
   <v>       0.00231481 </v>
   <v>       0.00462963 </v>
   <v>       0.00231481 </v>
   <v>       0.00231481 </v>
   <v>       0.00231481 </v>
   <v>       0.00057870 </v>
   <v>       0.00057870 </v>
   <v>       0.00231481 </v>
   <v>       0.00231481 </v>
   <v>       0.00231481 </v>
   <v>       0.00231481 </v>
   <v>       0.00231481 </v>
   <v>       0.00231481 </v>
   <v>       0.00231481 </v>
   <v>       0.00231481 </v>
   <v>       0.00231481 </v>
   <v>       0.00231481 </v>
   <v>       0.00231481 </v>
   <v>       0.00115741 </v>
   <v>       0.00231481 </v>
   <v>       0.00462963 </v>
   <v>       0.00462963 </v>
   <v>       0.00462963 </v>
   <v>       0.00462963 </v>
   <v>       0.00462963 </v>
   <v>       0.00462963 </v>
   <v>       0.00462963 </v>
   <v>       0.00462963 </v>
   <v>       0.00462963 </v>
   <v>       0.00462963 </v>
   <v>       0.00231481 </v>
   <v>       0.00231481 </v>
   <v>       0.00462963 </v>
   <v>       0.00462963 </v>
   <v>       0.00462963 </v>
   <v>       0.00462963 </v>
   <v>       0.00462963 </v>
   <v>       0.00462963 </v>
   <v>       0.00462963 </v>
   <v>       0.00462963 </v>
   <v>       0.00462963 </v>
   <v>       0.00231481 </v>
   <v>       0.00231481 </v>
   <v>       0.00462963 </v>
   <v>       0.00462963 </v>
   <v>       0.00462963 </v>
   <v>       0.00462963 </v>
   <v>       0.00462963 </v>
   <v>       0.00462963 </v>
   <v>       0.00462963 </v>
   <v>       0.00462963 </v>
   <v>       0.00231481 </v>
   <v>       0.00231481 </v>
   <v>       0.00462963 </v>
   <v>       0.00462963 </v>
   <v>       0.00462963 </v>
   <v>       0.00462963 </v>
   <v>       0.00462963 </v>
   <v>       0.00462963 </v>
   <v>       0.00462963 </v>
   <v>       0.00231481 </v>
   <v>       0.00231481 </v>
   <v>       0.00462963 </v>
   <v>       0.00462963 </v>
   <v>       0.00462963 </v>
   <v>       0.00462963 </v>
   <v>       0.00462963 </v>
   <v>       0.00462963 </v>
   <v>       0.00231481 </v>
   <v>       0.00231481 </v>
   <v>       0.00462963 </v>
   <v>       0.00462963 </v>
   <v>       0.00462963 </v>
   <v>       0.00462963 </v>
   <v>       0.00462963 </v>
   <v>       0.00231481 </v>
   <v>       0.00231481 </v>
   <v>       0.00462963 </v>
   <v>       0.00462963 </v>
   <v>       0.00462963 </v>
   <v>       0.00462963 </v>
   <v>       0.00231481 </v>
   <v>       0.00231481 </v>
   <v>       0.00462963 </v>
   <v>       0.00462963 </v>
   <v>       0.00462963 </v>
   <v>       0.00231481 </v>
   <v>       0.00231481 </v>
   <v>       0.00462963 </v>
   <v>       0.00462963 </v>
   <v>       0.00231481 </v>
   <v>       0.00231481 </v>
   <v>       0.00462963 </v>
   <v>       0.00231481 </v>
   <v>       0.00231481 </v>
   <v>       0.00231481 </v>
   <v>       0.00057870 </v>
   <v>       0.00028935 </v>
   <v>       0.00115741 </v>
   <v>       0.00115741 </v>
   <v>       0.00115741 </v>
   <v>       0.00115741 </v>
   <v>       0.00115741 </v>
   <v>       0.00115741 </v>
   <v>       0.00115741 </v>
   <v>       0.00115741 </v>
   <v>       0.00115741 </v>
   <v>       0.00115741 </v>
   <v>       0.00115741 </v>
   <v>       0.00057870 </v>
   <v>       0.00115741 </v>
   <v>       0.00231481 </v>
   <v>       0.00231481 </v>
   <v>       0.00231481 </v>
   <v>       0.00231481 </v>
   <v>       0.00231481 </v>
   <v>       0.00231481 </v>
   <v>       0.00231481 </v>
   <v>       0.00231481 </v>
   <v>       0.00231481 </v>
   <v>       0.00231481 </v>
   <v>       0.00115741 </v>
   <v>       0.00115741 </v>
   <v>       0.00231481 </v>
   <v>       0.00231481 </v>
   <v>       0.00231481 </v>
   <v>       0.00231481 </v>
   <v>       0.00231481 </v>
   <v>       0.00231481 </v>
   <v>       0.00231481 </v>
   <v>       0.00231481 </v>
   <v>       0.00231481 </v>
   <v>       0.00115741 </v>
   <v>       0.00115741 </v>
   <v>       0.00231481 </v>
   <v>       0.00231481 </v>
   <v>       0.00231481 </v>
   <v>       0.00231481 </v>
   <v>       0.00231481 </v>
   <v>       0.00231481 </v>
   <v>       0.00231481 </v>
   <v>       0.00231481 </v>
   <v>       0.00115741 </v>
   <v>       0.00115741 </v>
   <v>       0.00231481 </v>
   <v>       0.00231481 </v>
   <v>       0.00231481 </v>
   <v>       0.00231481 </v>
   <v>       0.00231481 </v>
   <v>       0.00231481 </v>
   <v>       0.00231481 </v>
   <v>       0.00115741 </v>
   <v>       0.00115741 </v>
   <v>       0.00231481 </v>
   <v>       0.00231481 </v>
   <v>       0.00231481 </v>
   <v>       0.00231481 </v>
   <v>       0.00231481 </v>
   <v>       0.00231481 </v>
   <v>       0.00115741 </v>
   <v>       0.00115741 </v>
   <v>       0.00231481 </v>
   <v>       0.00231481 </v>
   <v>       0.00231481 </v>
   <v>       0.00231481 </v>
   <v>       0.00231481 </v>
   <v>       0.00115741 </v>
   <v>       0.00115741 </v>
   <v>       0.00231481 </v>
   <v>       0.00231481 </v>
   <v>       0.00231481 </v>
   <v>       0.00231481 </v>
   <v>       0.00115741 </v>
   <v>       0.00115741 </v>
   <v>       0.00231481 </v>
   <v>       0.00231481 </v>
   <v>       0.00231481 </v>
   <v>       0.00115741 </v>
   <v>       0.00115741 </v>
   <v>       0.00231481 </v>
   <v>       0.00231481 </v>
   <v>       0.00115741 </v>
   <v>       0.00115741 </v>
   <v>       0.00231481 </v>
   <v>       0.00115741 </v>
   <v>       0.00115741 </v>
   <v>       0.00115741 </v>
   <v>       0.00028935 </v>
  </varray>
 </kpoints>
 <parameters>
  <separator name="general" >
   <i type="string" name="SYSTEM">unknown system</i>
   <i type="logical" name="LCOMPAT"> F  </i>
  </separator>
  <separator name="electronic" >
   <i type="string" name="PREC">accura</i>
   <i name="ENMAX">    500.00000000</i>
   <i name="ENAUG">    412.49600000</i>
   <i name="EDIFF">      0.00000100</i>
   <i type="int" name="IALGO">    68</i>
   <i type="int" name="IWAVPR">    11</i>
   <i type="int" name="NBANDS">    40</i>
   <i name="NELECT">     66.00000000</i>
   <i type="int" name="TURBO">     0</i>
   <i type="int" name="IRESTART">     0</i>
   <i type="int" name="NREBOOT">     0</i>
   <i type="int" name="NMIN">     0</i>
   <i name="EREF">      0.00000000</i>
   <separator name="electronic smearing" >
    <i type="int" name="ISMEAR">     1</i>
    <i name="SIGMA">      0.30000000</i>
    <i name="KSPACING">      0.50000000</i>
    <i type="logical" name="KGAMMA"> T  </i>
   </separator>
   <separator name="electronic projectors" >
    <i type="logical" name="LREAL"> F  </i>
    <v name="ROPT">      0.00000000      0.00000000</v>
    <i type="int" name="LMAXPAW">  -100</i>
    <i type="int" name="LMAXMIX">     2</i>
    <i type="logical" name="NLSPLINE"> F  </i>
   </separator>
   <separator name="electronic startup" >
    <i type="int" name="ISTART">     0</i>
    <i type="int" name="ICHARG">     2</i>
    <i type="int" name="INIWAV">     1</i>
   </separator>
   <separator name="electronic spin" >
    <i type="int" name="ISPIN">     1</i>
    <i type="logical" name="LNONCOLLINEAR"> F  </i>
    <v name="MAGMOM">      1.00000000      1.00000000      1.00000000      1.00000000      1.00000000      1.00000000</v>
    <i name="NUPDOWN">     -1.00000000</i>
    <i type="logical" name="LSORBIT"> F  </i>
    <v name="SAXIS">      0.00000000      0.00000000      1.00000000</v>
    <i type="logical" name="LSPIRAL"> F  </i>
    <v name="QSPIRAL">      0.00000000      0.00000000      0.00000000</v>
    <i type="logical" name="LZEROZ"> F  </i>
   </separator>
   <separator name="electronic exchange-correlation" >
    <i type="logical" name="LASPH"> F  </i>
    <i type="logical" name="LMETAGGA"> F  </i>
   </separator>
   <separator name="electronic convergence" >
    <i type="int" name="NELM">   100</i>
    <i type="int" name="NELMDL">     0</i>
    <i type="int" name="NELMIN">     4</i>
    <i name="ENINI">    500.00000000</i>
    <separator name="electronic convergence detail" >
     <i type="logical" name="LDIAG"> T  </i>
     <i type="logical" name="LSUBROT"> F  </i>
     <i name="WEIMIN">      0.00100000</i>
     <i name="EBREAK">      0.00000001</i>
     <i name="DEPER">      0.30000000</i>
     <i type="int" name="NRMM">     4</i>
     <i name="TIME">      0.40000000</i>
    </separator>
   </separator>
   <separator name="electronic mixer" >
    <i name="AMIX">      0.40000000</i>
    <i name="BMIX">      1.00000000</i>
    <i name="AMIN">      0.10000000</i>
    <i name="AMIX_MAG">      1.60000000</i>
    <i name="BMIX_MAG">      1.00000000</i>
    <separator name="electronic mixer details" >
     <i type="int" name="IMIX">     4</i>
     <i type="int" name="MAXMIX">   -45</i>
     <i name="WC">    100.00000000</i>
     <i type="int" name="INIMIX">     1</i>
     <i type="int" name="MIXPRE">     1</i>
     <i type="int" name="MREMOVE">     5</i>
    </separator>
   </separator>
   <separator name="electronic dipolcorrection" >
    <i type="logical" name="LDIPOL"> F  </i>
    <i type="logical" name="LMONO"> F  </i>
    <i type="int" name="IDIPOL">     0</i>
    <i name="EPSILON">      1.00000000</i>
    <v name="DIPOL">   -100.00000000   -100.00000000   -100.00000000</v>
    <i name="EFIELD">      0.00000000</i>
   </separator>
  </separator>
  <separator name="grids" >
   <i type="int" name="NGX">    24</i>
   <i type="int" name="NGY">    24</i>
   <i type="int" name="NGZ">    96</i>
   <i type="int" name="NGXF">    48</i>
   <i type="int" name="NGYF">    48</i>
   <i type="int" name="NGZF">   192</i>
   <i type="logical" name="ADDGRID"> T  </i>
  </separator>
  <separator name="ionic" >
   <i type="int" name="NSW">    30</i>
   <i type="int" name="IBRION">     2</i>
   <i type="int" name="ISIF">     3</i>
   <i name="PSTRESS">      0.00000000</i>
   <i name="EDIFFG">     -0.02000000</i>
   <i type="int" name="NFREE">     1</i>
   <i name="POTIM">      0.50000000</i>
   <i name="SMASS">     -3.00000000</i>
   <i name="SCALEE">      1.00000000</i>
  </separator>
  <separator name="ionic md" >
   <i name="TEBEG">      0.00010000</i>
   <i name="TEEND">      0.00010000</i>
   <i type="int" name="NBLOCK">     1</i>
   <i type="int" name="KBLOCK">    30</i>
   <i type="int" name="NPACO">   256</i>
   <i name="APACO">     16.00000000</i>
  </separator>
  <separator name="symmetry" >
   <i type="int" name="ISYM">     2</i>
   <i name="SYMPREC">      0.00001000</i>
  </separator>
  <separator name="dos" >
   <i type="logical" name="LORBIT"> F  </i>
   <v name="RWIGS">     -1.00000000     -1.00000000</v>
   <i type="int" name="NEDOS">   301</i>
   <i name="EMIN">     10.00000000</i>
   <i name="EMAX">    -10.00000000</i>
   <i name="EFERMI">      0.00000000</i>
  </separator>
  <separator name="writing" >
   <i type="int" name="NWRITE">     2</i>
   <i type="logical" name="LWAVE"> F  </i>
   <i type="logical" name="LCHARG"> F  </i>
   <i type="logical" name="LPARD"> F  </i>
   <i type="logical" name="LVTOT"> F  </i>
   <i type="logical" name="LVHAR"> F  </i>
   <i type="logical" name="LELF"> F  </i>
   <i type="logical" name="LOPTICS"> F  </i>
   <v name="STM">      0.00000000      0.00000000      0.00000000      0.00000000      0.00000000      0.00000000      0.00000000</v>
  </separator>
  <separator name="performance" >
   <i type="int" name="NPAR">     4</i>
   <i type="int" name="NSIM">     4</i>
   <i type="int" name="NBLK">    -1</i>
   <i type="logical" name="LPLANE"> T  </i>
   <i type="logical" name="LSCALAPACK"> T  </i>
   <i type="logical" name="LSCAAWARE"> F  </i>
   <i type="logical" name="LSCALU"> F  </i>
   <i type="logical" name="LASYNC"> F  </i>
   <i type="logical" name="LORBITALREAL"> F  </i>
  </separator>
  <separator name="miscellaneous" >
   <i type="int" name="IDIOT">     3</i>
   <i type="logical" name="LMUSIC"> F  </i>
   <v name="POMASS">    107.86800000    196.96600000</v>
   <v name="DARWINR">      0.00000000      0.00000000</v>
   <v name="DARWINV">      1.00000000      1.00000000</v>
   <i type="logical" name="LCORR"> T  </i>
  </separator>
  <i type="logical" name="GGA_COMPAT"> T  </i>
  <i type="logical" name="LBERRY"> F  </i>
  <i type="int" name="ICORELEVEL">     0</i>
  <i type="logical" name="LDAU"> F  </i>
  <i type="int" name="I_CONSTRAINED_M">     0</i>
  <separator name="electronic exchange-correlation" >
   <i type="string" name="GGA">--</i>
   <i type="int" name="VOSKOWN">     0</i>
   <i type="logical" name="LHFCALC"> F  </i>
   <i type="string" name="PRECFOCK"></i>
   <i type="logical" name="LSYMGRAD"> F  </i>
   <i type="logical" name="LHFONE"> F  </i>
   <i type="logical" name="LRHFCALC"> F  </i>
   <i type="logical" name="LTHOMAS"> F  </i>
   <i type="logical" name="LMODELHF"> F  </i>
   <i name="ENCUT4O">     -1.00000000</i>
   <i type="int" name="EXXOEP">     0</i>
   <i type="int" name="FOURORBIT">     0</i>
   <i name="AEXX">      0.00000000</i>
   <i name="HFALPHA">      0.00000000</i>
   <i name="MCALPHA">      0.00000000</i>
   <i name="ALDAX">      1.00000000</i>
   <i name="AGGAX">      1.00000000</i>
   <i name="ALDAC">      1.00000000</i>
   <i name="AGGAC">      1.00000000</i>
   <i type="int" name="NKREDX">     1</i>
   <i type="int" name="NKREDY">     1</i>
   <i type="int" name="NKREDZ">     1</i>
   <i type="logical" name="SHIFTRED"> F  </i>
   <i type="logical" name="ODDONLY"> F  </i>
   <i type="logical" name="EVENONLY"> F  </i>
   <i type="int" name="LMAXFOCK">     0</i>
   <i type="int" name="NMAXFOCKAE">     0</i>
   <i type="logical" name="LFOCKAEDFT"> F  </i>
   <i name="HFSCREEN">      0.00000000</i>
   <i name="HFSCREENC">      0.00000000</i>
   <i type="int" name="NBANDSGWLOW">     0</i>
  </separator>
  <separator name="vdW DFT" >
   <i type="logical" name="LUSE_VDW"> F  </i>
   <i name="Zab_VDW">     -0.84910000</i>
   <i name="PARAM1">      0.12340000</i>
   <i name="PARAM2">      1.00000000</i>
   <i name="PARAM3">      0.00000000</i>
  </separator>
  <separator name="model GW" >
   <i type="int" name="MODEL_GW">     0</i>
   <i name="MODEL_EPS0">     10.69023510</i>
   <i name="MODEL_ALPHA">      1.00000000</i>
  </separator>
  <separator name="linear response parameters" >
   <i type="logical" name="LEPSILON"> F  </i>
   <i type="logical" name="LRPA"> F  </i>
   <i type="logical" name="LNABLA"> F  </i>
   <i type="logical" name="LVEL"> F  </i>
   <i type="int" name="KINTER">     0</i>
   <i name="CSHIFT">      0.10000000</i>
   <i name="OMEGAMAX">     -1.00000000</i>
   <i name="DEG_THRESHOLD">      0.00200000</i>
  </separator>
  <separator name="orbital magnetization" >
   <i type="logical" name="NUCIND"> F  </i>
   <v name="MAGPOS">      0.00000000      0.00000000      0.00000000</v>
   <i type="logical" name="LNICSALL"> T  </i>
   <i type="logical" name="ORBITALMAG"> F  </i>
   <i type="logical" name="LMAGBLOCH"> F  </i>
   <i type="logical" name="LCHIMAG"> F  </i>
   <i type="logical" name="LGAUGE"> T  </i>
   <i type="int" name="MAGATOM">     0</i>
   <v name="MAGDIPOL">      0.00000000      0.00000000      0.00000000</v>
   <v name="AVECCONST">      0.00000000      0.00000000      0.00000000</v>
  </separator>
  <separator name="response functions" >
   <i type="logical" name="LADDER"> F  </i>
   <i type="logical" name="LFXC"> F  </i>
   <i type="logical" name="LHARTREE"> T  </i>
   <i type="int" name="IBSE">     0</i>
   <i type="logical" name="LTCTE"> F  </i>
   <i type="logical" name="LTETE"> F  </i>
   <i type="logical" name="LTRIPLET"> F  </i>
   <i type="logical" name="LFXCEPS"> F  </i>
   <i type="logical" name="LFXHEG"> F  </i>
   <i type="logical" name="L2ORDER"> F  </i>
   <i type="logical" name="LUSEW"> F  </i>
   <i name="ENCUTGW">     -2.00000000</i>
   <i name="ENCUTGWSOFT">     -2.00000000</i>
   <i name="ENCUTLF">     -1.00000000</i>
   <i type="int" name="LMAXMP2">    -1</i>
   <i name="SCISSOR">      0.00000000</i>
   <i type="int" name="NOMEGA">     0</i>
   <i type="int" name="NOMEGAR">     0</i>
   <i type="int" name="NBANDSGW">    -1</i>
   <i type="int" name="NBANDSO">    -1</i>
   <i type="int" name="NBANDSV">    -1</i>
   <i type="int" name="NELM">   100</i>
   <i type="int" name="DIM">     3</i>
   <i type="int" name="ANTIRES">     0</i>
   <i name="OMEGAMAX">    -30.00000000</i>
   <i name="OMEGAMIN">    -30.00000000</i>
   <i name="OMEGATL">   -200.00000000</i>
   <i type="int" name="OMEGAGRID">     0</i>
   <i name="CSHIFT">     -0.10000000</i>
   <i type="logical" name="SELFENERGY"> F  </i>
   <i type="logical" name="LSPECTRAL"> F  </i>
   <i type="logical" name="ODDONLYGW"> F  </i>
   <i type="logical" name="EVENONLYGW"> F  </i>
   <i type="int" name="NKREDLFX">     1</i>
   <i type="int" name="NKREDLFY">     1</i>
   <i type="int" name="NKREDLFZ">     1</i>
   <i type="int" name="MAXMEM">  1800</i>
   <i type="int" name="TELESCOPE">     0</i>
   <i type="int" name="TAUPAR">     1</i>
  </separator>
  <separator name="External order field" >
   <i name="OFIELD_KAPPA">      0.00000000</i>
   <v name="OFIELD_K">      0.00000000      0.00000000      0.00000000</v>
   <i name="OFIELD_Q6_NEAR">      0.00000000</i>
   <i name="OFIELD_Q6_FAR">      0.00000000</i>
   <i name="OFIELD_A">      0.00000000</i>
  </separator>
 </parameters>
 <atominfo>
  <atoms>       6 </atoms>
  <types>       2 </types>
  <array name="atoms" >
   <dimension dim="1">ion</dimension>
   <field type="string">element</field>
   <field type="int">atomtype</field>
   <set>
    <rc><c>Ag</c><c>   1</c></rc>
    <rc><c>Ag</c><c>   1</c></rc>
    <rc><c>Ag</c><c>   1</c></rc>
    <rc><c>Ag</c><c>   1</c></rc>
    <rc><c>Au</c><c>   2</c></rc>
    <rc><c>Au</c><c>   2</c></rc>
   </set>
  </array>
  <array name="atomtypes" >
   <dimension dim="1">type</dimension>
   <field type="int">atomspertype</field>
   <field type="string">element</field>
   <field>mass</field>
   <field>valence</field>
   <field type="string">pseudopotential</field>
   <set>
    <rc><c>   4</c><c>Ag</c><c>    107.86800000</c><c>     11.00000000</c><c>  PAW_PBE Ag 02Apr2005                  </c></rc>
    <rc><c>   2</c><c>Au</c><c>    196.96600000</c><c>     11.00000000</c><c>  PAW_PBE Au 04Oct2007                  </c></rc>
   </set>
  </array>
 </atominfo>
 <structure name="initialpos" >
  <crystal>
   <varray name="basis" >
    <v>       0.00000000       2.06606749      -2.06606749 </v>
    <v>       0.00000000      -2.06606749      -2.06606749 </v>
    <v>     -12.52184291       0.00000000       0.00000000 </v>
   </varray>
   <i name="volume">    106.90235097 </i>
   <varray name="rec_basis" >
    <v>       0.00000000       0.24200565      -0.24200565 </v>
    <v>       0.00000000      -0.24200565      -0.24200565 </v>
    <v>      -0.07986045       0.00000000       0.00000000 </v>
   </varray>
  </crystal>
  <varray name="positions" >
   <v>       0.50000000       0.50000000       0.83333333 </v>
   <v>       0.50000000       0.50000000       0.49972000 </v>
   <v>       0.00000000       0.00000000       0.33333333 </v>
   <v>       0.50000000       0.50000000       0.16694667 </v>
   <v>       0.00000000       0.00000000       0.00023080 </v>
   <v>       0.00000000       0.00000000       0.66643586 </v>
  </varray>
 </structure>
 <calculation>
  <scstep>
   <time name="dav">    5.47    5.48</time>
   <time name="total">    5.53    5.54</time>
   <energy>
    <i name="alphaZ">    321.70879260 </i>
    <i name="ewald">  -5780.35498772 </i>
    <i name="hartreedc">  -1096.67366430 </i>
    <i name="XCdc">    -11.12354361 </i>
    <i name="pawpsdc">   5762.04360401 </i>
    <i name="pawaedc">  -5531.41736657 </i>
    <i name="eentropy">     -0.00375719 </i>
    <i name="bandstr">    783.63102671 </i>
    <i name="atom">   6001.21416313 </i>
    <i name="e_fr_energy">    449.02426707 </i>
    <i name="e_wo_entrp">    449.02802426 </i>
    <i name="e_0_energy">    449.02551946 </i>
   </energy>
  </scstep>
  <scstep>
   <time name="dav">    5.72    5.72</time>
   <time name="total">    5.74    5.75</time>
   <energy>
    <i name="e_fr_energy">     -7.51646509 </i>
    <i name="e_wo_entrp">     -7.51745833 </i>
    <i name="e_0_energy">     -7.51679617 </i>
   </energy>
  </scstep>
  <scstep>
   <time name="dav">    6.02    6.03</time>
   <time name="total">    6.04    6.06</time>
   <energy>
    <i name="e_fr_energy">    -19.01467998 </i>
    <i name="e_wo_entrp">    -19.01578994 </i>
    <i name="e_0_energy">    -19.01504996 </i>
   </energy>
  </scstep>
  <scstep>
   <time name="dav">    5.75    5.76</time>
   <time name="total">    5.77    5.79</time>
   <energy>
    <i name="e_fr_energy">    -19.09455478 </i>
    <i name="e_wo_entrp">    -19.09562793 </i>
    <i name="e_0_energy">    -19.09491250 </i>
   </energy>
  </scstep>
  <scstep>
   <time name="dav">    6.13    6.13</time>
   <time name="total">    6.50    6.51</time>
   <energy>
    <i name="e_fr_energy">    -19.09525410 </i>
    <i name="e_wo_entrp">    -19.09632714 </i>
    <i name="e_0_energy">    -19.09561178 </i>
   </energy>
  </scstep>
  <scstep>
   <time name="diag">    1.41    1.42</time>
   <time name="diis">    2.63    2.63</time>
   <time name="orth">    0.23    0.23</time>
   <time name="total">    4.68    4.70</time>
   <energy>
    <i name="e_fr_energy">    -17.63553703 </i>
    <i name="e_wo_entrp">    -17.63732448 </i>
    <i name="e_0_energy">    -17.63613284 </i>
   </energy>
  </scstep>
  <scstep>
   <time name="diag">    1.41    1.41</time>
   <time name="diis">    2.61    2.61</time>
   <time name="orth">    0.23    0.23</time>
   <time name="total">    4.65    4.67</time>
   <energy>
    <i name="e_fr_energy">    -17.57738289 </i>
    <i name="e_wo_entrp">    -17.57820129 </i>
    <i name="e_0_energy">    -17.57765569 </i>
   </energy>
  </scstep>
  <scstep>
   <time name="diag">    1.41    1.41</time>
   <time name="diis">    2.62    2.62</time>
   <time name="orth">    0.23    0.23</time>
   <time name="total">    4.67    4.68</time>
   <energy>
    <i name="e_fr_energy">    -17.56735239 </i>
    <i name="e_wo_entrp">    -17.56916301 </i>
    <i name="e_0_energy">    -17.56795593 </i>
   </energy>
  </scstep>
  <scstep>
   <time name="diag">    1.41    1.41</time>
   <time name="diis">    2.64    2.64</time>
   <time name="orth">    0.22    0.22</time>
   <time name="total">    4.69    4.70</time>
   <energy>
    <i name="e_fr_energy">    -17.56079455 </i>
    <i name="e_wo_entrp">    -17.56210743 </i>
    <i name="e_0_energy">    -17.56123218 </i>
   </energy>
  </scstep>
  <scstep>
   <time name="diag">    1.41    1.41</time>
   <time name="diis">    2.62    2.63</time>
   <time name="orth">    0.23    0.23</time>
   <time name="total">    4.68    4.69</time>
   <energy>
    <i name="e_fr_energy">    -17.56078013 </i>
    <i name="e_wo_entrp">    -17.56208411 </i>
    <i name="e_0_energy">    -17.56121479 </i>
   </energy>
  </scstep>
  <scstep>
   <time name="diag">    1.41    1.41</time>
   <time name="diis">    2.62    2.62</time>
   <time name="orth">    0.23    0.23</time>
   <time name="total">    4.67    4.68</time>
   <energy>
    <i name="e_fr_energy">    -17.56079168 </i>
    <i name="e_wo_entrp">    -17.56210370 </i>
    <i name="e_0_energy">    -17.56122902 </i>
   </energy>
  </scstep>
  <scstep>
   <time name="diag">    1.44    1.44</time>
   <time name="diis">    1.85    1.85</time>
   <time name="orth">    0.23    0.23</time>
   <time name="total">    3.92    3.94</time>
   <energy>
    <i name="e_fr_energy">    -17.56079587 </i>
    <i name="e_wo_entrp">    -17.56210743 </i>
    <i name="e_0_energy">    -17.56123306 </i>
   </energy>
  </scstep>
  <scstep>
   <time name="diag">    1.41    1.41</time>
   <time name="diis">    1.60    1.60</time>
   <time name="orth">    0.23    0.23</time>
   <time name="total">    3.31    3.32</time>
   <energy>
    <i name="alphaZ">    321.70879260 </i>
    <i name="ewald">  -5780.35498772 </i>
    <i name="hartreedc">  -1025.49323383 </i>
    <i name="XCdc">    -13.92098150 </i>
    <i name="pawpsdc">   6449.13237548 </i>
    <i name="pawaedc">  -6233.14659849 </i>
    <i name="eentropy">      0.00131026 </i>
    <i name="bandstr">    263.29836499 </i>
    <i name="atom">   6001.21416313 </i>
    <i name="e_fr_energy">    -17.56079507 </i>
    <i name="e_wo_entrp">    -17.56210534 </i>
    <i name="e_0_energy">    -17.56123183 </i>
   </energy>
  </scstep>
  <structure>
   <crystal>
    <varray name="basis" >
     <v>       0.00000000       2.06606749      -2.06606749 </v>
     <v>       0.00000000      -2.06606749      -2.06606749 </v>
     <v>     -12.52184291       0.00000000       0.00000000 </v>
    </varray>
    <i name="volume">    106.90235097 </i>
    <varray name="rec_basis" >
     <v>       0.00000000       0.24200565      -0.24200565 </v>
     <v>       0.00000000      -0.24200565      -0.24200565 </v>
     <v>      -0.07986045       0.00000000       0.00000000 </v>
    </varray>
   </crystal>
   <varray name="positions" >
    <v>       0.50000000       0.50000000       0.83333333 </v>
    <v>       0.50000000       0.50000000       0.49972000 </v>
    <v>       0.00000000       0.00000000       0.33333333 </v>
    <v>       0.50000000       0.50000000       0.16694667 </v>
    <v>       0.00000000       0.00000000       0.00023080 </v>
    <v>       0.00000000       0.00000000       0.66643586 </v>
   </varray>
  </structure>
  <varray name="forces" >
   <v>       0.00000000       0.00000000       0.00000000 </v>
   <v>       0.00863472       0.00000000       0.00000000 </v>
   <v>       0.00000000       0.00000000       0.00000000 </v>
   <v>      -0.00863472       0.00000000       0.00000000 </v>
   <v>       0.00904347       0.00000000       0.00000000 </v>
   <v>      -0.00904347       0.00000000       0.00000000 </v>
  </varray>
  <varray name="stress" >
   <v>      -0.08364317       0.00000000       0.00000000 </v>
   <v>       0.00000000      -0.39852212       0.00000000 </v>
   <v>       0.00000000       0.00000000      -0.39852212 </v>
  </varray>
  <energy>
   <i name="e_fr_energy">    -17.56079507 </i>
   <i name="e_wo_entrp">    -17.56123183 </i>
   <i name="e_0_energy">      0.00131026 </i>
  </energy>
  <time name="totalsc">   68.64   68.87</time>
  <eigenvalues>
   <array>
    <dimension dim="1">band</dimension>
    <dimension dim="2">kpoint</dimension>
    <dimension dim="3">spin</dimension>
    <field>eigene</field>
    <field>occ</field>
    <set>
     <set comment="spin 1">
      <set comment="kpoint 1">
       <r>   -0.1820    1.0000 </r>
       <r>    0.6265    1.0000 </r>
       <r>    1.4640    1.0000 </r>
       <r>    1.8602    1.0000 </r>
       <r>    1.9867    1.0000 </r>
       <r>    2.1770    1.0000 </r>
       <r>    2.2663    1.0000 </r>
       <r>    2.2969    1.0000 </r>
       <r>    2.3736    1.0000 </r>
       <r>    3.0809    1.0000 </r>
       <r>    3.0876    1.0000 </r>
       <r>    3.5023    1.0000 </r>
       <r>    3.5507    1.0000 </r>
       <r>    3.5507    1.0000 </r>
       <r>    3.9492    1.0000 </r>
       <r>    3.9492    1.0000 </r>
       <r>    4.0070    1.0000 </r>
       <r>    4.0070    1.0000 </r>
       <r>    4.1441    1.0000 </r>
       <r>    4.2958    1.0000 </r>
       <r>    4.5249    1.0000 </r>
       <r>    4.6325    1.0000 </r>
       <r>    4.7497    1.0000 </r>
       <r>    4.7521    1.0000 </r>
       <r>    4.8672    1.0000 </r>
       <r>    4.8672    1.0000 </r>
       <r>    5.0117    1.0000 </r>
       <r>    5.2533    1.0000 </r>
       <r>    5.2533    1.0000 </r>
       <r>    5.6797    1.0000 </r>
       <r>    5.7218    1.0000 </r>
       <r>    5.7778    1.0000 </r>
       <r>    5.8038    1.0000 </r>
       <r>    5.8245    1.0000 </r>
       <r>    5.8245    1.0000 </r>
       <r>    9.5112    0.0000 </r>
       <r>   14.1636    0.0000 </r>
       <r>   18.5075    0.0000 </r>
       <r>   18.5075    0.0000 </r>
       <r>   19.7194    0.0000 </r>
      </set>
      <set comment="kpoint 2">
       <r>   -0.1448    1.0000 </r>
       <r>    0.6592    1.0000 </r>
       <r>    1.4926    1.0000 </r>
       <r>    1.8805    1.0000 </r>
       <r>    2.0055    1.0000 </r>
       <r>    2.1992    1.0000 </r>
       <r>    2.2866    1.0000 </r>
       <r>    2.3138    1.0000 </r>
       <r>    2.3887    1.0000 </r>
       <r>    3.0874    1.0000 </r>
       <r>    3.0945    1.0000 </r>
       <r>    3.5162    1.0000 </r>
       <r>    3.5403    1.0000 </r>
       <r>    3.5593    1.0000 </r>
       <r>    3.9284    1.0000 </r>
       <r>    3.9450    1.0000 </r>
       <r>    3.9600    1.0000 </r>
       <r>    3.9991    1.0000 </r>
       <r>    4.1965    1.0000 </r>
       <r>    4.3269    1.0000 </r>
       <r>    4.5205    1.0000 </r>
       <r>    4.6335    1.0000 </r>
       <r>    4.7216    1.0000 </r>
       <r>    4.7417    1.0000 </r>
       <r>    4.7527    1.0000 </r>
       <r>    4.8776    1.0000 </r>
       <r>    4.9651    1.0000 </r>
       <r>    5.0750    1.0000 </r>
       <r>    5.2880    1.0000 </r>
       <r>    5.6715    1.0000 </r>
       <r>    5.6734    1.0000 </r>
       <r>    5.7610    1.0000 </r>
       <r>    5.8223    1.0000 </r>
       <r>    5.9312    1.0000 </r>
       <r>    6.0050    1.0000 </r>
       <r>    9.6246    0.0000 </r>
       <r>   14.1575    0.0000 </r>
       <r>   18.2393    0.0000 </r>
       <r>   18.5732    0.0000 </r>
       <r>   19.6336    0.0000 </r>
      </set>
      <set comment="kpoint 3">
       <r>   -0.0345    1.0000 </r>
       <r>    0.7534    1.0000 </r>
       <r>    1.5736    1.0000 </r>
       <r>    1.9347    1.0000 </r>
       <r>    2.0664    1.0000 </r>
       <r>    2.2466    1.0000 </r>
       <r>    2.3279    1.0000 </r>
       <r>    2.3805    1.0000 </r>
       <r>    2.4511    1.0000 </r>
       <r>    3.1117    1.0000 </r>
       <r>    3.1186    1.0000 </r>
       <r>    3.5098    1.0000 </r>
       <r>    3.5563    1.0000 </r>
       <r>    3.5848    1.0000 </r>
       <r>    3.8823    1.0000 </r>
       <r>    3.8873    1.0000 </r>
       <r>    3.9325    1.0000 </r>
       <r>    3.9759    1.0000 </r>
       <r>    4.2806    1.0000 </r>
       <r>    4.4004    1.0000 </r>
       <r>    4.5058    1.0000 </r>
       <r>    4.5200    1.0000 </r>
       <r>    4.6227    1.0000 </r>
       <r>    4.6546    1.0000 </r>
       <r>    4.7036    1.0000 </r>
       <r>    4.8058    1.0000 </r>
       <r>    4.8795    1.0000 </r>
       <r>    4.8935    1.0000 </r>
       <r>    5.3447    1.0000 </r>
       <r>    5.4780    1.0000 </r>
       <r>    5.6483    1.0000 </r>
       <r>    5.7168    1.0000 </r>
       <r>    5.8149    1.0000 </r>
       <r>    6.2203    1.0000 </r>
       <r>    6.3647    1.0000 </r>
       <r>    9.9400    0.0000 </r>
       <r>   14.1365    0.0000 </r>
       <r>   17.5650    0.0000 </r>
       <r>   18.7695    0.0000 </r>
       <r>   18.8543    0.0000 </r>
      </set>
      <set comment="kpoint 4">
       <r>    0.1448    1.0000 </r>
       <r>    0.8975    1.0000 </r>
       <r>    1.6918    1.0000 </r>
       <r>    2.0086    1.0000 </r>
       <r>    2.1781    1.0000 </r>
       <r>    2.2885    1.0000 </r>
       <r>    2.3615    1.0000 </r>
       <r>    2.5189    1.0000 </r>
       <r>    2.5812    1.0000 </r>
       <r>    3.1690    1.0000 </r>
       <r>    3.1709    1.0000 </r>
       <r>    3.4622    1.0000 </r>
       <r>    3.6161    1.0000 </r>
       <r>    3.6256    1.0000 </r>
       <r>    3.8236    1.0000 </r>
       <r>    3.8315    1.0000 </r>
       <r>    3.9121    1.0000 </r>
       <r>    3.9387    1.0000 </r>
       <r>    4.2586    1.0000 </r>
       <r>    4.3096    1.0000 </r>
       <r>    4.4770    1.0000 </r>
       <r>    4.5061    1.0000 </r>
       <r>    4.5105    1.0000 </r>
       <r>    4.5641    1.0000 </r>
       <r>    4.6184    1.0000 </r>
       <r>    4.7264    1.0000 </r>
       <r>    4.8183    1.0000 </r>
       <r>    4.9052    1.0000 </r>
       <r>    5.2040    1.0000 </r>
       <r>    5.3738    1.0000 </r>
       <r>    5.6130    1.0000 </r>
       <r>    5.6665    1.0000 </r>
       <r>    5.8009    1.0000 </r>
       <r>    6.5747    1.0000 </r>
       <r>    6.7588    1.0000 </r>
       <r>   10.4059    0.0000 </r>
       <r>   14.0878    0.0000 </r>
       <r>   16.6995    0.0000 </r>
       <r>   17.7971    0.0000 </r>
       <r>   18.0828    0.0000 </r>
      </set>
      <set comment="kpoint 5">
       <r>    0.3855    1.0000 </r>
       <r>    1.0707    1.0000 </r>
       <r>    1.8213    1.0000 </r>
       <r>    2.0938    1.0000 </r>
       <r>    2.3215    1.0000 </r>
       <r>    2.3381    1.0000 </r>
       <r>    2.3871    1.0000 </r>
       <r>    2.7147    1.0000 </r>
       <r>    2.7632    1.0000 </r>
       <r>    3.2702    1.0000 </r>
       <r>    3.2860    1.0000 </r>
       <r>    3.4022    1.0000 </r>
       <r>    3.6777    1.0000 </r>
       <r>    3.6795    1.0000 </r>
       <r>    3.7807    1.0000 </r>
       <r>    3.7838    1.0000 </r>
       <r>    3.8867    1.0000 </r>
       <r>    3.8902    1.0000 </r>
       <r>    4.0387    1.0000 </r>
       <r>    4.1391    1.0000 </r>
       <r>    4.4291    1.0000 </r>
       <r>    4.4570    1.0000 </r>
       <r>    4.4968    1.0000 </r>
       <r>    4.5201    1.0000 </r>
       <r>    4.6127    1.0000 </r>
       <r>    4.7811    1.0000 </r>
       <r>    4.7906    1.0000 </r>
       <r>    4.9094    1.0000 </r>
       <r>    4.9141    1.0000 </r>
       <r>    5.3446    1.0000 </r>
       <r>    5.5681    1.0000 </r>
       <r>    5.6436    1.0000 </r>
       <r>    5.7797    1.0000 </r>
       <r>    6.9574    1.0000 </r>
       <r>    7.1658    1.0000 </r>
       <r>   10.9773    0.0000 </r>
       <r>   13.9653    0.0000 </r>
       <r>   15.8184    0.0000 </r>
       <r>   16.6700    0.0000 </r>
       <r>   16.9563    0.0000 </r>
      </set>
      <set comment="kpoint 6">
       <r>    0.6755    1.0000 </r>
       <r>    1.2445    1.0000 </r>
       <r>    1.9329    1.0000 </r>
       <r>    2.1881    1.0000 </r>
       <r>    2.3420    1.0000 </r>
       <r>    2.4027    1.0000 </r>
       <r>    2.5339    1.0000 </r>
       <r>    2.9392    1.0000 </r>
       <r>    2.9676    1.0000 </r>
       <r>    3.3295    1.0000 </r>
       <r>    3.4465    1.0000 </r>
       <r>    3.4847    1.0000 </r>
       <r>    3.7100    1.0000 </r>
       <r>    3.7264    1.0000 </r>
       <r>    3.7363    1.0000 </r>
       <r>    3.7888    1.0000 </r>
       <r>    3.8342    1.0000 </r>
       <r>    3.8714    1.0000 </r>
       <r>    3.8897    1.0000 </r>
       <r>    3.9640    1.0000 </r>
       <r>    4.3346    1.0000 </r>
       <r>    4.3389    1.0000 </r>
       <r>    4.3946    1.0000 </r>
       <r>    4.5432    1.0000 </r>
       <r>    4.6016    1.0000 </r>
       <r>    4.7734    1.0000 </r>
       <r>    4.7946    1.0000 </r>
       <r>    4.8823    1.0000 </r>
       <r>    4.9233    1.0000 </r>
       <r>    5.2695    1.0000 </r>
       <r>    5.5155    1.0000 </r>
       <r>    5.6507    1.0000 </r>
       <r>    5.7515    1.0000 </r>
       <r>    7.3571    1.0008 </r>
       <r>    7.5781    1.0130 </r>
       <r>   11.6237    0.0000 </r>
       <r>   13.6248    0.0000 </r>
       <r>   15.1205    0.0000 </r>
       <r>   15.5325    0.0000 </r>
       <r>   15.8568    0.0000 </r>
      </set>
      <set comment="kpoint 7">
       <r>    0.9959    1.0000 </r>
       <r>    1.3909    1.0000 </r>
       <r>    2.0116    1.0000 </r>
       <r>    2.2904    1.0000 </r>
       <r>    2.3407    1.0000 </r>
       <r>    2.4037    1.0000 </r>
       <r>    2.7480    1.0000 </r>
       <r>    3.1351    1.0000 </r>
       <r>    3.1416    1.0000 </r>
       <r>    3.2616    1.0000 </r>
       <r>    3.6261    1.0000 </r>
       <r>    3.6853    1.0000 </r>
       <r>    3.7108    1.0000 </r>
       <r>    3.7329    1.0000 </r>
       <r>    3.7754    1.0000 </r>
       <r>    3.8119    1.0000 </r>
       <r>    3.8523    1.0000 </r>
       <r>    3.8734    1.0000 </r>
       <r>    3.9061    1.0000 </r>
       <r>    3.9284    1.0000 </r>
       <r>    4.1993    1.0000 </r>
       <r>    4.2163    1.0000 </r>
       <r>    4.2698    1.0000 </r>
       <r>    4.3260    1.0000 </r>
       <r>    4.7101    1.0000 </r>
       <r>    4.7444    1.0000 </r>
       <r>    4.9074    1.0000 </r>
       <r>    4.9336    1.0000 </r>
       <r>    5.0253    1.0000 </r>
       <r>    5.1941    1.0000 </r>
       <r>    5.4579    1.0000 </r>
       <r>    5.6650    1.0000 </r>
       <r>    5.7172    1.0000 </r>
       <r>    7.7696    1.0354 </r>
       <r>    7.9901    0.8509 </r>
       <r>   12.3249    0.0000 </r>
       <r>   12.9299    0.0000 </r>
       <r>   14.4149    0.0000 </r>
       <r>   14.5402    0.0000 </r>
       <r>   15.0632    0.0000 </r>
      </set>
      <set comment="kpoint 8">
       <r>    1.3159    1.0000 </r>
       <r>    1.4955    1.0000 </r>
       <r>    2.0667    1.0000 </r>
       <r>    2.3111    1.0000 </r>
       <r>    2.3591    1.0000 </r>
       <r>    2.4293    1.0000 </r>
       <r>    2.9621    1.0000 </r>
       <r>    3.1976    1.0000 </r>
       <r>    3.2275    1.0000 </r>
       <r>    3.2292    1.0000 </r>
       <r>    3.6187    1.0000 </r>
       <r>    3.6821    1.0000 </r>
       <r>    3.7011    1.0000 </r>
       <r>    3.7189    1.0000 </r>
       <r>    3.8208    1.0000 </r>
       <r>    3.9054    1.0000 </r>
       <r>    3.9753    1.0000 </r>
       <r>    3.9874    1.0000 </r>
       <r>    4.0285    1.0000 </r>
       <r>    4.0662    1.0000 </r>
       <r>    4.0973    1.0000 </r>
       <r>    4.1511    1.0000 </r>
       <r>    4.2626    1.0000 </r>
       <r>    4.3243    1.0000 </r>
       <r>    4.6867    1.0000 </r>
       <r>    4.8342    1.0000 </r>
       <r>    4.9407    1.0000 </r>
       <r>    5.0429    1.0000 </r>
       <r>    5.1517    1.0000 </r>
       <r>    5.2267    1.0000 </r>
       <r>    5.4011    1.0000 </r>
       <r>    5.6744    1.0000 </r>
       <r>    5.6773    1.0000 </r>
       <r>    8.1913    0.3308 </r>
       <r>    8.3912   -0.0060 </r>
       <r>   12.0368    0.0000 </r>
       <r>   13.0381    0.0000 </r>
       <r>   13.3682    0.0000 </r>
       <r>   13.5952    0.0000 </r>
       <r>   14.9621    0.0000 </r>
      </set>
      <set comment="kpoint 9">
       <r>    1.5610    1.0000 </r>
       <r>    1.5832    1.0000 </r>
       <r>    2.1194    1.0000 </r>
       <r>    2.2565    1.0000 </r>
       <r>    2.3455    1.0000 </r>
       <r>    2.5475    1.0000 </r>
       <r>    3.1466    1.0000 </r>
       <r>    3.1574    1.0000 </r>
       <r>    3.2582    1.0000 </r>
       <r>    3.2601    1.0000 </r>
       <r>    3.5904    1.0000 </r>
       <r>    3.6559    1.0000 </r>
       <r>    3.6623    1.0000 </r>
       <r>    3.6697    1.0000 </r>
       <r>    3.7556    1.0000 </r>
       <r>    3.7938    1.0000 </r>
       <r>    3.9449    1.0000 </r>
       <r>    3.9770    1.0000 </r>
       <r>    4.0984    1.0000 </r>
       <r>    4.1886    1.0000 </r>
       <r>    4.2001    1.0000 </r>
       <r>    4.2061    1.0000 </r>
       <r>    4.6021    1.0000 </r>
       <r>    4.6043    1.0000 </r>
       <r>    4.8664    1.0000 </r>
       <r>    4.9342    1.0000 </r>
       <r>    4.9464    1.0000 </r>
       <r>    5.1470    1.0000 </r>
       <r>    5.2122    1.0000 </r>
       <r>    5.3560    1.0000 </r>
       <r>    5.5150    1.0000 </r>
       <r>    5.6328    1.0000 </r>
       <r>    5.6762    1.0000 </r>
       <r>    8.6076   -0.0234 </r>
       <r>    8.7506   -0.0064 </r>
       <r>   11.0992    0.0000 </r>
       <r>   12.3115    0.0000 </r>
       <r>   12.6746    0.0000 </r>
       <r>   13.8603    0.0000 </r>
       <r>   15.0787    0.0000 </r>
      </set>
      <set comment="kpoint 10">
       <r>    1.5989    1.0000 </r>
       <r>    1.7439    1.0000 </r>
       <r>    2.1307    1.0000 </r>
       <r>    2.1899    1.0000 </r>
       <r>    2.4127    1.0000 </r>
       <r>    2.6797    1.0000 </r>
       <r>    3.1137    1.0000 </r>
       <r>    3.2784    1.0000 </r>
       <r>    3.2908    1.0000 </r>
       <r>    3.3286    1.0000 </r>
       <r>    3.5531    1.0000 </r>
       <r>    3.5546    1.0000 </r>
       <r>    3.6285    1.0000 </r>
       <r>    3.6299    1.0000 </r>
       <r>    3.6320    1.0000 </r>
       <r>    3.7446    1.0000 </r>
       <r>    3.8405    1.0000 </r>
       <r>    3.8805    1.0000 </r>
       <r>    4.1605    1.0000 </r>
       <r>    4.2091    1.0000 </r>
       <r>    4.4303    1.0000 </r>
       <r>    4.4540    1.0000 </r>
       <r>    4.5170    1.0000 </r>
       <r>    4.9011    1.0000 </r>
       <r>    4.9833    1.0000 </r>
       <r>    5.0197    1.0000 </r>
       <r>    5.1645    1.0000 </r>
       <r>    5.3359    1.0000 </r>
       <r>    5.4999    1.0000 </r>
       <r>    5.5507    1.0000 </r>
       <r>    5.5842    1.0000 </r>
       <r>    5.6714    1.0000 </r>
       <r>    5.9044    1.0000 </r>
       <r>    8.9520   -0.0004 </r>
       <r>    8.9764   -0.0002 </r>
       <r>   10.1767    0.0000 </r>
       <r>   11.4577    0.0000 </r>
       <r>   11.9514    0.0000 </r>
       <r>   14.4779    0.0000 </r>
       <r>   14.9038    0.0000 </r>
      </set>
      <set comment="kpoint 11">
       <r>    1.6203    1.0000 </r>
       <r>    1.8173    1.0000 </r>
       <r>    2.0801    1.0000 </r>
       <r>    2.1276    1.0000 </r>
       <r>    2.5612    1.0000 </r>
       <r>    2.8104    1.0000 </r>
       <r>    3.1047    1.0000 </r>
       <r>    3.3213    1.0000 </r>
       <r>    3.3295    1.0000 </r>
       <r>    3.3977    1.0000 </r>
       <r>    3.4436    1.0000 </r>
       <r>    3.5151    1.0000 </r>
       <r>    3.5891    1.0000 </r>
       <r>    3.6052    1.0000 </r>
       <r>    3.6090    1.0000 </r>
       <r>    3.6856    1.0000 </r>
       <r>    3.7569    1.0000 </r>
       <r>    3.8024    1.0000 </r>
       <r>    4.1282    1.0000 </r>
       <r>    4.3231    1.0000 </r>
       <r>    4.4425    1.0000 </r>
       <r>    4.6516    1.0000 </r>
       <r>    4.6693    1.0000 </r>
       <r>    4.8385    1.0000 </r>
       <r>    5.0552    1.0000 </r>
       <r>    5.1456    1.0000 </r>
       <r>    5.1886    1.0000 </r>
       <r>    5.3457    1.0000 </r>
       <r>    5.5331    1.0000 </r>
       <r>    5.6628    1.0000 </r>
       <r>    6.1666    1.0000 </r>
       <r>    6.1954    1.0000 </r>
       <r>    6.3947    1.0000 </r>
       <r>    8.8760   -0.0012 </r>
       <r>    8.9845   -0.0002 </r>
       <r>    9.2986    0.0000 </r>
       <r>   11.0024    0.0000 </r>
       <r>   11.6298    0.0000 </r>
       <r>   13.7222    0.0000 </r>
       <r>   14.1697    0.0000 </r>
      </set>
      <set comment="kpoint 12">
       <r>    1.6318    1.0000 </r>
       <r>    1.8549    1.0000 </r>
       <r>    2.0252    1.0000 </r>
       <r>    2.0837    1.0000 </r>
       <r>    2.6780    1.0000 </r>
       <r>    2.9155    1.0000 </r>
       <r>    3.1235    1.0000 </r>
       <r>    3.2669    1.0000 </r>
       <r>    3.3662    1.0000 </r>
       <r>    3.3823    1.0000 </r>
       <r>    3.4685    1.0000 </r>
       <r>    3.5237    1.0000 </r>
       <r>    3.5494    1.0000 </r>
       <r>    3.5933    1.0000 </r>
       <r>    3.6013    1.0000 </r>
       <r>    3.6299    1.0000 </r>
       <r>    3.6987    1.0000 </r>
       <r>    3.7505    1.0000 </r>
       <r>    4.1096    1.0000 </r>
       <r>    4.3927    1.0000 </r>
       <r>    4.4265    1.0000 </r>
       <r>    4.7621    1.0000 </r>
       <r>    4.8136    1.0000 </r>
       <r>    4.8260    1.0000 </r>
       <r>    5.0460    1.0000 </r>
       <r>    5.2079    1.0000 </r>
       <r>    5.2095    1.0000 </r>
       <r>    5.3769    1.0000 </r>
       <r>    5.4818    1.0000 </r>
       <r>    5.6549    1.0000 </r>
       <r>    6.9064    1.0000 </r>
       <r>    6.9300    1.0000 </r>
       <r>    6.9810    1.0000 </r>
       <r>    8.3659    0.0135 </r>
       <r>    8.4900   -0.0354 </r>
       <r>    8.4975   -0.0355 </r>
       <r>   11.1437    0.0000 </r>
       <r>   11.7615    0.0000 </r>
       <r>   12.9300    0.0000 </r>
       <r>   13.4218    0.0000 </r>
      </set>
      <set comment="kpoint 13">
       <r>    1.6356    1.0000 </r>
       <r>    1.8706    1.0000 </r>
       <r>    2.0001    1.0000 </r>
       <r>    2.0678    1.0000 </r>
       <r>    2.7198    1.0000 </r>
       <r>    2.9571    1.0000 </r>
       <r>    3.1596    1.0000 </r>
       <r>    3.1968    1.0000 </r>
       <r>    3.3954    1.0000 </r>
       <r>    3.4047    1.0000 </r>
       <r>    3.4427    1.0000 </r>
       <r>    3.5282    1.0000 </r>
       <r>    3.5573    1.0000 </r>
       <r>    3.5902    1.0000 </r>
       <r>    3.5968    1.0000 </r>
       <r>    3.6019    1.0000 </r>
       <r>    3.6757    1.0000 </r>
       <r>    3.7319    1.0000 </r>
       <r>    4.1036    1.0000 </r>
       <r>    4.3751    1.0000 </r>
       <r>    4.4787    1.0000 </r>
       <r>    4.7182    1.0000 </r>
       <r>    4.8649    1.0000 </r>
       <r>    4.9138    1.0000 </r>
       <r>    5.0152    1.0000 </r>
       <r>    5.2153    1.0000 </r>
       <r>    5.2273    1.0000 </r>
       <r>    5.4068    1.0000 </r>
       <r>    5.4461    1.0000 </r>
       <r>    5.6517    1.0000 </r>
       <r>    7.5078    1.0063 </r>
       <r>    7.5546    1.0103 </r>
       <r>    7.6309    1.0202 </r>
       <r>    7.7100    1.0318 </r>
       <r>    7.8782    0.9994 </r>
       <r>    7.8993    0.9816 </r>
       <r>   11.3872    0.0000 </r>
       <r>   11.9629    0.0000 </r>
       <r>   12.5152    0.0000 </r>
       <r>   13.0423    0.0000 </r>
      </set>
      <set comment="kpoint 14">
       <r>   -0.1076    1.0000 </r>
       <r>    0.6920    1.0000 </r>
       <r>    1.5215    1.0000 </r>
       <r>    1.9015    1.0000 </r>
       <r>    2.0234    1.0000 </r>
       <r>    2.2240    1.0000 </r>
       <r>    2.3097    1.0000 </r>
       <r>    2.3279    1.0000 </r>
       <r>    2.4009    1.0000 </r>
       <r>    3.0927    1.0000 </r>
       <r>    3.1002    1.0000 </r>
       <r>    3.5226    1.0000 </r>
       <r>    3.5304    1.0000 </r>
       <r>    3.5749    1.0000 </r>
       <r>    3.9093    1.0000 </r>
       <r>    3.9264    1.0000 </r>
       <r>    3.9466    1.0000 </r>
       <r>    4.0023    1.0000 </r>
       <r>    4.2199    1.0000 </r>
       <r>    4.3481    1.0000 </r>
       <r>    4.5176    1.0000 </r>
       <r>    4.6033    1.0000 </r>
       <r>    4.6317    1.0000 </r>
       <r>    4.7126    1.0000 </r>
       <r>    4.7844    1.0000 </r>
       <r>    4.8660    1.0000 </r>
       <r>    4.8851    1.0000 </r>
       <r>    5.0864    1.0000 </r>
       <r>    5.2476    1.0000 </r>
       <r>    5.5950    1.0000 </r>
       <r>    5.6503    1.0000 </r>
       <r>    5.7345    1.0000 </r>
       <r>    5.8221    1.0000 </r>
       <r>    6.0533    1.0000 </r>
       <r>    6.1599    1.0000 </r>
       <r>    9.7328    0.0000 </r>
       <r>   14.1519    0.0000 </r>
       <r>   18.2907    0.0000 </r>
       <r>   18.3142    0.0000 </r>
       <r>   19.5281    0.0000 </r>
      </set>
      <set comment="kpoint 15">
       <r>    0.0027    1.0000 </r>
       <r>    0.7870    1.0000 </r>
       <r>    1.6035    1.0000 </r>
       <r>    1.9577    1.0000 </r>
       <r>    2.0819    1.0000 </r>
       <r>    2.2778    1.0000 </r>
       <r>    2.3573    1.0000 </r>
       <r>    2.3883    1.0000 </r>
       <r>    2.4571    1.0000 </r>
       <r>    3.1132    1.0000 </r>
       <r>    3.1208    1.0000 </r>
       <r>    3.4872    1.0000 </r>
       <r>    3.5711    1.0000 </r>
       <r>    3.6045    1.0000 </r>
       <r>    3.8698    1.0000 </r>
       <r>    3.8721    1.0000 </r>
       <r>    3.9392    1.0000 </r>
       <r>    3.9863    1.0000 </r>
       <r>    4.2673    1.0000 </r>
       <r>    4.3908    1.0000 </r>
       <r>    4.4147    1.0000 </r>
       <r>    4.4996    1.0000 </r>
       <r>    4.5653    1.0000 </r>
       <r>    4.6441    1.0000 </r>
       <r>    4.7297    1.0000 </r>
       <r>    4.8354    1.0000 </r>
       <r>    4.8844    1.0000 </r>
       <r>    4.9463    1.0000 </r>
       <r>    5.2947    1.0000 </r>
       <r>    5.4001    1.0000 </r>
       <r>    5.6197    1.0000 </r>
       <r>    5.6817    1.0000 </r>
       <r>    5.8146    1.0000 </r>
       <r>    6.3225    1.0000 </r>
       <r>    6.4772    1.0000 </r>
       <r>   10.0357    0.0000 </r>
       <r>   14.1327    0.0000 </r>
       <r>   17.6229    0.0000 </r>
       <r>   18.4879    0.0000 </r>
       <r>   18.8644    0.0000 </r>
      </set>
      <set comment="kpoint 16">
       <r>    0.1817    1.0000 </r>
       <r>    0.9322    1.0000 </r>
       <r>    1.7232    1.0000 </r>
       <r>    2.0332    1.0000 </r>
       <r>    2.1911    1.0000 </r>
       <r>    2.3211    1.0000 </r>
       <r>    2.3919    1.0000 </r>
       <r>    2.5252    1.0000 </r>
       <r>    2.5863    1.0000 </r>
       <r>    3.1640    1.0000 </r>
       <r>    3.1669    1.0000 </r>
       <r>    3.4373    1.0000 </r>
       <r>    3.6317    1.0000 </r>
       <r>    3.6456    1.0000 </r>
       <r>    3.8167    1.0000 </r>
       <r>    3.8319    1.0000 </r>
       <r>    3.9215    1.0000 </r>
       <r>    3.9504    1.0000 </r>
       <r>    4.1780    1.0000 </r>
       <r>    4.2559    1.0000 </r>
       <r>    4.3900    1.0000 </r>
       <r>    4.4680    1.0000 </r>
       <r>    4.4962    1.0000 </r>
       <r>    4.6440    1.0000 </r>
       <r>    4.6453    1.0000 </r>
       <r>    4.7853    1.0000 </r>
       <r>    4.8506    1.0000 </r>
       <r>    4.9071    1.0000 </r>
       <r>    5.1427    1.0000 </r>
       <r>    5.3426    1.0000 </r>
       <r>    5.5888    1.0000 </r>
       <r>    5.6229    1.0000 </r>
       <r>    5.7968    1.0000 </r>
       <r>    6.6571    1.0000 </r>
       <r>    6.8476    1.0000 </r>
       <r>   10.4877    0.0000 </r>
       <r>   14.0878    0.0000 </r>
       <r>   16.7513    0.0000 </r>
       <r>   17.8284    0.0000 </r>
       <r>   18.1158    0.0000 </r>
      </set>
[...]
       <r>    5.2144    1.0000 </r>
       <r>    5.3272    1.0000 </r>
       <r>    5.3424    1.0000 </r>
       <r>    5.3943    1.0000 </r>
       <r>    5.4128    1.0000 </r>
       <r>    5.4638    1.0000 </r>
       <r>    5.6595    1.0000 </r>
       <r>    6.3920    1.0000 </r>
       <r>    6.4142    1.0000 </r>
       <r>    9.7183    0.0000 </r>
       <r>    9.9666    0.0000 </r>
       <r>   10.5385    0.0000 </r>
       <r>   10.7014    0.0000 </r>
       <r>   12.2185    0.0000 </r>
       <r>   13.2751    0.0000 </r>
       <r>   13.3973    0.0000 </r>
       <r>   13.8711    0.0000 </r>
       <r>   14.0440    0.0000 </r>
       <r>   14.4673    0.0000 </r>
      </set>
      <set comment="kpoint 363">
       <r>    1.9370    1.0000 </r>
       <r>    1.9664    1.0000 </r>
       <r>    2.0328    1.0000 </r>
       <r>    2.0400    1.0000 </r>
       <r>    2.1472    1.0000 </r>
       <r>    2.1492    1.0000 </r>
       <r>    2.1882    1.0000 </r>
       <r>    2.1904    1.0000 </r>
       <r>    2.6083    1.0000 </r>
       <r>    2.6573    1.0000 </r>
       <r>    3.2018    1.0000 </r>
       <r>    3.2482    1.0000 </r>
       <r>    3.2570    1.0000 </r>
       <r>    3.3062    1.0000 </r>
       <r>    4.4727    1.0000 </r>
       <r>    4.6301    1.0000 </r>
       <r>    4.9857    1.0000 </r>
       <r>    5.0007    1.0000 </r>
       <r>    5.0465    1.0000 </r>
       <r>    5.2057    1.0000 </r>
       <r>    5.2162    1.0000 </r>
       <r>    5.2172    1.0000 </r>
       <r>    5.3419    1.0000 </r>
       <r>    5.3679    1.0000 </r>
       <r>    5.4113    1.0000 </r>
       <r>    5.4272    1.0000 </r>
       <r>    5.4280    1.0000 </r>
       <r>    5.6666    1.0000 </r>
       <r>    6.4513    1.0000 </r>
       <r>    6.4644    1.0000 </r>
       <r>   10.1616    0.0000 </r>
       <r>   10.2551    0.0000 </r>
       <r>   10.3923    0.0000 </r>
       <r>   10.4341    0.0000 </r>
       <r>   12.6001    0.0000 </r>
       <r>   13.2652    0.0000 </r>
       <r>   13.5236    0.0000 </r>
       <r>   13.9041    0.0000 </r>
       <r>   14.0194    0.0000 </r>
       <r>   14.0742    0.0000 </r>
      </set>
      <set comment="kpoint 364">
       <r>    1.9203    1.0000 </r>
       <r>    1.9555    1.0000 </r>
       <r>    2.0232    1.0000 </r>
       <r>    2.0325    1.0000 </r>
       <r>    2.1262    1.0000 </r>
       <r>    2.1262    1.0000 </r>
       <r>    2.1727    1.0000 </r>
       <r>    2.1727    1.0000 </r>
       <r>    2.5910    1.0000 </r>
       <r>    2.6427    1.0000 </r>
       <r>    3.2301    1.0000 </r>
       <r>    3.2301    1.0000 </r>
       <r>    3.2853    1.0000 </r>
       <r>    3.2853    1.0000 </r>
       <r>    4.4713    1.0000 </r>
       <r>    4.6301    1.0000 </r>
       <r>    5.0251    1.0000 </r>
       <r>    5.0251    1.0000 </r>
       <r>    5.0677    1.0000 </r>
       <r>    5.2103    1.0000 </r>
       <r>    5.2942    1.0000 </r>
       <r>    5.2942    1.0000 </r>
       <r>    5.3645    1.0000 </r>
       <r>    5.3651    1.0000 </r>
       <r>    5.3916    1.0000 </r>
       <r>    5.3920    1.0000 </r>
       <r>    5.4410    1.0000 </r>
       <r>    5.6754    1.0000 </r>
       <r>    6.5159    1.0000 </r>
       <r>    6.5166    1.0000 </r>
       <r>   10.3326    0.0000 </r>
       <r>   10.3326    0.0000 </r>
       <r>   10.5304    0.0000 </r>
       <r>   10.5304    0.0000 </r>
       <r>   12.9075    0.0000 </r>
       <r>   13.0193    0.0000 </r>
       <r>   13.7283    0.0000 </r>
       <r>   13.7283    0.0000 </r>
       <r>   14.3594    0.0000 </r>
       <r>   14.3608    0.0000 </r>
      </set>
     </set>
    </set>
   </array>
  </eigenvalues>
  <separator name="orbital magnetization" >
   <v name="MAGDIPOLOUT">      0.00000000      0.00000000      0.00000000</v>
  </separator>
  <dos>
   <i name="efermi">      8.12992248 </i>
   <total>
    <array>
     <dimension dim="1">gridpoints</dimension>
     <dimension dim="2">spin</dimension>
     <field>energy</field>
     <field>total</field>
     <field>integrated</field>
     <set>
      <set comment="spin 1">
       <r>    -3.1820     0.0000     0.0000 </r>
       <r>    -3.0957     0.0000     0.0000 </r>
       <r>    -3.0094     0.0000     0.0000 </r>
       <r>    -2.9230     0.0000     0.0000 </r>
       <r>    -2.8367     0.0000     0.0000 </r>
       <r>    -2.7503     0.0000     0.0000 </r>
       <r>    -2.6640     0.0000     0.0000 </r>
       <r>    -2.5777     0.0000     0.0000 </r>
       <r>    -2.4913     0.0000     0.0000 </r>
       <r>    -2.4050     0.0000     0.0000 </r>
       <r>    -2.3187     0.0000     0.0000 </r>
       <r>    -2.2323     0.0000     0.0000 </r>
       <r>    -2.1460     0.0000     0.0000 </r>
       <r>    -2.0596     0.0000     0.0000 </r>
       <r>    -1.9733     0.0000     0.0000 </r>
       <r>    -1.8870     0.0000     0.0000 </r>
       <r>    -1.8006     0.0000     0.0000 </r>
       <r>    -1.7143     0.0000     0.0000 </r>
       <r>    -1.6280     0.0000     0.0000 </r>
       <r>    -1.5416     0.0000     0.0000 </r>
       <r>    -1.4553     0.0000     0.0000 </r>
       <r>    -1.3689     0.0000     0.0000 </r>
       <r>    -1.2826     0.0000     0.0000 </r>
       <r>    -1.1963     0.0000     0.0000 </r>
       <r>    -1.1099     0.0000     0.0000 </r>
       <r>    -1.0236     0.0000     0.0000 </r>
       <r>    -0.9372    -0.0001     0.0000 </r>
       <r>    -0.8509    -0.0004     0.0000 </r>
       <r>    -0.7646    -0.0012    -0.0001 </r>
       <r>    -0.6782    -0.0030    -0.0004 </r>
       <r>    -0.5919    -0.0062    -0.0009 </r>
       <r>    -0.5056    -0.0094    -0.0018 </r>
       <r>    -0.4192    -0.0083    -0.0025 </r>
       <r>    -0.3329     0.0054    -0.0020 </r>
       <r>    -0.2465     0.0395     0.0014 </r>
       <r>    -0.1602     0.0952     0.0096 </r>
       <r>    -0.0739     0.1632     0.0237 </r>
       <r>     0.0125     0.2270     0.0433 </r>
       <r>     0.0988     0.2740     0.0670 </r>
       <r>     0.1851     0.3041     0.0932 </r>
       <r>     0.2715     0.3291     0.1216 </r>
       <r>     0.3578     0.3643     0.1531 </r>
       <r>     0.4442     0.4178     0.1892 </r>
       <r>     0.5305     0.4874     0.2313 </r>
       <r>     0.6168     0.5624     0.2798 </r>
       <r>     0.7032     0.6299     0.3342 </r>
       <r>     0.7895     0.6813     0.3930 </r>
       <r>     0.8759     0.7161     0.4549 </r>
       <r>     0.9622     0.7392     0.5187 </r>
       <r>     1.0485     0.7562     0.5840 </r>
       <r>     1.1349     0.7739     0.6508 </r>
       <r>     1.2212     0.8088     0.7206 </r>
       <r>     1.3075     0.8916     0.7976 </r>
       <r>     1.3939     1.0562     0.8888 </r>
       <r>     1.4802     1.3147     1.0023 </r>
       <r>     1.5666     1.6483     1.1446 </r>
       <r>     1.6529     2.0431     1.3210 </r>
       <r>     1.7392     2.5600     1.5420 </r>
       <r>     1.8256     3.3634     1.8324 </r>
       <r>     1.9119     4.6500     2.2339 </r>
       <r>     1.9982     6.5126     2.7962 </r>
       <r>     2.0846     8.8439     3.5597 </r>
       <r>     2.1709    11.3534     4.5400 </r>
       <r>     2.2573    13.6749     5.7206 </r>
       <r>     2.3436    15.4798     7.0571 </r>
       <r>     2.4299    16.5419     8.4853 </r>
       <r>     2.5163    16.7618     9.9325 </r>
       <r>     2.6026    16.1953    11.3308 </r>
       <r>     2.6890    15.0900    12.6336 </r>
       <r>     2.7753    13.8707    13.8312 </r>
       <r>     2.8616    13.0121    14.9546 </r>
       <r>     2.9480    12.8242    16.0619 </r>
       <r>     3.0343    13.2862    17.2090 </r>
       <r>     3.1206    14.0751    18.4242 </r>
       <r>     3.2070    14.8033    19.7023 </r>
       <r>     3.2933    15.3055    21.0237 </r>
       <r>     3.3797    15.7675    22.3851 </r>
       <r>     3.4660    16.5843    23.8169 </r>
       <r>     3.5523    18.0161    25.3724 </r>
       <r>     3.6387    19.8645    27.0874 </r>
       <r>     3.7250    21.4420    28.9387 </r>
       <r>     3.8113    21.9565    30.8344 </r>
       <r>     3.8977    21.0863    32.6549 </r>
       <r>     3.9840    19.2680    34.3185 </r>
       <r>     4.0704    17.4047    35.8212 </r>
       <r>     4.1567    16.2370    37.2231 </r>
       <r>     4.2430    15.9281    38.5983 </r>
       <r>     4.3294    16.1454    39.9922 </r>
       <r>     4.4157    16.4413    41.4117 </r>
       <r>     4.5021    16.5549    42.8411 </r>
       <r>     4.5884    16.4480    44.2612 </r>
       <r>     4.6747    16.1643    45.6568 </r>
       <r>     4.7611    15.7171    47.0137 </r>
       <r>     4.8474    15.1175    48.3190 </r>
       <r>     4.9337    14.4820    49.5693 </r>
       <r>     5.0201    14.0570    50.7830 </r>
       <r>     5.1064    14.0798    51.9986 </r>
       <r>     5.1928    14.5712    53.2566 </r>
       <r>     5.2791    15.2543    54.5737 </r>
       <r>     5.3654    15.7019    55.9293 </r>
       <r>     5.4518    15.5867    57.2751 </r>
       <r>     5.5381    14.8062    58.5534 </r>
       <r>     5.6244    13.4025    59.7105 </r>
       <r>     5.7108    11.4499    60.6991 </r>
       <r>     5.7971     9.0857    61.4835 </r>
       <r>     5.8835     6.6070    62.0540 </r>
       <r>     5.9698     4.4265    62.4362 </r>
       <r>     6.0561     2.8722    62.6841 </r>
       <r>     6.1425     2.0249    62.8590 </r>
       <r>     6.2288     1.7289    63.0082 </r>
       <r>     6.3152     1.7231    63.1570 </r>
       <r>     6.4015     1.7739    63.3102 </r>
       <r>     6.4878     1.7505    63.4613 </r>
       <r>     6.5742     1.6373    63.6027 </r>
       <r>     6.6605     1.4953    63.7318 </r>
       <r>     6.7468     1.4004    63.8527 </r>
       <r>     6.8332     1.3928    63.9729 </r>
       <r>     6.9195     1.4593    64.0989 </r>
       <r>     7.0059     1.5456    64.2324 </r>
       <r>     7.0922     1.5920    64.3698 </r>
       <r>     7.1785     1.5735    64.5057 </r>
       <r>     7.2649     1.5146    64.6364 </r>
       <r>     7.3512     1.4635    64.7628 </r>
       <r>     7.4375     1.4517    64.8881 </r>
       <r>     7.5239     1.4788    65.0158 </r>
       <r>     7.6102     1.5287    65.1478 </r>
       <r>     7.6966     1.5872    65.2848 </r>
       <r>     7.7829     1.6425    65.4266 </r>
       <r>     7.8692     1.6785    65.5716 </r>
       <r>     7.9556     1.6804    65.7166 </r>
       <r>     8.0419     1.6490    65.8590 </r>
       <r>     8.1283     1.6024    65.9974 </r>
       <r>     8.2146     1.5659    66.1326 </r>
       <r>     8.3009     1.5599    66.2672 </r>
       <r>     8.3873     1.5948    66.4049 </r>
       <r>     8.4736     1.6633    66.5485 </r>
       <r>     8.5599     1.7345    66.6983 </r>
       <r>     8.6463     1.7652    66.8507 </r>
       <r>     8.7326     1.7305    67.0001 </r>
       <r>     8.8190     1.6471    67.1423 </r>
       <r>     8.9053     1.5624    67.2772 </r>
       <r>     8.9916     1.5163    67.4081 </r>
       <r>     9.0780     1.5141    67.5388 </r>
       <r>     9.1643     1.5370    67.6715 </r>
       <r>     9.2506     1.5712    67.8072 </r>
       <r>     9.3370     1.6164    67.9467 </r>
       <r>     9.4233     1.6669    68.0907 </r>
       <r>     9.5097     1.6987    68.2373 </r>
       <r>     9.5960     1.6862    68.3829 </r>
       <r>     9.6823     1.6309    68.5237 </r>
       <r>     9.7687     1.5632    68.6587 </r>
       <r>     9.8550     1.5133    68.7893 </r>
       <r>     9.9414     1.4880    68.9178 </r>
       <r>    10.0277     1.4780    69.0454 </r>
       <r>    10.1140     1.4776    69.1730 </r>
       <r>    10.2004     1.4880    69.3015 </r>
       <r>    10.2867     1.5043    69.4313 </r>
       <r>    10.3730     1.5105    69.5618 </r>
       <r>    10.4594     1.4928    69.6906 </r>
       <r>    10.5457     1.4522    69.8160 </r>
       <r>    10.6321     1.4047    69.9373 </r>
       <r>    10.7184     1.3719    70.0558 </r>
       <r>    10.8047     1.3745    70.1744 </r>
       <r>    10.8911     1.4283    70.2977 </r>
       <r>    10.9774     1.5324    70.4301 </r>
       <r>    11.0637     1.6554    70.5730 </r>
       <r>    11.1501     1.7459    70.7237 </r>
       <r>    11.2364     1.7721    70.8767 </r>
       <r>    11.3228     1.7492    71.0277 </r>
       <r>    11.4091     1.7215    71.1764 </r>
       <r>    11.4954     1.7160    71.3245 </r>
       <r>    11.5818     1.7217    71.4732 </r>
       <r>    11.6681     1.7118    71.6210 </r>
       <r>    11.7545     1.6801    71.7660 </r>
       <r>    11.8408     1.6548    71.9089 </r>
       <r>    11.9271     1.6795    72.0539 </r>
       <r>    12.0135     1.7757    72.2072 </r>
       <r>    12.0998     1.9152    72.3726 </r>
       <r>    12.1861     2.0311    72.5479 </r>
       <r>    12.2725     2.0674    72.7264 </r>
       <r>    12.3588     2.0216    72.9010 </r>
       <r>    12.4452     1.9383    73.0683 </r>
       <r>    12.5315     1.8649    73.2293 </r>
       <r>    12.6178     1.8176    73.3862 </r>
       <r>    12.7042     1.7867    73.5405 </r>
       <r>    12.7905     1.7629    73.6927 </r>
       <r>    12.8768     1.7520    73.8440 </r>
       <r>    12.9632     1.7657    73.9964 </r>
       <r>    13.0495     1.8067    74.1524 </r>
       <r>    13.1359     1.8641    74.3133 </r>
       <r>    13.2222     1.9190    74.4790 </r>
       <r>    13.3085     1.9502    74.6474 </r>
       <r>    13.3949     1.9431    74.8152 </r>
       <r>    13.4812     1.9027    74.9794 </r>
       <r>    13.5676     1.8574    75.1398 </r>
       <r>    13.6539     1.8418    75.2988 </r>
       <r>    13.7402     1.8686    75.4602 </r>
       <r>    13.8266     1.9181    75.6258 </r>
       <r>    13.9129     1.9548    75.7945 </r>
       <r>    13.9992     1.9571    75.9635 </r>
       <r>    14.0856     1.9362    76.1307 </r>
       <r>    14.1719     1.9270    76.2970 </r>
       <r>    14.2583     1.9509    76.4655 </r>
       <r>    14.3446     1.9836    76.6367 </r>
       <r>    14.4309     1.9696    76.8068 </r>
       <r>    14.5173     1.8779    76.9689 </r>
       <r>    14.6036     1.7408    77.1192 </r>
       <r>    14.6900     1.6296    77.2599 </r>
       <r>    14.7763     1.5939    77.3975 </r>
       <r>    14.8626     1.6276    77.5381 </r>
       <r>    14.9490     1.6830    77.6834 </r>
       <r>    15.0353     1.7076    77.8308 </r>
       <r>    15.1216     1.6719    77.9751 </r>
       <r>    15.2080     1.5795    78.1115 </r>
       <r>    15.2943     1.4607    78.2376 </r>
       <r>    15.3807     1.3458    78.3538 </r>
       <r>    15.4670     1.2377    78.4607 </r>
       <r>    15.5533     1.1150    78.5570 </r>
       <r>    15.6397     0.9689    78.6406 </r>
       <r>    15.7260     0.8269    78.7120 </r>
       <r>    15.8123     0.7321    78.7752 </r>
       <r>    15.8987     0.7038    78.8360 </r>
       <r>    15.9850     0.7245    78.8985 </r>
       <r>    16.0714     0.7584    78.9640 </r>
       <r>    16.1577     0.7722    79.0307 </r>
       <r>    16.2440     0.7429    79.0948 </r>
       <r>    16.3304     0.6633    79.1521 </r>
       <r>    16.4167     0.5501    79.1996 </r>
       <r>    16.5031     0.4432    79.2378 </r>
       <r>    16.5894     0.3849    79.2711 </r>
       <r>    16.6757     0.3922    79.3049 </r>
       <r>    16.7621     0.4449    79.3433 </r>
       <r>    16.8484     0.5004    79.3866 </r>
       <r>    16.9347     0.5227    79.4317 </r>
       <r>    17.0211     0.5018    79.4750 </r>
       <r>    17.1074     0.4521    79.5140 </r>
       <r>    17.1938     0.3975    79.5484 </r>
       <r>    17.2801     0.3564    79.5791 </r>
       <r>    17.3664     0.3330    79.6079 </r>
       <r>    17.4528     0.3189    79.6354 </r>
       <r>    17.5391     0.3024    79.6615 </r>
       <r>    17.6254     0.2807    79.6857 </r>
       <r>    17.7118     0.2619    79.7084 </r>
       <r>    17.7981     0.2565    79.7305 </r>
       <r>    17.8845     0.2664    79.7535 </r>
       <r>    17.9708     0.2831    79.7780 </r>
       <r>    18.0571     0.2933    79.8033 </r>
       <r>    18.1435     0.2873    79.8281 </r>
       <r>    18.2298     0.2676    79.8512 </r>
       <r>    18.3162     0.2480    79.8726 </r>
       <r>    18.4025     0.2417    79.8935 </r>
       <r>    18.4888     0.2469    79.9148 </r>
       <r>    18.5752     0.2467    79.9361 </r>
       <r>    18.6615     0.2259    79.9556 </r>
       <r>    18.7478     0.1844    79.9715 </r>
       <r>    18.8342     0.1338    79.9831 </r>
       <r>    18.9205     0.0856    79.9905 </r>
       <r>    19.0069     0.0459    79.9944 </r>
       <r>    19.0932     0.0174    79.9959 </r>
       <r>    19.1795     0.0011    79.9960 </r>
       <r>    19.2659    -0.0044    79.9956 </r>
       <r>    19.3522    -0.0023    79.9954 </r>
       <r>    19.4385     0.0034    79.9957 </r>
       <r>    19.5249     0.0093    79.9965 </r>
       <r>    19.6112     0.0126    79.9976 </r>
       <r>    19.6976     0.0125    79.9987 </r>
       <r>    19.7839     0.0094    79.9995 </r>
       <r>    19.8702     0.0053    80.0000 </r>
       <r>    19.9566     0.0019    80.0001 </r>
       <r>    20.0429     0.0000    80.0001 </r>
       <r>    20.1293    -0.0006    80.0001 </r>
       <r>    20.2156    -0.0005    80.0000 </r>
       <r>    20.3019    -0.0003    80.0000 </r>
       <r>    20.3883    -0.0001    80.0000 </r>
       <r>    20.4746     0.0000    80.0000 </r>
       <r>    20.5609     0.0000    80.0000 </r>
       <r>    20.6473     0.0000    80.0000 </r>
       <r>    20.7336     0.0000    80.0000 </r>
       <r>    20.8200     0.0000    80.0000 </r>
       <r>    20.9063     0.0000    80.0000 </r>
       <r>    20.9926     0.0000    80.0000 </r>
       <r>    21.0790     0.0000    80.0000 </r>
       <r>    21.1653     0.0000    80.0000 </r>
       <r>    21.2516     0.0000    80.0000 </r>
       <r>    21.3380     0.0000    80.0000 </r>
       <r>    21.4243     0.0000    80.0000 </r>
       <r>    21.5107     0.0000    80.0000 </r>
       <r>    21.5970     0.0000    80.0000 </r>
       <r>    21.6833     0.0000    80.0000 </r>
       <r>    21.7697     0.0000    80.0000 </r>
       <r>    21.8560     0.0000    80.0000 </r>
       <r>    21.9424     0.0000    80.0000 </r>
       <r>    22.0287     0.0000    80.0000 </r>
       <r>    22.1150     0.0000    80.0000 </r>
       <r>    22.2014     0.0000    80.0000 </r>
       <r>    22.2877     0.0000    80.0000 </r>
       <r>    22.3740     0.0000    80.0000 </r>
       <r>    22.4604     0.0000    80.0000 </r>
       <r>    22.5467     0.0000    80.0000 </r>
       <r>    22.6331     0.0000    80.0000 </r>
       <r>    22.7194     0.0000    80.0000 </r>
      </set>
     </set>
    </array>
   </total>
  </dos>
 </calculation>
 <structure name="finalpos" >
  <crystal>
   <varray name="basis" >
    <v>       0.00000000       2.06606749      -2.06606749 </v>
    <v>       0.00000000      -2.06606749      -2.06606749 </v>
    <v>     -12.52184291       0.00000000       0.00000000 </v>
   </varray>
   <i name="volume">    106.90235097 </i>
   <varray name="rec_basis" >
    <v>       0.00000000       0.24200565      -0.24200565 </v>
    <v>       0.00000000      -0.24200565      -0.24200565 </v>
    <v>      -0.07986045       0.00000000       0.00000000 </v>
   </varray>
  </crystal>
  <varray name="positions" >
   <v>       0.50000000       0.50000000       0.83333333 </v>
   <v>       0.50000000       0.50000000       0.49972000 </v>
   <v>       0.00000000       0.00000000       0.33333333 </v>
   <v>       0.50000000       0.50000000       0.16694667 </v>
   <v>       0.00000000       0.00000000       0.00023080 </v>
   <v>       0.00000000       0.00000000       0.66643586 </v>
  </varray>
 </structure>
</modeling>
