<?xml version="1.0" encoding="ISO-8859-1"?>
<modeling>
 <generator>
  <i name="program" type="string">vasp </i>
  <i name="version" type="string">5.3.5  </i>
  <i name="subversion" type="string">31Mar14 (build Jun 20 2014 13:15:13) complex                          parallel </i>
  <i name="platform" type="string">LinuxIFC </i>
  <i name="date" type="string">2025 11 27 </i>
  <i name="time" type="string">08:15:23 </i>
 </generator>
 <incar>
  <i type="string" name="PREC">accurate</i>
  <i type="int" name="IALGO">    68</i>
  <i type="logical" name="ADDGRID"> T  </i>
  <i type="int" name="NELM">   200</i>
  <i type="int" name="NELMIN">     4</i>
  <i type="int" name="IBRION">     2</i>
  <i name="EDIFF">      0.00000100</i>
  <i name="EDIFFG">     -0.02000000</i>
  <i type="int" name="NSW">    30</i>
  <i type="int" name="ISIF">     3</i>
  <i name="ENCUT">    500.00000000</i>
  <i type="logical" name="LREAL"> F  </i>
  <i type="int" name="ISMEAR">     1</i>
  <i name="SIGMA">      0.30000000</i>
  <i type="logical" name="LWAVE"> F  </i>
  <i type="logical" name="LCHARG"> F  </i>
  <i type="int" name="NELM">   200</i>
 </incar>
 <kpoints>
  <generation param="Auto">
   <i name="subdivisionlength">     70.00000000 </i>
   <v type="int" name="divisions">      28       28        5 </v>
   <v name="usershift">      0.00000000       0.00000000       0.00000000 </v>
   <v name="genvec1">      0.03571429       0.00000000       0.00000000 </v>
   <v name="genvec2">      0.00000000       0.03571429       0.00000000 </v>
   <v name="genvec3">      0.00000000       0.00000000       0.20000000 </v>
   <v name="shift">      0.00000000       0.00000000       0.00000000 </v>
  </generation>
  <varray name="kpointlist" >
   <v>       0.00000000       0.00000000       0.00000000 </v>
   <v>       0.03571429       0.00000000       0.00000000 </v>
   <v>       0.07142857       0.00000000       0.00000000 </v>
   <v>       0.10714286       0.00000000       0.00000000 </v>
   <v>       0.14285714       0.00000000       0.00000000 </v>
   <v>       0.17857143       0.00000000       0.00000000 </v>
   <v>       0.21428571       0.00000000       0.00000000 </v>
   <v>       0.25000000       0.00000000       0.00000000 </v>
   <v>       0.28571429       0.00000000       0.00000000 </v>
   <v>       0.32142857       0.00000000       0.00000000 </v>
   <v>       0.35714286       0.00000000       0.00000000 </v>
   <v>       0.39285714       0.00000000       0.00000000 </v>
   <v>       0.42857143       0.00000000       0.00000000 </v>
   <v>       0.46428571       0.00000000       0.00000000 </v>
   <v>       0.50000000       0.00000000       0.00000000 </v>
   <v>       0.03571429       0.03571429       0.00000000 </v>
   <v>       0.07142857       0.03571429       0.00000000 </v>
   <v>       0.10714286       0.03571429       0.00000000 </v>
   <v>       0.14285714       0.03571429       0.00000000 </v>
   <v>       0.17857143       0.03571429       0.00000000 </v>
   <v>       0.21428571       0.03571429       0.00000000 </v>
   <v>       0.25000000       0.03571429       0.00000000 </v>
   <v>       0.28571429       0.03571429       0.00000000 </v>
   <v>       0.32142857       0.03571429       0.00000000 </v>
   <v>       0.35714286       0.03571429       0.00000000 </v>
   <v>       0.39285714       0.03571429       0.00000000 </v>
   <v>       0.42857143       0.03571429       0.00000000 </v>
   <v>       0.46428571       0.03571429       0.00000000 </v>
   <v>       0.07142857       0.07142857       0.00000000 </v>
   <v>       0.10714286       0.07142857       0.00000000 </v>
   <v>       0.14285714       0.07142857       0.00000000 </v>
   <v>       0.17857143       0.07142857       0.00000000 </v>
   <v>       0.21428571       0.07142857       0.00000000 </v>
   <v>       0.25000000       0.07142857       0.00000000 </v>
   <v>       0.28571429       0.07142857       0.00000000 </v>
   <v>       0.32142857       0.07142857       0.00000000 </v>
   <v>       0.35714286       0.07142857       0.00000000 </v>
   <v>       0.39285714       0.07142857       0.00000000 </v>
   <v>       0.42857143       0.07142857       0.00000000 </v>
   <v>       0.46428571       0.07142857       0.00000000 </v>
   <v>       0.10714286       0.10714286       0.00000000 </v>
   <v>       0.14285714       0.10714286       0.00000000 </v>
   <v>       0.17857143       0.10714286       0.00000000 </v>
   <v>       0.21428571       0.10714286       0.00000000 </v>
   <v>       0.25000000       0.10714286       0.00000000 </v>
   <v>       0.28571429       0.10714286       0.00000000 </v>
   <v>       0.32142857       0.10714286       0.00000000 </v>
   <v>       0.35714286       0.10714286       0.00000000 </v>
   <v>       0.39285714       0.10714286       0.00000000 </v>
   <v>       0.42857143       0.10714286       0.00000000 </v>
   <v>       0.14285714       0.14285714       0.00000000 </v>
   <v>       0.17857143       0.14285714       0.00000000 </v>
   <v>       0.21428571       0.14285714       0.00000000 </v>
   <v>       0.25000000       0.14285714       0.00000000 </v>
   <v>       0.28571429       0.14285714       0.00000000 </v>
   <v>       0.32142857       0.14285714       0.00000000 </v>
   <v>       0.35714286       0.14285714       0.00000000 </v>
   <v>       0.39285714       0.14285714       0.00000000 </v>
   <v>       0.42857143       0.14285714       0.00000000 </v>
   <v>       0.17857143       0.17857143       0.00000000 </v>
   <v>       0.21428571       0.17857143       0.00000000 </v>
   <v>       0.25000000       0.17857143       0.00000000 </v>
   <v>       0.28571429       0.17857143       0.00000000 </v>
   <v>       0.32142857       0.17857143       0.00000000 </v>
   <v>       0.35714286       0.17857143       0.00000000 </v>
   <v>       0.39285714       0.17857143       0.00000000 </v>
   <v>       0.21428571       0.21428571       0.00000000 </v>
   <v>       0.25000000       0.21428571       0.00000000 </v>
   <v>       0.28571429       0.21428571       0.00000000 </v>
   <v>       0.32142857       0.21428571       0.00000000 </v>
   <v>       0.35714286       0.21428571       0.00000000 </v>
   <v>       0.39285714       0.21428571       0.00000000 </v>
   <v>       0.25000000       0.25000000       0.00000000 </v>
   <v>       0.28571429       0.25000000       0.00000000 </v>
   <v>       0.32142857       0.25000000       0.00000000 </v>
   <v>       0.35714286       0.25000000       0.00000000 </v>
   <v>       0.28571429       0.28571429       0.00000000 </v>
   <v>       0.32142857       0.28571429       0.00000000 </v>
   <v>       0.35714286       0.28571429       0.00000000 </v>
   <v>       0.32142857       0.32142857       0.00000000 </v>
   <v>       0.00000000       0.00000000       0.20000000 </v>
   <v>       0.03571429       0.00000000       0.20000000 </v>
   <v>       0.07142857       0.00000000       0.20000000 </v>
   <v>       0.10714286       0.00000000       0.20000000 </v>
   <v>       0.14285714       0.00000000       0.20000000 </v>
   <v>       0.17857143       0.00000000       0.20000000 </v>
   <v>       0.21428571       0.00000000       0.20000000 </v>
   <v>       0.25000000       0.00000000       0.20000000 </v>
   <v>       0.28571429       0.00000000       0.20000000 </v>
   <v>       0.32142857       0.00000000       0.20000000 </v>
   <v>       0.35714286       0.00000000       0.20000000 </v>
   <v>       0.39285714       0.00000000       0.20000000 </v>
   <v>       0.42857143       0.00000000       0.20000000 </v>
   <v>       0.46428571       0.00000000       0.20000000 </v>
   <v>       0.50000000       0.00000000       0.20000000 </v>
   <v>      -0.46428571       0.00000000       0.20000000 </v>
   <v>      -0.42857143       0.00000000       0.20000000 </v>
   <v>      -0.39285714       0.00000000       0.20000000 </v>
   <v>      -0.35714286       0.00000000       0.20000000 </v>
   <v>      -0.32142857       0.00000000       0.20000000 </v>
   <v>      -0.28571429       0.00000000       0.20000000 </v>
   <v>      -0.25000000       0.00000000       0.20000000 </v>
   <v>      -0.21428571       0.00000000       0.20000000 </v>
   <v>      -0.17857143       0.00000000       0.20000000 </v>
   <v>      -0.14285714       0.00000000       0.20000000 </v>
   <v>      -0.10714286       0.00000000       0.20000000 </v>
   <v>      -0.07142857       0.00000000       0.20000000 </v>
   <v>      -0.03571429       0.00000000       0.20000000 </v>
   <v>       0.03571429       0.03571429       0.20000000 </v>
   <v>       0.07142857       0.03571429       0.20000000 </v>
   <v>       0.10714286       0.03571429       0.20000000 </v>
   <v>       0.14285714       0.03571429       0.20000000 </v>
   <v>       0.17857143       0.03571429       0.20000000 </v>
   <v>       0.21428571       0.03571429       0.20000000 </v>
   <v>       0.25000000       0.03571429       0.20000000 </v>
   <v>       0.28571429       0.03571429       0.20000000 </v>
   <v>       0.32142857       0.03571429       0.20000000 </v>
   <v>       0.35714286       0.03571429       0.20000000 </v>
   <v>       0.39285714       0.03571429       0.20000000 </v>
   <v>       0.42857143       0.03571429       0.20000000 </v>
   <v>       0.46428571       0.03571429       0.20000000 </v>
   <v>       0.50000000       0.03571429       0.20000000 </v>
   <v>      -0.46428571       0.03571429       0.20000000 </v>
   <v>      -0.42857143       0.03571429       0.20000000 </v>
   <v>      -0.39285714       0.03571429       0.20000000 </v>
   <v>      -0.35714286       0.03571429       0.20000000 </v>
   <v>      -0.32142857       0.03571429       0.20000000 </v>
   <v>      -0.28571429       0.03571429       0.20000000 </v>
   <v>      -0.25000000       0.03571429       0.20000000 </v>
   <v>      -0.21428571       0.03571429       0.20000000 </v>
   <v>      -0.17857143       0.03571429       0.20000000 </v>
   <v>      -0.14285714       0.03571429       0.20000000 </v>
   <v>      -0.10714286       0.03571429       0.20000000 </v>
   <v>       0.07142857       0.07142857       0.20000000 </v>
   <v>       0.10714286       0.07142857       0.20000000 </v>
   <v>       0.14285714       0.07142857       0.20000000 </v>
   <v>       0.17857143       0.07142857       0.20000000 </v>
   <v>       0.21428571       0.07142857       0.20000000 </v>
   <v>       0.25000000       0.07142857       0.20000000 </v>
   <v>       0.28571429       0.07142857       0.20000000 </v>
   <v>       0.32142857       0.07142857       0.20000000 </v>
   <v>       0.35714286       0.07142857       0.20000000 </v>
   <v>       0.39285714       0.07142857       0.20000000 </v>
   <v>       0.42857143       0.07142857       0.20000000 </v>
   <v>       0.46428571       0.07142857       0.20000000 </v>
   <v>       0.50000000       0.07142857       0.20000000 </v>
   <v>      -0.46428571       0.07142857       0.20000000 </v>
   <v>      -0.42857143       0.07142857       0.20000000 </v>
   <v>      -0.39285714       0.07142857       0.20000000 </v>
   <v>      -0.35714286       0.07142857       0.20000000 </v>
   <v>      -0.32142857       0.07142857       0.20000000 </v>
   <v>      -0.28571429       0.07142857       0.20000000 </v>
   <v>      -0.25000000       0.07142857       0.20000000 </v>
   <v>      -0.21428571       0.07142857       0.20000000 </v>
   <v>      -0.17857143       0.07142857       0.20000000 </v>
   <v>       0.10714286       0.10714286       0.20000000 </v>
   <v>       0.14285714       0.10714286       0.20000000 </v>
   <v>       0.17857143       0.10714286       0.20000000 </v>
   <v>       0.21428571       0.10714286       0.20000000 </v>
   <v>       0.25000000       0.10714286       0.20000000 </v>
   <v>       0.28571429       0.10714286       0.20000000 </v>
   <v>       0.32142857       0.10714286       0.20000000 </v>
   <v>       0.35714286       0.10714286       0.20000000 </v>
   <v>       0.39285714       0.10714286       0.20000000 </v>
   <v>       0.42857143       0.10714286       0.20000000 </v>
   <v>       0.46428571       0.10714286       0.20000000 </v>
   <v>       0.50000000       0.10714286       0.20000000 </v>
   <v>      -0.46428571       0.10714286       0.20000000 </v>
   <v>      -0.42857143       0.10714286       0.20000000 </v>
   <v>      -0.39285714       0.10714286       0.20000000 </v>
   <v>      -0.35714286       0.10714286       0.20000000 </v>
   <v>      -0.32142857       0.10714286       0.20000000 </v>
   <v>      -0.28571429       0.10714286       0.20000000 </v>
   <v>      -0.25000000       0.10714286       0.20000000 </v>
   <v>       0.14285714       0.14285714       0.20000000 </v>
   <v>       0.17857143       0.14285714       0.20000000 </v>
   <v>       0.21428571       0.14285714       0.20000000 </v>
   <v>       0.25000000       0.14285714       0.20000000 </v>
   <v>       0.28571429       0.14285714       0.20000000 </v>
   <v>       0.32142857       0.14285714       0.20000000 </v>
   <v>       0.35714286       0.14285714       0.20000000 </v>
   <v>       0.39285714       0.14285714       0.20000000 </v>
   <v>       0.42857143       0.14285714       0.20000000 </v>
   <v>       0.46428571       0.14285714       0.20000000 </v>
   <v>       0.50000000       0.14285714       0.20000000 </v>
   <v>      -0.46428571       0.14285714       0.20000000 </v>
   <v>      -0.42857143       0.14285714       0.20000000 </v>
   <v>      -0.39285714       0.14285714       0.20000000 </v>
   <v>      -0.35714286       0.14285714       0.20000000 </v>
   <v>      -0.32142857       0.14285714       0.20000000 </v>
   <v>       0.17857143       0.17857143       0.20000000 </v>
   <v>       0.21428571       0.17857143       0.20000000 </v>
   <v>       0.25000000       0.17857143       0.20000000 </v>
   <v>       0.28571429       0.17857143       0.20000000 </v>
   <v>       0.32142857       0.17857143       0.20000000 </v>
   <v>       0.35714286       0.17857143       0.20000000 </v>
   <v>       0.39285714       0.17857143       0.20000000 </v>
   <v>       0.42857143       0.17857143       0.20000000 </v>
   <v>       0.46428571       0.17857143       0.20000000 </v>
   <v>       0.50000000       0.17857143       0.20000000 </v>
   <v>      -0.46428571       0.17857143       0.20000000 </v>
   <v>      -0.42857143       0.17857143       0.20000000 </v>
   <v>      -0.39285714       0.17857143       0.20000000 </v>
   <v>       0.21428571       0.21428571       0.20000000 </v>
   <v>       0.25000000       0.21428571       0.20000000 </v>
   <v>       0.28571429       0.21428571       0.20000000 </v>
   <v>       0.32142857       0.21428571       0.20000000 </v>
   <v>       0.35714286       0.21428571       0.20000000 </v>
   <v>       0.39285714       0.21428571       0.20000000 </v>
   <v>       0.42857143       0.21428571       0.20000000 </v>
   <v>       0.46428571       0.21428571       0.20000000 </v>
   <v>       0.50000000       0.21428571       0.20000000 </v>
   <v>      -0.46428571       0.21428571       0.20000000 </v>
   <v>       0.25000000       0.25000000       0.20000000 </v>
   <v>       0.28571429       0.25000000       0.20000000 </v>
   <v>       0.32142857       0.25000000       0.20000000 </v>
   <v>       0.35714286       0.25000000       0.20000000 </v>
   <v>       0.39285714       0.25000000       0.20000000 </v>
   <v>       0.42857143       0.25000000       0.20000000 </v>
   <v>       0.46428571       0.25000000       0.20000000 </v>
   <v>       0.28571429       0.28571429       0.20000000 </v>
   <v>       0.32142857       0.28571429       0.20000000 </v>
   <v>       0.35714286       0.28571429       0.20000000 </v>
   <v>       0.39285714       0.28571429       0.20000000 </v>
   <v>       0.32142857       0.32142857       0.20000000 </v>
   <v>       0.00000000       0.00000000       0.40000000 </v>
   <v>       0.03571429       0.00000000       0.40000000 </v>
   <v>       0.07142857       0.00000000       0.40000000 </v>
   <v>       0.10714286       0.00000000       0.40000000 </v>
   <v>       0.14285714       0.00000000       0.40000000 </v>
   <v>       0.17857143       0.00000000       0.40000000 </v>
   <v>       0.21428571       0.00000000       0.40000000 </v>
   <v>       0.25000000       0.00000000       0.40000000 </v>
   <v>       0.28571429       0.00000000       0.40000000 </v>
   <v>       0.32142857       0.00000000       0.40000000 </v>
   <v>       0.35714286       0.00000000       0.40000000 </v>
   <v>       0.39285714       0.00000000       0.40000000 </v>
   <v>       0.42857143       0.00000000       0.40000000 </v>
   <v>       0.46428571       0.00000000       0.40000000 </v>
   <v>       0.50000000       0.00000000       0.40000000 </v>
   <v>      -0.46428571       0.00000000       0.40000000 </v>
   <v>      -0.42857143       0.00000000       0.40000000 </v>
   <v>      -0.39285714       0.00000000       0.40000000 </v>
   <v>      -0.35714286       0.00000000       0.40000000 </v>
   <v>      -0.32142857       0.00000000       0.40000000 </v>
   <v>      -0.28571429       0.00000000       0.40000000 </v>
   <v>      -0.25000000       0.00000000       0.40000000 </v>
   <v>      -0.21428571       0.00000000       0.40000000 </v>
   <v>      -0.17857143       0.00000000       0.40000000 </v>
   <v>      -0.14285714       0.00000000       0.40000000 </v>
   <v>      -0.10714286       0.00000000       0.40000000 </v>
   <v>      -0.07142857       0.00000000       0.40000000 </v>
   <v>      -0.03571429       0.00000000       0.40000000 </v>
   <v>       0.03571429       0.03571429       0.40000000 </v>
   <v>       0.07142857       0.03571429       0.40000000 </v>
   <v>       0.10714286       0.03571429       0.40000000 </v>
   <v>       0.14285714       0.03571429       0.40000000 </v>
   <v>       0.17857143       0.03571429       0.40000000 </v>
   <v>       0.21428571       0.03571429       0.40000000 </v>
   <v>       0.25000000       0.03571429       0.40000000 </v>
   <v>       0.28571429       0.03571429       0.40000000 </v>
   <v>       0.32142857       0.03571429       0.40000000 </v>
   <v>       0.35714286       0.03571429       0.40000000 </v>
   <v>       0.39285714       0.03571429       0.40000000 </v>
   <v>       0.42857143       0.03571429       0.40000000 </v>
   <v>       0.46428571       0.03571429       0.40000000 </v>
   <v>       0.50000000       0.03571429       0.40000000 </v>
   <v>      -0.46428571       0.03571429       0.40000000 </v>
   <v>      -0.42857143       0.03571429       0.40000000 </v>
   <v>      -0.39285714       0.03571429       0.40000000 </v>
   <v>      -0.35714286       0.03571429       0.40000000 </v>
   <v>      -0.32142857       0.03571429       0.40000000 </v>
   <v>      -0.28571429       0.03571429       0.40000000 </v>
   <v>      -0.25000000       0.03571429       0.40000000 </v>
   <v>      -0.21428571       0.03571429       0.40000000 </v>
   <v>      -0.17857143       0.03571429       0.40000000 </v>
   <v>      -0.14285714       0.03571429       0.40000000 </v>
   <v>      -0.10714286       0.03571429       0.40000000 </v>
   <v>       0.07142857       0.07142857       0.40000000 </v>
   <v>       0.10714286       0.07142857       0.40000000 </v>
   <v>       0.14285714       0.07142857       0.40000000 </v>
   <v>       0.17857143       0.07142857       0.40000000 </v>
   <v>       0.21428571       0.07142857       0.40000000 </v>
   <v>       0.25000000       0.07142857       0.40000000 </v>
   <v>       0.28571429       0.07142857       0.40000000 </v>
   <v>       0.32142857       0.07142857       0.40000000 </v>
   <v>       0.35714286       0.07142857       0.40000000 </v>
   <v>       0.39285714       0.07142857       0.40000000 </v>
   <v>       0.42857143       0.07142857       0.40000000 </v>
   <v>       0.46428571       0.07142857       0.40000000 </v>
   <v>       0.50000000       0.07142857       0.40000000 </v>
   <v>      -0.46428571       0.07142857       0.40000000 </v>
   <v>      -0.42857143       0.07142857       0.40000000 </v>
   <v>      -0.39285714       0.07142857       0.40000000 </v>
   <v>      -0.35714286       0.07142857       0.40000000 </v>
   <v>      -0.32142857       0.07142857       0.40000000 </v>
   <v>      -0.28571429       0.07142857       0.40000000 </v>
   <v>      -0.25000000       0.07142857       0.40000000 </v>
   <v>      -0.21428571       0.07142857       0.40000000 </v>
   <v>      -0.17857143       0.07142857       0.40000000 </v>
   <v>       0.10714286       0.10714286       0.40000000 </v>
   <v>       0.14285714       0.10714286       0.40000000 </v>
   <v>       0.17857143       0.10714286       0.40000000 </v>
   <v>       0.21428571       0.10714286       0.40000000 </v>
   <v>       0.25000000       0.10714286       0.40000000 </v>
   <v>       0.28571429       0.10714286       0.40000000 </v>
   <v>       0.32142857       0.10714286       0.40000000 </v>
   <v>       0.35714286       0.10714286       0.40000000 </v>
   <v>       0.39285714       0.10714286       0.40000000 </v>
   <v>       0.42857143       0.10714286       0.40000000 </v>
   <v>       0.46428571       0.10714286       0.40000000 </v>
   <v>       0.50000000       0.10714286       0.40000000 </v>
   <v>      -0.46428571       0.10714286       0.40000000 </v>
   <v>      -0.42857143       0.10714286       0.40000000 </v>
   <v>      -0.39285714       0.10714286       0.40000000 </v>
   <v>      -0.35714286       0.10714286       0.40000000 </v>
   <v>      -0.32142857       0.10714286       0.40000000 </v>
   <v>      -0.28571429       0.10714286       0.40000000 </v>
   <v>      -0.25000000       0.10714286       0.40000000 </v>
   <v>       0.14285714       0.14285714       0.40000000 </v>
   <v>       0.17857143       0.14285714       0.40000000 </v>
   <v>       0.21428571       0.14285714       0.40000000 </v>
   <v>       0.25000000       0.14285714       0.40000000 </v>
   <v>       0.28571429       0.14285714       0.40000000 </v>
   <v>       0.32142857       0.14285714       0.40000000 </v>
   <v>       0.35714286       0.14285714       0.40000000 </v>
   <v>       0.39285714       0.14285714       0.40000000 </v>
   <v>       0.42857143       0.14285714       0.40000000 </v>
   <v>       0.46428571       0.14285714       0.40000000 </v>
   <v>       0.50000000       0.14285714       0.40000000 </v>
   <v>      -0.46428571       0.14285714       0.40000000 </v>
   <v>      -0.42857143       0.14285714       0.40000000 </v>
   <v>      -0.39285714       0.14285714       0.40000000 </v>
   <v>      -0.35714286       0.14285714       0.40000000 </v>
   <v>      -0.32142857       0.14285714       0.40000000 </v>
   <v>       0.17857143       0.17857143       0.40000000 </v>
   <v>       0.21428571       0.17857143       0.40000000 </v>
   <v>       0.25000000       0.17857143       0.40000000 </v>
   <v>       0.28571429       0.17857143       0.40000000 </v>
   <v>       0.32142857       0.17857143       0.40000000 </v>
   <v>       0.35714286       0.17857143       0.40000000 </v>
   <v>       0.39285714       0.17857143       0.40000000 </v>
   <v>       0.42857143       0.17857143       0.40000000 </v>
   <v>       0.46428571       0.17857143       0.40000000 </v>
   <v>       0.50000000       0.17857143       0.40000000 </v>
   <v>      -0.46428571       0.17857143       0.40000000 </v>
   <v>      -0.42857143       0.17857143       0.40000000 </v>
   <v>      -0.39285714       0.17857143       0.40000000 </v>
   <v>       0.21428571       0.21428571       0.40000000 </v>
   <v>       0.25000000       0.21428571       0.40000000 </v>
   <v>       0.28571429       0.21428571       0.40000000 </v>
   <v>       0.32142857       0.21428571       0.40000000 </v>
   <v>       0.35714286       0.21428571       0.40000000 </v>
   <v>       0.39285714       0.21428571       0.40000000 </v>
   <v>       0.42857143       0.21428571       0.40000000 </v>
   <v>       0.46428571       0.21428571       0.40000000 </v>
   <v>       0.50000000       0.21428571       0.40000000 </v>
   <v>      -0.46428571       0.21428571       0.40000000 </v>
   <v>       0.25000000       0.25000000       0.40000000 </v>
   <v>       0.28571429       0.25000000       0.40000000 </v>
   <v>       0.32142857       0.25000000       0.40000000 </v>
   <v>       0.35714286       0.25000000       0.40000000 </v>
   <v>       0.39285714       0.25000000       0.40000000 </v>
   <v>       0.42857143       0.25000000       0.40000000 </v>
   <v>       0.46428571       0.25000000       0.40000000 </v>
   <v>       0.28571429       0.28571429       0.40000000 </v>
   <v>       0.32142857       0.28571429       0.40000000 </v>
   <v>       0.35714286       0.28571429       0.40000000 </v>
   <v>       0.39285714       0.28571429       0.40000000 </v>
   <v>       0.32142857       0.32142857       0.40000000 </v>
  </varray>
  <varray name="weights" >
   <v>       0.00025510 </v>
   <v>       0.00153061 </v>
   <v>       0.00153061 </v>
   <v>       0.00153061 </v>
   <v>       0.00153061 </v>
   <v>       0.00153061 </v>
   <v>       0.00153061 </v>
   <v>       0.00153061 </v>
   <v>       0.00153061 </v>
   <v>       0.00153061 </v>
   <v>       0.00153061 </v>
   <v>       0.00153061 </v>
   <v>       0.00153061 </v>
   <v>       0.00153061 </v>
   <v>       0.00076531 </v>
   <v>       0.00153061 </v>
   <v>       0.00306122 </v>
   <v>       0.00306122 </v>
   <v>       0.00306122 </v>
   <v>       0.00306122 </v>
   <v>       0.00306122 </v>
   <v>       0.00306122 </v>
   <v>       0.00306122 </v>
   <v>       0.00306122 </v>
   <v>       0.00306122 </v>
   <v>       0.00306122 </v>
   <v>       0.00306122 </v>
   <v>       0.00306122 </v>
   <v>       0.00153061 </v>
   <v>       0.00306122 </v>
   <v>       0.00306122 </v>
   <v>       0.00306122 </v>
   <v>       0.00306122 </v>
   <v>       0.00306122 </v>
   <v>       0.00306122 </v>
   <v>       0.00306122 </v>
   <v>       0.00306122 </v>
   <v>       0.00306122 </v>
   <v>       0.00306122 </v>
   <v>       0.00153061 </v>
   <v>       0.00153061 </v>
   <v>       0.00306122 </v>
   <v>       0.00306122 </v>
   <v>       0.00306122 </v>
   <v>       0.00306122 </v>
   <v>       0.00306122 </v>
   <v>       0.00306122 </v>
   <v>       0.00306122 </v>
   <v>       0.00306122 </v>
   <v>       0.00306122 </v>
   <v>       0.00153061 </v>
   <v>       0.00306122 </v>
   <v>       0.00306122 </v>
   <v>       0.00306122 </v>
   <v>       0.00306122 </v>
   <v>       0.00306122 </v>
   <v>       0.00306122 </v>
   <v>       0.00306122 </v>
   <v>       0.00153061 </v>
   <v>       0.00153061 </v>
   <v>       0.00306122 </v>
   <v>       0.00306122 </v>
   <v>       0.00306122 </v>
   <v>       0.00306122 </v>
   <v>       0.00306122 </v>
   <v>       0.00306122 </v>
   <v>       0.00153061 </v>
   <v>       0.00306122 </v>
   <v>       0.00306122 </v>
   <v>       0.00306122 </v>
   <v>       0.00306122 </v>
   <v>       0.00153061 </v>
   <v>       0.00153061 </v>
   <v>       0.00306122 </v>
   <v>       0.00306122 </v>
   <v>       0.00306122 </v>
   <v>       0.00153061 </v>
   <v>       0.00306122 </v>
   <v>       0.00153061 </v>
   <v>       0.00153061 </v>
   <v>       0.00051020 </v>
   <v>       0.00153061 </v>
   <v>       0.00153061 </v>
   <v>       0.00153061 </v>
   <v>       0.00153061 </v>
   <v>       0.00153061 </v>
   <v>       0.00153061 </v>
   <v>       0.00153061 </v>
   <v>       0.00153061 </v>
   <v>       0.00153061 </v>
   <v>       0.00153061 </v>
   <v>       0.00153061 </v>
   <v>       0.00153061 </v>
   <v>       0.00153061 </v>
   <v>       0.00153061 </v>
   <v>       0.00153061 </v>
   <v>       0.00153061 </v>
   <v>       0.00153061 </v>
   <v>       0.00153061 </v>
   <v>       0.00153061 </v>
   <v>       0.00153061 </v>
   <v>       0.00153061 </v>
   <v>       0.00153061 </v>
   <v>       0.00153061 </v>
   <v>       0.00153061 </v>
   <v>       0.00153061 </v>
   <v>       0.00153061 </v>
   <v>       0.00153061 </v>
   <v>       0.00306122 </v>
   <v>       0.00306122 </v>
   <v>       0.00306122 </v>
   <v>       0.00306122 </v>
   <v>       0.00306122 </v>
   <v>       0.00306122 </v>
   <v>       0.00306122 </v>
   <v>       0.00306122 </v>
   <v>       0.00306122 </v>
   <v>       0.00306122 </v>
   <v>       0.00306122 </v>
   <v>       0.00306122 </v>
   <v>       0.00306122 </v>
   <v>       0.00306122 </v>
   <v>       0.00306122 </v>
   <v>       0.00306122 </v>
   <v>       0.00306122 </v>
   <v>       0.00306122 </v>
   <v>       0.00306122 </v>
   <v>       0.00306122 </v>
   <v>       0.00306122 </v>
   <v>       0.00306122 </v>
   <v>       0.00306122 </v>
   <v>       0.00306122 </v>
   <v>       0.00306122 </v>
   <v>       0.00306122 </v>
   <v>       0.00306122 </v>
   <v>       0.00306122 </v>
   <v>       0.00306122 </v>
   <v>       0.00306122 </v>
   <v>       0.00306122 </v>
   <v>       0.00306122 </v>
   <v>       0.00306122 </v>
   <v>       0.00306122 </v>
   <v>       0.00306122 </v>
   <v>       0.00306122 </v>
   <v>       0.00306122 </v>
   <v>       0.00306122 </v>
   <v>       0.00306122 </v>
   <v>       0.00306122 </v>
   <v>       0.00306122 </v>
   <v>       0.00306122 </v>
   <v>       0.00306122 </v>
   <v>       0.00306122 </v>
   <v>       0.00306122 </v>
   <v>       0.00306122 </v>
   <v>       0.00306122 </v>
   <v>       0.00306122 </v>
   <v>       0.00306122 </v>
   <v>       0.00306122 </v>
   <v>       0.00306122 </v>
   <v>       0.00306122 </v>
   <v>       0.00306122 </v>
   <v>       0.00306122 </v>
   <v>       0.00306122 </v>
   <v>       0.00306122 </v>
   <v>       0.00306122 </v>
   <v>       0.00306122 </v>
   <v>       0.00306122 </v>
   <v>       0.00306122 </v>
   <v>       0.00306122 </v>
   <v>       0.00306122 </v>
   <v>       0.00306122 </v>
   <v>       0.00306122 </v>
   <v>       0.00306122 </v>
   <v>       0.00306122 </v>
   <v>       0.00306122 </v>
   <v>       0.00306122 </v>
   <v>       0.00306122 </v>
   <v>       0.00306122 </v>
   <v>       0.00306122 </v>
   <v>       0.00306122 </v>
   <v>       0.00306122 </v>
   <v>       0.00306122 </v>
   <v>       0.00306122 </v>
   <v>       0.00306122 </v>
   <v>       0.00306122 </v>
   <v>       0.00306122 </v>
   <v>       0.00306122 </v>
   <v>       0.00306122 </v>
   <v>       0.00306122 </v>
   <v>       0.00306122 </v>
   <v>       0.00306122 </v>
   <v>       0.00306122 </v>
   <v>       0.00306122 </v>
   <v>       0.00306122 </v>
   <v>       0.00306122 </v>
   <v>       0.00306122 </v>
   <v>       0.00306122 </v>
   <v>       0.00306122 </v>
   <v>       0.00306122 </v>
   <v>       0.00306122 </v>
   <v>       0.00306122 </v>
   <v>       0.00306122 </v>
   <v>       0.00306122 </v>
   <v>       0.00306122 </v>
   <v>       0.00306122 </v>
   <v>       0.00306122 </v>
   <v>       0.00306122 </v>
   <v>       0.00306122 </v>
   <v>       0.00306122 </v>
   <v>       0.00306122 </v>
   <v>       0.00306122 </v>
   <v>       0.00306122 </v>
   <v>       0.00306122 </v>
   <v>       0.00306122 </v>
   <v>       0.00306122 </v>
   <v>       0.00306122 </v>
   <v>       0.00306122 </v>
   <v>       0.00306122 </v>
   <v>       0.00306122 </v>
   <v>       0.00306122 </v>
   <v>       0.00306122 </v>
   <v>       0.00306122 </v>
   <v>       0.00306122 </v>
   <v>       0.00306122 </v>
   <v>       0.00306122 </v>
   <v>       0.00051020 </v>
   <v>       0.00153061 </v>
   <v>       0.00153061 </v>
   <v>       0.00153061 </v>
   <v>       0.00153061 </v>
   <v>       0.00153061 </v>
   <v>       0.00153061 </v>
   <v>       0.00153061 </v>
   <v>       0.00153061 </v>
   <v>       0.00153061 </v>
   <v>       0.00153061 </v>
   <v>       0.00153061 </v>
   <v>       0.00153061 </v>
   <v>       0.00153061 </v>
   <v>       0.00153061 </v>
   <v>       0.00153061 </v>
   <v>       0.00153061 </v>
   <v>       0.00153061 </v>
   <v>       0.00153061 </v>
   <v>       0.00153061 </v>
   <v>       0.00153061 </v>
   <v>       0.00153061 </v>
   <v>       0.00153061 </v>
   <v>       0.00153061 </v>
   <v>       0.00153061 </v>
   <v>       0.00153061 </v>
   <v>       0.00153061 </v>
   <v>       0.00153061 </v>
   <v>       0.00306122 </v>
   <v>       0.00306122 </v>
   <v>       0.00306122 </v>
   <v>       0.00306122 </v>
   <v>       0.00306122 </v>
   <v>       0.00306122 </v>
   <v>       0.00306122 </v>
   <v>       0.00306122 </v>
   <v>       0.00306122 </v>
   <v>       0.00306122 </v>
   <v>       0.00306122 </v>
   <v>       0.00306122 </v>
   <v>       0.00306122 </v>
   <v>       0.00306122 </v>
   <v>       0.00306122 </v>
   <v>       0.00306122 </v>
   <v>       0.00306122 </v>
   <v>       0.00306122 </v>
   <v>       0.00306122 </v>
   <v>       0.00306122 </v>
   <v>       0.00306122 </v>
   <v>       0.00306122 </v>
   <v>       0.00306122 </v>
   <v>       0.00306122 </v>
   <v>       0.00306122 </v>
   <v>       0.00306122 </v>
   <v>       0.00306122 </v>
   <v>       0.00306122 </v>
   <v>       0.00306122 </v>
   <v>       0.00306122 </v>
   <v>       0.00306122 </v>
   <v>       0.00306122 </v>
   <v>       0.00306122 </v>
   <v>       0.00306122 </v>
   <v>       0.00306122 </v>
   <v>       0.00306122 </v>
   <v>       0.00306122 </v>
   <v>       0.00306122 </v>
   <v>       0.00306122 </v>
   <v>       0.00306122 </v>
   <v>       0.00306122 </v>
   <v>       0.00306122 </v>
   <v>       0.00306122 </v>
   <v>       0.00306122 </v>
   <v>       0.00306122 </v>
   <v>       0.00306122 </v>
   <v>       0.00306122 </v>
   <v>       0.00306122 </v>
   <v>       0.00306122 </v>
   <v>       0.00306122 </v>
   <v>       0.00306122 </v>
   <v>       0.00306122 </v>
   <v>       0.00306122 </v>
   <v>       0.00306122 </v>
   <v>       0.00306122 </v>
   <v>       0.00306122 </v>
   <v>       0.00306122 </v>
   <v>       0.00306122 </v>
   <v>       0.00306122 </v>
   <v>       0.00306122 </v>
   <v>       0.00306122 </v>
   <v>       0.00306122 </v>
   <v>       0.00306122 </v>
   <v>       0.00306122 </v>
   <v>       0.00306122 </v>
   <v>       0.00306122 </v>
   <v>       0.00306122 </v>
   <v>       0.00306122 </v>
   <v>       0.00306122 </v>
   <v>       0.00306122 </v>
   <v>       0.00306122 </v>
   <v>       0.00306122 </v>
   <v>       0.00306122 </v>
   <v>       0.00306122 </v>
   <v>       0.00306122 </v>
   <v>       0.00306122 </v>
   <v>       0.00306122 </v>
   <v>       0.00306122 </v>
   <v>       0.00306122 </v>
   <v>       0.00306122 </v>
   <v>       0.00306122 </v>
   <v>       0.00306122 </v>
   <v>       0.00306122 </v>
   <v>       0.00306122 </v>
   <v>       0.00306122 </v>
   <v>       0.00306122 </v>
   <v>       0.00306122 </v>
   <v>       0.00306122 </v>
   <v>       0.00306122 </v>
   <v>       0.00306122 </v>
   <v>       0.00306122 </v>
   <v>       0.00306122 </v>
   <v>       0.00306122 </v>
   <v>       0.00306122 </v>
   <v>       0.00306122 </v>
   <v>       0.00306122 </v>
   <v>       0.00306122 </v>
   <v>       0.00306122 </v>
   <v>       0.00306122 </v>
   <v>       0.00306122 </v>
   <v>       0.00306122 </v>
   <v>       0.00306122 </v>
   <v>       0.00306122 </v>
   <v>       0.00306122 </v>
   <v>       0.00306122 </v>
   <v>       0.00306122 </v>
   <v>       0.00306122 </v>
   <v>       0.00306122 </v>
   <v>       0.00306122 </v>
   <v>       0.00306122 </v>
   <v>       0.00306122 </v>
   <v>       0.00306122 </v>
   <v>       0.00306122 </v>
   <v>       0.00306122 </v>
   <v>       0.00306122 </v>
   <v>       0.00306122 </v>
   <v>       0.00306122 </v>
  </varray>
 </kpoints>
 <parameters>
  <separator name="general" >
   <i type="string" name="SYSTEM">unknown system</i>
   <i type="logical" name="LCOMPAT"> F  </i>
  </separator>
  <separator name="electronic" >
   <i type="string" name="PREC">accura</i>
   <i name="ENMAX">    500.00000000</i>
   <i name="ENAUG">    586.98000000</i>
   <i name="EDIFF">      0.00000100</i>
   <i type="int" name="IALGO">    68</i>
   <i type="int" name="IWAVPR">    11</i>
   <i type="int" name="NBANDS">    40</i>
   <i name="NELECT">     66.00000000</i>
   <i type="int" name="TURBO">     0</i>
   <i type="int" name="IRESTART">     0</i>
   <i type="int" name="NREBOOT">     0</i>
   <i type="int" name="NMIN">     0</i>
   <i name="EREF">      0.00000000</i>
   <separator name="electronic smearing" >
    <i type="int" name="ISMEAR">     1</i>
    <i name="SIGMA">      0.30000000</i>
    <i name="KSPACING">      0.50000000</i>
    <i type="logical" name="KGAMMA"> T  </i>
   </separator>
   <separator name="electronic projectors" >
    <i type="logical" name="LREAL"> F  </i>
    <v name="ROPT">      0.00000000      0.00000000      0.00000000</v>
    <i type="int" name="LMAXPAW">  -100</i>
    <i type="int" name="LMAXMIX">     2</i>
    <i type="logical" name="NLSPLINE"> F  </i>
   </separator>
   <separator name="electronic startup" >
    <i type="int" name="ISTART">     0</i>
    <i type="int" name="ICHARG">     2</i>
    <i type="int" name="INIWAV">     1</i>
   </separator>
   <separator name="electronic spin" >
    <i type="int" name="ISPIN">     1</i>
    <i type="logical" name="LNONCOLLINEAR"> F  </i>
    <v name="MAGMOM">      1.00000000      1.00000000      1.00000000      1.00000000      1.00000000      1.00000000</v>
    <i name="NUPDOWN">     -1.00000000</i>
    <i type="logical" name="LSORBIT"> F  </i>
    <v name="SAXIS">      0.00000000      0.00000000      1.00000000</v>
    <i type="logical" name="LSPIRAL"> F  </i>
    <v name="QSPIRAL">      0.00000000      0.00000000      0.00000000</v>
    <i type="logical" name="LZEROZ"> F  </i>
   </separator>
   <separator name="electronic exchange-correlation" >
    <i type="logical" name="LASPH"> F  </i>
    <i type="logical" name="LMETAGGA"> F  </i>
   </separator>
   <separator name="electronic convergence" >
    <i type="int" name="NELM">   200</i>
    <i type="int" name="NELMDL">     0</i>
    <i type="int" name="NELMIN">     4</i>
    <i name="ENINI">    500.00000000</i>
    <separator name="electronic convergence detail" >
     <i type="logical" name="LDIAG"> T  </i>
     <i type="logical" name="LSUBROT"> F  </i>
     <i name="WEIMIN">      0.00100000</i>
     <i name="EBREAK">      0.00000001</i>
     <i name="DEPER">      0.30000000</i>
     <i type="int" name="NRMM">     4</i>
     <i name="TIME">      0.40000000</i>
    </separator>
   </separator>
   <separator name="electronic mixer" >
    <i name="AMIX">      0.40000000</i>
    <i name="BMIX">      1.00000000</i>
    <i name="AMIN">      0.10000000</i>
    <i name="AMIX_MAG">      1.60000000</i>
    <i name="BMIX_MAG">      1.00000000</i>
    <separator name="electronic mixer details" >
     <i type="int" name="IMIX">     4</i>
     <i type="int" name="MAXMIX">   -45</i>
     <i name="WC">    100.00000000</i>
     <i type="int" name="INIMIX">     1</i>
     <i type="int" name="MIXPRE">     1</i>
     <i type="int" name="MREMOVE">     5</i>
    </separator>
   </separator>
   <separator name="electronic dipolcorrection" >
    <i type="logical" name="LDIPOL"> F  </i>
    <i type="logical" name="LMONO"> F  </i>
    <i type="int" name="IDIPOL">     0</i>
    <i name="EPSILON">      1.00000000</i>
    <v name="DIPOL">   -100.00000000   -100.00000000   -100.00000000</v>
    <i name="EFIELD">      0.00000000</i>
   </separator>
  </separator>
  <separator name="grids" >
   <i type="int" name="NGX">    24</i>
   <i type="int" name="NGY">    24</i>
   <i type="int" name="NGZ">   108</i>
   <i type="int" name="NGXF">    48</i>
   <i type="int" name="NGYF">    48</i>
   <i type="int" name="NGZF">   216</i>
   <i type="logical" name="ADDGRID"> T  </i>
  </separator>
  <separator name="ionic" >
   <i type="int" name="NSW">    30</i>
   <i type="int" name="IBRION">     2</i>
   <i type="int" name="ISIF">     3</i>
   <i name="PSTRESS">      0.00000000</i>
   <i name="EDIFFG">     -0.02000000</i>
   <i type="int" name="NFREE">     1</i>
   <i name="POTIM">      0.50000000</i>
   <i name="SMASS">     -3.00000000</i>
   <i name="SCALEE">      1.00000000</i>
  </separator>
  <separator name="ionic md" >
   <i name="TEBEG">      0.00010000</i>
   <i name="TEEND">      0.00010000</i>
   <i type="int" name="NBLOCK">     1</i>
   <i type="int" name="KBLOCK">    30</i>
   <i type="int" name="NPACO">   256</i>
   <i name="APACO">     16.00000000</i>
  </separator>
  <separator name="symmetry" >
   <i type="int" name="ISYM">     2</i>
   <i name="SYMPREC">      0.00001000</i>
  </separator>
  <separator name="dos" >
   <i type="logical" name="LORBIT"> F  </i>
   <v name="RWIGS">     -1.00000000     -1.00000000     -1.00000000</v>
   <i type="int" name="NEDOS">   301</i>
   <i name="EMIN">     10.00000000</i>
   <i name="EMAX">    -10.00000000</i>
   <i name="EFERMI">      0.00000000</i>
  </separator>
  <separator name="writing" >
   <i type="int" name="NWRITE">     2</i>
   <i type="logical" name="LWAVE"> F  </i>
   <i type="logical" name="LCHARG"> F  </i>
   <i type="logical" name="LPARD"> F  </i>
   <i type="logical" name="LVTOT"> F  </i>
   <i type="logical" name="LVHAR"> F  </i>
   <i type="logical" name="LELF"> F  </i>
   <i type="logical" name="LOPTICS"> F  </i>
   <v name="STM">      0.00000000      0.00000000      0.00000000      0.00000000      0.00000000      0.00000000      0.00000000</v>
  </separator>
  <separator name="performance" >
   <i type="int" name="NPAR">     4</i>
   <i type="int" name="NSIM">     4</i>
   <i type="int" name="NBLK">    -1</i>
   <i type="logical" name="LPLANE"> T  </i>
   <i type="logical" name="LSCALAPACK"> T  </i>
   <i type="logical" name="LSCAAWARE"> F  </i>
   <i type="logical" name="LSCALU"> F  </i>
   <i type="logical" name="LASYNC"> F  </i>
   <i type="logical" name="LORBITALREAL"> F  </i>
  </separator>
  <separator name="miscellaneous" >
   <i type="int" name="IDIOT">     3</i>
   <i type="logical" name="LMUSIC"> F  </i>
   <v name="POMASS">     63.54600000    107.86800000    196.96600000</v>
   <v name="DARWINR">      0.00000000      0.00000000      0.00000000</v>
   <v name="DARWINV">      1.00000000      1.00000000      1.00000000</v>
   <i type="logical" name="LCORR"> T  </i>
  </separator>
  <i type="logical" name="GGA_COMPAT"> T  </i>
  <i type="logical" name="LBERRY"> F  </i>
  <i type="int" name="ICORELEVEL">     0</i>
  <i type="logical" name="LDAU"> F  </i>
  <i type="int" name="I_CONSTRAINED_M">     0</i>
  <separator name="electronic exchange-correlation" >
   <i type="string" name="GGA">--</i>
   <i type="int" name="VOSKOWN">     0</i>
   <i type="logical" name="LHFCALC"> F  </i>
   <i type="string" name="PRECFOCK"></i>
   <i type="logical" name="LSYMGRAD"> F  </i>
   <i type="logical" name="LHFONE"> F  </i>
   <i type="logical" name="LRHFCALC"> F  </i>
   <i type="logical" name="LTHOMAS"> F  </i>
   <i type="logical" name="LMODELHF"> F  </i>
   <i name="ENCUT4O">     -1.00000000</i>
   <i type="int" name="EXXOEP">     0</i>
   <i type="int" name="FOURORBIT">     0</i>
   <i name="AEXX">      0.00000000</i>
   <i name="HFALPHA">      0.00000000</i>
   <i name="MCALPHA">      0.00000000</i>
   <i name="ALDAX">      1.00000000</i>
   <i name="AGGAX">      1.00000000</i>
   <i name="ALDAC">      1.00000000</i>
   <i name="AGGAC">      1.00000000</i>
   <i type="int" name="NKREDX">     1</i>
   <i type="int" name="NKREDY">     1</i>
   <i type="int" name="NKREDZ">     1</i>
   <i type="logical" name="SHIFTRED"> F  </i>
   <i type="logical" name="ODDONLY"> F  </i>
   <i type="logical" name="EVENONLY"> F  </i>
   <i type="int" name="LMAXFOCK">     0</i>
   <i type="int" name="NMAXFOCKAE">     0</i>
   <i type="logical" name="LFOCKAEDFT"> F  </i>
   <i name="HFSCREEN">      0.00000000</i>
   <i name="HFSCREENC">      0.00000000</i>
   <i type="int" name="NBANDSGWLOW">     0</i>
  </separator>
  <separator name="vdW DFT" >
   <i type="logical" name="LUSE_VDW"> F  </i>
   <i name="Zab_VDW">     -0.84910000</i>
   <i name="PARAM1">      0.12340000</i>
   <i name="PARAM2">      1.00000000</i>
   <i name="PARAM3">      0.00000000</i>
  </separator>
  <separator name="model GW" >
   <i type="int" name="MODEL_GW">     0</i>
   <i name="MODEL_EPS0">     10.19474006</i>
   <i name="MODEL_ALPHA">      1.00000000</i>
  </separator>
  <separator name="linear response parameters" >
   <i type="logical" name="LEPSILON"> F  </i>
   <i type="logical" name="LRPA"> F  </i>
   <i type="logical" name="LNABLA"> F  </i>
   <i type="logical" name="LVEL"> F  </i>
   <i type="int" name="KINTER">     0</i>
   <i name="CSHIFT">      0.10000000</i>
   <i name="OMEGAMAX">     -1.00000000</i>
   <i name="DEG_THRESHOLD">      0.00200000</i>
  </separator>
  <separator name="orbital magnetization" >
   <i type="logical" name="NUCIND"> F  </i>
   <v name="MAGPOS">      0.00000000      0.00000000      0.00000000</v>
   <i type="logical" name="LNICSALL"> T  </i>
   <i type="logical" name="ORBITALMAG"> F  </i>
   <i type="logical" name="LMAGBLOCH"> F  </i>
   <i type="logical" name="LCHIMAG"> F  </i>
   <i type="logical" name="LGAUGE"> T  </i>
   <i type="int" name="MAGATOM">     0</i>
   <v name="MAGDIPOL">      0.00000000      0.00000000      0.00000000</v>
   <v name="AVECCONST">      0.00000000      0.00000000      0.00000000</v>
  </separator>
  <separator name="response functions" >
   <i type="logical" name="LADDER"> F  </i>
   <i type="logical" name="LFXC"> F  </i>
   <i type="logical" name="LHARTREE"> T  </i>
   <i type="int" name="IBSE">     0</i>
   <i type="logical" name="LTCTE"> F  </i>
   <i type="logical" name="LTETE"> F  </i>
   <i type="logical" name="LTRIPLET"> F  </i>
   <i type="logical" name="LFXCEPS"> F  </i>
   <i type="logical" name="LFXHEG"> F  </i>
   <i type="logical" name="L2ORDER"> F  </i>
   <i type="logical" name="LUSEW"> F  </i>
   <i name="ENCUTGW">     -2.00000000</i>
   <i name="ENCUTGWSOFT">     -2.00000000</i>
   <i name="ENCUTLF">     -1.00000000</i>
   <i type="int" name="LMAXMP2">    -1</i>
   <i name="SCISSOR">      0.00000000</i>
   <i type="int" name="NOMEGA">     0</i>
   <i type="int" name="NOMEGAR">     0</i>
   <i type="int" name="NBANDSGW">    -1</i>
   <i type="int" name="NBANDSO">    -1</i>
   <i type="int" name="NBANDSV">    -1</i>
   <i type="int" name="NELM">   200</i>
   <i type="int" name="DIM">     3</i>
   <i type="int" name="ANTIRES">     0</i>
   <i name="OMEGAMAX">    -30.00000000</i>
   <i name="OMEGAMIN">    -30.00000000</i>
   <i name="OMEGATL">   -200.00000000</i>
   <i type="int" name="OMEGAGRID">     0</i>
   <i name="CSHIFT">     -0.10000000</i>
   <i type="logical" name="SELFENERGY"> F  </i>
   <i type="logical" name="LSPECTRAL"> F  </i>
   <i type="logical" name="ODDONLYGW"> F  </i>
   <i type="logical" name="EVENONLYGW"> F  </i>
   <i type="int" name="NKREDLFX">     1</i>
   <i type="int" name="NKREDLFY">     1</i>
   <i type="int" name="NKREDLFZ">     1</i>
   <i type="int" name="MAXMEM">  1800</i>
   <i type="int" name="TELESCOPE">     0</i>
   <i type="int" name="TAUPAR">     1</i>
  </separator>
  <separator name="External order field" >
   <i name="OFIELD_KAPPA">      0.00000000</i>
   <v name="OFIELD_K">      0.00000000      0.00000000      0.00000000</v>
   <i name="OFIELD_Q6_NEAR">      0.00000000</i>
   <i name="OFIELD_Q6_FAR">      0.00000000</i>
   <i name="OFIELD_A">      0.00000000</i>
  </separator>
 </parameters>
 <atominfo>
  <atoms>       6 </atoms>
  <types>       3 </types>
  <array name="atoms" >
   <dimension dim="1">ion</dimension>
   <field type="string">element</field>
   <field type="int">atomtype</field>
   <set>
    <rc><c>Cu</c><c>   1</c></rc>
    <rc><c>Ag</c><c>   2</c></rc>
    <rc><c>Ag</c><c>   2</c></rc>
    <rc><c>Ag</c><c>   2</c></rc>
    <rc><c>Au</c><c>   3</c></rc>
    <rc><c>Au</c><c>   3</c></rc>
   </set>
  </array>
  <array name="atomtypes" >
   <dimension dim="1">type</dimension>
   <field type="int">atomspertype</field>
   <field type="string">element</field>
   <field>mass</field>
   <field>valence</field>
   <field type="string">pseudopotential</field>
   <set>
    <rc><c>   1</c><c>Cu</c><c>     63.54600000</c><c>     11.00000000</c><c>  PAW_PBE Cu 22Jun2005                  </c></rc>
    <rc><c>   3</c><c>Ag</c><c>    107.86800000</c><c>     11.00000000</c><c>  PAW_PBE Ag 02Apr2005                  </c></rc>
    <rc><c>   2</c><c>Au</c><c>    196.96600000</c><c>     11.00000000</c><c>  PAW_PBE Au 04Oct2007                  </c></rc>
   </set>
  </array>
 </atominfo>
 <structure name="initialpos" >
  <crystal>
   <varray name="basis" >
    <v>       2.04492850       0.00000000       2.04492850 </v>
    <v>       0.00000000      -2.04492850      -2.04492850 </v>
    <v>       8.12640847       8.12640847      -8.12640847 </v>
   </varray>
   <i name="volume">    101.94740055 </i>
   <varray name="rec_basis" >
    <v>       0.32600977      -0.16300488       0.16300488 </v>
    <v>       0.16300488      -0.32600977      -0.16300488 </v>
    <v>       0.04101853       0.04101853      -0.04101853 </v>
   </varray>
  </crystal>
  <varray name="positions" >
   <v>       0.66666667       0.33333333       0.83297136 </v>
   <v>       0.00000000       0.00000000       0.98531161 </v>
   <v>       0.00000000       0.00000000       0.50820852 </v>
   <v>       0.33333333       0.66666667       0.68004302 </v>
   <v>       0.33333333       0.66666667       0.15791664 </v>
   <v>       0.66666667       0.33333333       0.33554885 </v>
  </varray>
 </structure>
 <calculation>
  <scstep>
   <time name="dav">    5.97    5.97</time>
   <time name="total">    6.03    6.04</time>
   <energy>
    <i name="alphaZ">    330.32648092 </i>
    <i name="ewald">  -5805.13772241 </i>
    <i name="hartreedc">  -1353.95812078 </i>
    <i name="XCdc">     44.97986828 </i>
    <i name="pawpsdc">   5986.78811456 </i>
    <i name="pawaedc">  -5908.11655947 </i>
    <i name="eentropy">     -0.00147751 </i>
    <i name="bandstr">    906.46707223 </i>
    <i name="atom">   6354.92839908 </i>
    <i name="e_fr_energy">    556.27605492 </i>
    <i name="e_wo_entrp">    556.27753243 </i>
    <i name="e_0_energy">    556.27654742 </i>
   </energy>
  </scstep>
  <scstep>
   <time name="dav">    6.28    6.29</time>
   <time name="total">    6.30    6.32</time>
   <energy>
    <i name="e_fr_energy">     14.91976327 </i>
    <i name="e_wo_entrp">     14.91990741 </i>
    <i name="e_0_energy">     14.91981132 </i>
   </energy>
  </scstep>
  <scstep>
   <time name="dav">    6.66    6.66</time>
   <time name="total">    6.68    6.69</time>
   <energy>
    <i name="e_fr_energy">    -19.47514404 </i>
    <i name="e_wo_entrp">    -19.47196463 </i>
    <i name="e_0_energy">    -19.47408424 </i>
   </energy>
  </scstep>
  <scstep>
   <time name="dav">    6.55    6.55</time>
   <time name="total">    6.57    6.58</time>
   <energy>
    <i name="e_fr_energy">    -20.17901463 </i>
    <i name="e_wo_entrp">    -20.17587934 </i>
    <i name="e_0_energy">    -20.17796953 </i>
   </energy>
  </scstep>
  <scstep>
   <time name="dav">    7.70    7.71</time>
   <time name="total">    8.16    8.18</time>
   <energy>
    <i name="e_fr_energy">    -20.20083729 </i>
    <i name="e_wo_entrp">    -20.19769328 </i>
    <i name="e_0_energy">    -20.19978928 </i>
   </energy>
  </scstep>
  <scstep>
   <time name="diag">    1.62    1.62</time>
   <time name="diis">    3.22    3.22</time>
   <time name="orth">    0.23    0.23</time>
   <time name="total">    5.57    5.59</time>
   <energy>
    <i name="e_fr_energy">    -18.85905643 </i>
    <i name="e_wo_entrp">    -18.85265247 </i>
    <i name="e_0_energy">    -18.85692178 </i>
   </energy>
  </scstep>
  <scstep>
   <time name="diag">    1.61    1.62</time>
   <time name="diis">    3.48    3.48</time>
   <time name="orth">    0.23    0.23</time>
   <time name="total">    5.83    5.84</time>
   <energy>
    <i name="e_fr_energy">    -18.53306157 </i>
    <i name="e_wo_entrp">    -18.53736408 </i>
    <i name="e_0_energy">    -18.53449574 </i>
   </energy>
  </scstep>
  <scstep>
   <time name="diag">    1.61    1.61</time>
   <time name="diis">    3.24    3.24</time>
   <time name="orth">    0.24    0.24</time>
   <time name="total">    5.59    5.61</time>
   <energy>
    <i name="e_fr_energy">    -18.27539467 </i>
    <i name="e_wo_entrp">    -18.27271111 </i>
    <i name="e_0_energy">    -18.27450015 </i>
   </energy>
  </scstep>
  <scstep>
   <time name="diag">    1.61    1.61</time>
   <time name="diis">    3.38    3.38</time>
   <time name="orth">    0.23    0.23</time>
   <time name="total">    5.73    5.74</time>
   <energy>
    <i name="e_fr_energy">    -18.18638111 </i>
    <i name="e_wo_entrp">    -18.18852325 </i>
    <i name="e_0_energy">    -18.18709516 </i>
   </energy>
  </scstep>
  <scstep>
   <time name="diag">    1.62    1.62</time>
   <time name="diis">    3.30    3.30</time>
   <time name="orth">    0.24    0.24</time>
   <time name="total">    5.67    5.68</time>
   <energy>
    <i name="e_fr_energy">    -18.16197766 </i>
    <i name="e_wo_entrp">    -18.15959128 </i>
    <i name="e_0_energy">    -18.16118220 </i>
   </energy>
  </scstep>
  <scstep>
   <time name="diag">    1.62    1.62</time>
   <time name="diis">    3.42    3.42</time>
   <time name="orth">    0.23    0.23</time>
   <time name="total">    5.79    5.80</time>
   <energy>
    <i name="e_fr_energy">    -18.15831148 </i>
    <i name="e_wo_entrp">    -18.15439941 </i>
    <i name="e_0_energy">    -18.15700746 </i>
   </energy>
  </scstep>
  <scstep>
   <time name="diag">    1.62    1.62</time>
   <time name="diis">    3.74    3.74</time>
   <time name="orth">    0.24    0.24</time>
   <time name="total">    6.12    6.14</time>
   <energy>
    <i name="e_fr_energy">    -18.15831481 </i>
    <i name="e_wo_entrp">    -18.15440739 </i>
    <i name="e_0_energy">    -18.15701234 </i>
   </energy>
  </scstep>
  <scstep>
   <time name="diag">    1.61    1.61</time>
   <time name="diis">    3.46    3.46</time>
   <time name="orth">    0.23    0.23</time>
   <time name="total">    5.82    5.83</time>
   <energy>
    <i name="e_fr_energy">    -18.15822681 </i>
    <i name="e_wo_entrp">    -18.15446864 </i>
    <i name="e_0_energy">    -18.15697409 </i>
   </energy>
  </scstep>
  <scstep>
   <time name="diag">    1.63    1.63</time>
   <time name="diis">    3.41    3.41</time>
   <time name="orth">    0.24    0.24</time>
   <time name="total">    5.82    5.84</time>
   <energy>
    <i name="e_fr_energy">    -18.15821701 </i>
    <i name="e_wo_entrp">    -18.15442711 </i>
    <i name="e_0_energy">    -18.15695371 </i>
   </energy>
  </scstep>
  <scstep>
   <time name="diag">    1.62    1.62</time>
   <time name="diis">    2.73    2.73</time>
   <time name="orth">    0.23    0.23</time>
   <time name="total">    5.11    5.12</time>
   <energy>
    <i name="e_fr_energy">    -18.15821584 </i>
    <i name="e_wo_entrp">    -18.15442586 </i>
    <i name="e_0_energy">    -18.15695252 </i>
   </energy>
  </scstep>
  <scstep>
   <time name="diag">    1.63    1.63</time>
   <time name="diis">    2.25    2.25</time>
   <time name="orth">    0.23    0.23</time>
   <time name="total">    4.19    4.20</time>
   <energy>
    <i name="alphaZ">    330.32648092 </i>
    <i name="ewald">  -5805.13772241 </i>
    <i name="hartreedc">  -1274.72713128 </i>
    <i name="XCdc">     41.69398283 </i>
    <i name="pawpsdc">   6663.96069515 </i>
    <i name="pawaedc">  -6599.52060832 </i>
    <i name="eentropy">     -0.00377939 </i>
    <i name="bandstr">    270.32146785 </i>
    <i name="atom">   6354.92839908 </i>
    <i name="e_fr_energy">    -18.15821558 </i>
    <i name="e_wo_entrp">    -18.15443619 </i>
    <i name="e_0_energy">    -18.15695578 </i>
   </energy>
  </scstep>
  <structure>
   <crystal>
    <varray name="basis" >
     <v>       2.04492850       0.00000000       2.04492850 </v>
     <v>       0.00000000      -2.04492850      -2.04492850 </v>
     <v>       8.12640847       8.12640847      -8.12640847 </v>
    </varray>
    <i name="volume">    101.94740055 </i>
    <varray name="rec_basis" >
     <v>       0.32600977      -0.16300488       0.16300488 </v>
     <v>       0.16300488      -0.32600977      -0.16300488 </v>
     <v>       0.04101853       0.04101853      -0.04101853 </v>
    </varray>
   </crystal>
   <varray name="positions" >
    <v>       0.66666667       0.33333333       0.83297136 </v>
    <v>       0.00000000       0.00000000       0.98531161 </v>
    <v>       0.00000000       0.00000000       0.50820852 </v>
    <v>       0.33333333       0.66666667       0.68004302 </v>
    <v>       0.33333333       0.66666667       0.15791664 </v>
    <v>       0.66666667       0.33333333       0.33554885 </v>
   </varray>
  </structure>
  <varray name="forces" >
   <v>       0.00601131       0.00601131      -0.00601131 </v>
   <v>      -0.00289816      -0.00289816       0.00289816 </v>
   <v>      -0.00666183      -0.00666183       0.00666183 </v>
   <v>      -0.01002726      -0.01002726       0.01002726 </v>
   <v>       0.00764492       0.00764492      -0.00764492 </v>
   <v>       0.00593102       0.00593102      -0.00593102 </v>
  </varray>
  <varray name="stress" >
   <v>      -1.16069494       0.09520833      -0.09520833 </v>
   <v>       0.09520833      -1.16069494      -0.09520833 </v>
   <v>      -0.09520833      -0.09520833      -1.16069494 </v>
  </varray>
  <energy>
   <i name="e_fr_energy">    -18.15821558 </i>
   <i name="e_wo_entrp">    -18.15695578 </i>
   <i name="e_0_energy">     -0.00377939 </i>
  </energy>
  <time name="totalsc">   99.43   99.71</time>
  <eigenvalues>
   <array>
    <dimension dim="1">band</dimension>
    <dimension dim="2">kpoint</dimension>
    <dimension dim="3">spin</dimension>
    <field>eigene</field>
    <field>occ</field>
    <set>
     <set comment="spin 1">
      <set comment="kpoint 1">
       <r>   -0.7682    1.0000 </r>
       <r>    0.4224    1.0000 </r>
       <r>    0.6367    1.0000 </r>
       <r>    1.4029    1.0000 </r>
       <r>    1.7383    1.0000 </r>
       <r>    2.2044    1.0000 </r>
       <r>    3.1575    1.0000 </r>
       <r>    3.2482    1.0000 </r>
       <r>    3.3182    1.0000 </r>
       <r>    3.3182    1.0000 </r>
       <r>    3.3684    1.0000 </r>
       <r>    3.3684    1.0000 </r>
       <r>    3.4007    1.0000 </r>
       <r>    3.4007    1.0000 </r>
       <r>    3.6546    1.0000 </r>
       <r>    3.6546    1.0000 </r>
       <r>    3.6903    1.0000 </r>
       <r>    3.6903    1.0000 </r>
       <r>    4.2395    1.0000 </r>
       <r>    4.2395    1.0000 </r>
       <r>    4.3153    1.0000 </r>
       <r>    4.3578    1.0000 </r>
       <r>    4.3578    1.0000 </r>
       <r>    4.6288    1.0000 </r>
       <r>    4.6288    1.0000 </r>
       <r>    4.6565    1.0000 </r>
       <r>    5.1338    1.0000 </r>
       <r>    5.1338    1.0000 </r>
       <r>    5.4933    1.0000 </r>
       <r>    5.6289    1.0000 </r>
       <r>    5.6289    1.0000 </r>
       <r>    5.7914    1.0000 </r>
       <r>    5.7914    1.0000 </r>
       <r>    6.1943    1.0000 </r>
       <r>    6.1943    1.0000 </r>
       <r>    7.6147    1.0326 </r>
       <r>   11.2486    0.0000 </r>
       <r>   15.7265    0.0000 </r>
       <r>   15.9745    0.0000 </r>
       <r>   19.2514    0.0000 </r>
      </set>
      <set comment="kpoint 2">
       <r>   -0.7291    1.0000 </r>
       <r>    0.4597    1.0000 </r>
       <r>    0.6699    1.0000 </r>
       <r>    1.4341    1.0000 </r>
       <r>    1.7651    1.0000 </r>
       <r>    2.2213    1.0000 </r>
       <r>    3.1481    1.0000 </r>
       <r>    3.2384    1.0000 </r>
       <r>    3.3080    1.0000 </r>
       <r>    3.3360    1.0000 </r>
       <r>    3.3584    1.0000 </r>
       <r>    3.3860    1.0000 </r>
       <r>    3.4008    1.0000 </r>
       <r>    3.4169    1.0000 </r>
       <r>    3.6434    1.0000 </r>
       <r>    3.6760    1.0000 </r>
       <r>    3.6809    1.0000 </r>
       <r>    3.7106    1.0000 </r>
       <r>    4.1848    1.0000 </r>
       <r>    4.2108    1.0000 </r>
       <r>    4.2342    1.0000 </r>
       <r>    4.3543    1.0000 </r>
       <r>    4.3550    1.0000 </r>
       <r>    4.6033    1.0000 </r>
       <r>    4.6297    1.0000 </r>
       <r>    4.6886    1.0000 </r>
       <r>    5.1275    1.0000 </r>
       <r>    5.1539    1.0000 </r>
       <r>    5.5208    1.0000 </r>
       <r>    5.6316    1.0000 </r>
       <r>    5.6798    1.0000 </r>
       <r>    5.7803    1.0000 </r>
       <r>    5.7978    1.0000 </r>
       <r>    6.1708    1.0000 </r>
       <r>    6.1944    1.0000 </r>
       <r>    7.7553    1.0129 </r>
       <r>   11.2539    0.0000 </r>
       <r>   15.7516    0.0000 </r>
       <r>   16.0021    0.0000 </r>
       <r>   19.3630    0.0000 </r>
      </set>
      <set comment="kpoint 3">
       <r>   -0.6129    1.0000 </r>
       <r>    0.5694    1.0000 </r>
       <r>    0.7683    1.0000 </r>
       <r>    1.5255    1.0000 </r>
       <r>    1.8433    1.0000 </r>
       <r>    2.2698    1.0000 </r>
       <r>    3.1187    1.0000 </r>
       <r>    3.2102    1.0000 </r>
       <r>    3.2785    1.0000 </r>
       <r>    3.3278    1.0000 </r>
       <r>    3.3885    1.0000 </r>
       <r>    3.3999    1.0000 </r>
       <r>    3.4380    1.0000 </r>
       <r>    3.4646    1.0000 </r>
       <r>    3.6175    1.0000 </r>
       <r>    3.6531    1.0000 </r>
       <r>    3.7370    1.0000 </r>
       <r>    3.7709    1.0000 </r>
       <r>    3.9604    1.0000 </r>
       <r>    4.1193    1.0000 </r>
       <r>    4.2186    1.0000 </r>
       <r>    4.3201    1.0000 </r>
       <r>    4.3484    1.0000 </r>
       <r>    4.4822    1.0000 </r>
       <r>    4.6314    1.0000 </r>
       <r>    4.7450    1.0000 </r>
       <r>    5.1107    1.0000 </r>
       <r>    5.2034    1.0000 </r>
       <r>    5.5713    1.0000 </r>
       <r>    5.6383    1.0000 </r>
       <r>    5.7571    1.0000 </r>
       <r>    5.7880    1.0000 </r>
       <r>    5.8169    1.0000 </r>
       <r>    6.1944    1.0000 </r>
       <r>    6.2014    1.0000 </r>
       <r>    8.1104    0.2767 </r>
       <r>   11.2707    0.0000 </r>
       <r>   15.8262    0.0000 </r>
       <r>   16.0705    0.0000 </r>
       <r>   19.4422    0.0000 </r>
      </set>
      <set comment="kpoint 4">
       <r>   -0.4235    1.0000 </r>
       <r>    0.7449    1.0000 </r>
       <r>    0.9273    1.0000 </r>
       <r>    1.6695    1.0000 </r>
       <r>    1.9648    1.0000 </r>
       <r>    2.3432    1.0000 </r>
       <r>    3.0675    1.0000 </r>
       <r>    3.1690    1.0000 </r>
       <r>    3.2336    1.0000 </r>
       <r>    3.2810    1.0000 </r>
       <r>    3.3880    1.0000 </r>
       <r>    3.4723    1.0000 </r>
       <r>    3.5219    1.0000 </r>
       <r>    3.5415    1.0000 </r>
       <r>    3.5825    1.0000 </r>
       <r>    3.6114    1.0000 </r>
       <r>    3.7275    1.0000 </r>
       <r>    3.8245    1.0000 </r>
       <r>    3.8687    1.0000 </r>
       <r>    4.0017    1.0000 </r>
       <r>    4.1972    1.0000 </r>
       <r>    4.2470    1.0000 </r>
       <r>    4.3425    1.0000 </r>
       <r>    4.3520    1.0000 </r>
       <r>    4.6329    1.0000 </r>
       <r>    4.7563    1.0000 </r>
       <r>    5.0885    1.0000 </r>
       <r>    5.2656    1.0000 </r>
       <r>    5.5499    1.0000 </r>
       <r>    5.6461    1.0000 </r>
       <r>    5.7657    1.0000 </r>
       <r>    5.8488    1.0000 </r>
       <r>    5.9418    1.0000 </r>
       <r>    6.1947    1.0000 </r>
       <r>    6.3725    1.0000 </r>
       <r>    8.5870   -0.0121 </r>
       <r>   11.3024    0.0000 </r>
       <r>   15.9475    0.0000 </r>
       <r>   16.1261    0.0000 </r>
       <r>   19.3583    0.0000 </r>
      </set>
      <set comment="kpoint 5">
       <r>   -0.1681    1.0000 </r>
       <r>    0.9732    1.0000 </r>
       <r>    1.1375    1.0000 </r>
       <r>    1.8494    1.0000 </r>
       <r>    2.1129    1.0000 </r>
       <r>    2.4285    1.0000 </r>
       <r>    2.9969    1.0000 </r>
       <r>    3.1235    1.0000 </r>
       <r>    3.1826    1.0000 </r>
       <r>    3.2216    1.0000 </r>
       <r>    3.3635    1.0000 </r>
       <r>    3.4215    1.0000 </r>
       <r>    3.5722    1.0000 </r>
       <r>    3.5783    1.0000 </r>
       <r>    3.6323    1.0000 </r>
       <r>    3.6413    1.0000 </r>
       <r>    3.6453    1.0000 </r>
       <r>    3.8838    1.0000 </r>
       <r>    3.9151    1.0000 </r>
       <r>    3.9850    1.0000 </r>
       <r>    4.1101    1.0000 </r>
       <r>    4.1954    1.0000 </r>
       <r>    4.2603    1.0000 </r>
       <r>    4.3807    1.0000 </r>
       <r>    4.6380    1.0000 </r>
       <r>    4.7405    1.0000 </r>
       <r>    5.0680    1.0000 </r>
       <r>    5.3296    1.0000 </r>
       <r>    5.5105    1.0000 </r>
       <r>    5.6520    1.0000 </r>
       <r>    5.7680    1.0000 </r>
       <r>    5.8925    1.0000 </r>
       <r>    6.1627    1.0000 </r>
       <r>    6.1951    1.0000 </r>
       <r>    6.6285    1.0000 </r>
       <r>    9.1348    0.0000 </r>
       <r>   11.3545    0.0000 </r>
       <r>   16.1109    0.0000 </r>
       <r>   16.1735    0.0000 </r>
       <r>   17.8132    0.0000 </r>
      </set>
      <set comment="kpoint 6">
       <r>    0.1410    1.0000 </r>
       <r>    1.2303    1.0000 </r>
       <r>    1.3810    1.0000 </r>
       <r>    2.0309    1.0000 </r>
       <r>    2.2568    1.0000 </r>
       <r>    2.5065    1.0000 </r>
       <r>    2.9156    1.0000 </r>
       <r>    3.0716    1.0000 </r>
       <r>    3.1258    1.0000 </r>
       <r>    3.1566    1.0000 </r>
       <r>    3.2185    1.0000 </r>
       <r>    3.3842    1.0000 </r>
       <r>    3.5384    1.0000 </r>
       <r>    3.6239    1.0000 </r>
       <r>    3.6819    1.0000 </r>
       <r>    3.7649    1.0000 </r>
       <r>    3.7717    1.0000 </r>
       <r>    3.7864    1.0000 </r>
       <r>    3.9799    1.0000 </r>
       <r>    4.0144    1.0000 </r>
       <r>    4.0612    1.0000 </r>
       <r>    4.2170    1.0000 </r>
       <r>    4.2831    1.0000 </r>
       <r>    4.4438    1.0000 </r>
       <r>    4.6658    1.0000 </r>
       <r>    4.7214    1.0000 </r>
       <r>    5.0584    1.0000 </r>
       <r>    5.3881    1.0000 </r>
       <r>    5.4967    1.0000 </r>
       <r>    5.6542    1.0000 </r>
       <r>    5.7773    1.0000 </r>
       <r>    5.9467    1.0000 </r>
       <r>    6.1958    1.0000 </r>
       <r>    6.4148    1.0000 </r>
       <r>    6.9241    1.0000 </r>
       <r>    9.7287    0.0000 </r>
       <r>   11.4349    0.0000 </r>
       <r>   16.3001    0.0000 </r>
       <r>   16.0855    0.0000 </r>
       <r>   16.1691    0.0000 </r>
      </set>
      <set comment="kpoint 7">
       <r>    0.4831    1.0000 </r>
       <r>    1.4780    1.0000 </r>
       <r>    1.6253    1.0000 </r>
       <r>    2.1563    1.0000 </r>
       <r>    2.3517    1.0000 </r>
       <r>    2.5492    1.0000 </r>
       <r>    2.8137    1.0000 </r>
       <r>    2.9569    1.0000 </r>
       <r>    3.0613    1.0000 </r>
       <r>    3.1083    1.0000 </r>
       <r>    3.2404    1.0000 </r>
       <r>    3.3828    1.0000 </r>
       <r>    3.5490    1.0000 </r>
       <r>    3.5942    1.0000 </r>
       <r>    3.7456    1.0000 </r>
       <r>    3.7532    1.0000 </r>
       <r>    3.8755    1.0000 </r>
       <r>    3.9229    1.0000 </r>
       <r>    4.0326    1.0000 </r>
       <r>    4.0538    1.0000 </r>
       <r>    4.1303    1.0000 </r>
       <r>    4.2079    1.0000 </r>
       <r>    4.4155    1.0000 </r>
       <r>    4.5397    1.0000 </r>
       <r>    4.7208    1.0000 </r>
       <r>    4.7581    1.0000 </r>
       <r>    5.0759    1.0000 </r>
       <r>    5.4340    1.0000 </r>
       <r>    5.5086    1.0000 </r>
       <r>    5.6526    1.0000 </r>
       <r>    5.8106    1.0000 </r>
       <r>    6.0088    1.0000 </r>
       <r>    6.1968    1.0000 </r>
       <r>    6.6850    1.0000 </r>
       <r>    7.2458    1.0007 </r>
       <r>   10.3514    0.0000 </r>
       <r>   11.5540    0.0000 </r>
       <r>   16.4793    0.0000 </r>
       <r>   15.6867    0.0000 </r>
       <r>   14.4464    0.0000 </r>
      </set>
      <set comment="kpoint 8">
       <r>    0.8250    1.0000 </r>
       <r>    1.6649    1.0000 </r>
       <r>    1.8284    1.0000 </r>
       <r>    2.1892    1.0000 </r>
       <r>    2.3674    1.0000 </r>
       <r>    2.5190    1.0000 </r>
       <r>    2.6417    1.0000 </r>
       <r>    2.8969    1.0000 </r>
       <r>    3.0632    1.0000 </r>
       <r>    3.1011    1.0000 </r>
       <r>    3.3025    1.0000 </r>
       <r>    3.4108    1.0000 </r>
       <r>    3.5730    1.0000 </r>
       <r>    3.6669    1.0000 </r>
       <r>    3.7512    1.0000 </r>
       <r>    3.8762    1.0000 </r>
       <r>    3.8970    1.0000 </r>
       <r>    4.0830    1.0000 </r>
       <r>    4.1611    1.0000 </r>
       <r>    4.2069    1.0000 </r>
       <r>    4.2339    1.0000 </r>
       <r>    4.2679    1.0000 </r>
       <r>    4.4818    1.0000 </r>
       <r>    4.6793    1.0000 </r>
       <r>    4.7606    1.0000 </r>
       <r>    4.9237    1.0000 </r>
       <r>    5.1553    1.0000 </r>
       <r>    5.4501    1.0000 </r>
       <r>    5.5611    1.0000 </r>
       <r>    5.6488    1.0000 </r>
       <r>    5.8741    1.0000 </r>
       <r>    6.0756    1.0000 </r>
       <r>    6.1983    1.0000 </r>
       <r>    6.9731    1.0000 </r>
       <r>    7.5949    1.0301 </r>
       <r>   10.9846    0.0000 </r>
       <r>   11.7242    0.0000 </r>
       <r>   16.3413    0.0000 </r>
       <r>   16.3717    0.0000 </r>
       <r>   15.2536    0.0000 </r>
      </set>
      <set comment="kpoint 9">
       <r>    1.1188    1.0000 </r>
       <r>    1.7546    1.0000 </r>
       <r>    1.9576    1.0000 </r>
       <r>    2.1648    1.0000 </r>
       <r>    2.3164    1.0000 </r>
       <r>    2.4289    1.0000 </r>
       <r>    2.4758    1.0000 </r>
       <r>    2.8576    1.0000 </r>
       <r>    2.9953    1.0000 </r>
       <r>    3.1470    1.0000 </r>
       <r>    3.3537    1.0000 </r>
       <r>    3.4927    1.0000 </r>
       <r>    3.6713    1.0000 </r>
       <r>    3.7186    1.0000 </r>
       <r>    3.8819    1.0000 </r>
       <r>    3.9209    1.0000 </r>
       <r>    4.0844    1.0000 </r>
       <r>    4.1920    1.0000 </r>
       <r>    4.3256    1.0000 </r>
       <r>    4.3754    1.0000 </r>
       <r>    4.3968    1.0000 </r>
       <r>    4.5147    1.0000 </r>
       <r>    4.5565    1.0000 </r>
       <r>    4.7696    1.0000 </r>
       <r>    4.8724    1.0000 </r>
       <r>    5.1376    1.0000 </r>
       <r>    5.3231    1.0000 </r>
       <r>    5.4464    1.0000 </r>
       <r>    5.6472    1.0000 </r>
       <r>    5.6582    1.0000 </r>
       <r>    5.9642    1.0000 </r>
       <r>    6.1402    1.0000 </r>
       <r>    6.2036    1.0000 </r>
       <r>    7.2868    1.0013 </r>
       <r>    7.9804    0.6323 </r>
       <r>   11.5952    0.0000 </r>
       <r>   11.9597    0.0000 </r>
       <r>   15.4219    0.0000 </r>
       <r>   16.3871    0.0000 </r>
       <r>   16.1563    0.0000 </r>
      </set>
      <set comment="kpoint 10">
       <r>    1.3188    1.0000 </r>
       <r>    1.7576    1.0000 </r>
       <r>    2.0032    1.0000 </r>
       <r>    2.1236    1.0000 </r>
       <r>    2.2180    1.0000 </r>
       <r>    2.3180    1.0000 </r>
       <r>    2.3719    1.0000 </r>
       <r>    2.7771    1.0000 </r>
       <r>    3.0055    1.0000 </r>
       <r>    3.1302    1.0000 </r>
       <r>    3.3843    1.0000 </r>
       <r>    3.5758    1.0000 </r>
       <r>    3.6730    1.0000 </r>
       <r>    3.8574    1.0000 </r>
       <r>    3.8905    1.0000 </r>
       <r>    4.1336    1.0000 </r>
       <r>    4.2205    1.0000 </r>
       <r>    4.4428    1.0000 </r>
       <r>    4.4958    1.0000 </r>
       <r>    4.5440    1.0000 </r>
       <r>    4.6363    1.0000 </r>
       <r>    4.6750    1.0000 </r>
       <r>    4.8101    1.0000 </r>
       <r>    4.8719    1.0000 </r>
       <r>    5.1438    1.0000 </r>
       <r>    5.3583    1.0000 </r>
       <r>    5.4524    1.0000 </r>
       <r>    5.5439    1.0000 </r>
       <r>    5.6641    1.0000 </r>
       <r>    5.8014    1.0000 </r>
       <r>    6.0833    1.0000 </r>
       <r>    6.1771    1.0000 </r>
       <r>    6.2343    1.0000 </r>
       <r>    7.6395    1.0348 </r>
       <r>    8.4143   -0.0349 </r>
       <r>   12.1121    0.0000 </r>
       <r>   12.2541    0.0000 </r>
       <r>   14.2933    0.0000 </r>
       <r>   15.3791    0.0000 </r>
       <r>   15.8395    0.0000 </r>
      </set>
      <set comment="kpoint 11">
       <r>    1.4177    1.0000 </r>
       <r>    1.7103    1.0000 </r>
       <r>    1.9906    1.0000 </r>
       <r>    2.0724    1.0000 </r>
       <r>    2.1047    1.0000 </r>
       <r>    2.2210    1.0000 </r>
       <r>    2.3103    1.0000 </r>
       <r>    2.6751    1.0000 </r>
       <r>    3.0547    1.0000 </r>
       <r>    3.1314    1.0000 </r>
       <r>    3.3741    1.0000 </r>
       <r>    3.6274    1.0000 </r>
       <r>    3.6881    1.0000 </r>
       <r>    3.8311    1.0000 </r>
       <r>    4.0753    1.0000 </r>
       <r>    4.2124    1.0000 </r>
       <r>    4.3156    1.0000 </r>
       <r>    4.6404    1.0000 </r>
       <r>    4.7113    1.0000 </r>
       <r>    4.7434    1.0000 </r>
       <r>    4.8018    1.0000 </r>
       <r>    4.8549    1.0000 </r>
       <r>    5.0224    1.0000 </r>
       <r>    5.1691    1.0000 </r>
       <r>    5.4941    1.0000 </r>
       <r>    5.5179    1.0000 </r>
       <r>    5.6477    1.0000 </r>
       <r>    5.7581    1.0000 </r>
       <r>    5.7762    1.0000 </r>
       <r>    6.0239    1.0000 </r>
       <r>    6.1823    1.0000 </r>
       <r>    6.2673    1.0000 </r>
       <r>    6.2909    1.0000 </r>
       <r>    8.0443    0.4539 </r>
       <r>    8.9037   -0.0001 </r>
       <r>   12.2773    0.0000 </r>
       <r>   12.5581    0.0000 </r>
       <r>   13.3308    0.0000 </r>
       <r>   14.2754    0.0000 </r>
       <r>   15.0718    0.0000 </r>
      </set>
      <set comment="kpoint 12">
       <r>    1.4496    1.0000 </r>
       <r>    1.6473    1.0000 </r>
       <r>    1.9419    1.0000 </r>
       <r>    2.0158    1.0000 </r>
       <r>    2.0274    1.0000 </r>
       <r>    2.1366    1.0000 </r>
       <r>    2.2656    1.0000 </r>
       <r>    2.5900    1.0000 </r>
       <r>    3.0372    1.0000 </r>
       <r>    3.1625    1.0000 </r>
       <r>    3.4124    1.0000 </r>
       <r>    3.5878    1.0000 </r>
       <r>    3.7740    1.0000 </r>
       <r>    3.8071    1.0000 </r>
       <r>    4.1949    1.0000 </r>
       <r>    4.2099    1.0000 </r>
       <r>    4.4885    1.0000 </r>
       <r>    4.7181    1.0000 </r>
       <r>    4.8607    1.0000 </r>
       <r>    4.8791    1.0000 </r>
       <r>    4.8984    1.0000 </r>
       <r>    4.9581    1.0000 </r>
       <r>    5.2979    1.0000 </r>
       <r>    5.4579    1.0000 </r>
       <r>    5.5210    1.0000 </r>
       <r>    5.7578    1.0000 </r>
       <r>    5.9356    1.0000 </r>
       <r>    5.9842    1.0000 </r>
       <r>    6.1687    1.0000 </r>
       <r>    6.1824    1.0000 </r>
       <r>    6.3441    1.0000 </r>
       <r>    6.4188    1.0000 </r>
       <r>    6.6657    1.0000 </r>
       <r>    8.4992   -0.0244 </r>
       <r>    9.4261    0.0000 </r>
       <r>   11.6783    0.0000 </r>
       <r>   12.3723    0.0000 </r>
       <r>   12.9431    0.0000 </r>
       <r>   13.4017    0.0000 </r>
       <r>   15.0349    0.0000 </r>
      </set>
      <set comment="kpoint 13">
       <r>    1.4515    1.0000 </r>
       <r>    1.5906    1.0000 </r>
       <r>    1.8803    1.0000 </r>
       <r>    1.9661    1.0000 </r>
       <r>    1.9916    1.0000 </r>
       <r>    2.0699    1.0000 </r>
       <r>    2.2297    1.0000 </r>
       <r>    2.5298    1.0000 </r>
       <r>    3.0164    1.0000 </r>
       <r>    3.1478    1.0000 </r>
       <r>    3.4839    1.0000 </r>
       <r>    3.5577    1.0000 </r>
       <r>    3.7882    1.0000 </r>
       <r>    3.8374    1.0000 </r>
       <r>    4.1782    1.0000 </r>
       <r>    4.3072    1.0000 </r>
       <r>    4.6165    1.0000 </r>
       <r>    4.7408    1.0000 </r>
       <r>    4.9562    1.0000 </r>
       <r>    4.9761    1.0000 </r>
       <r>    4.9941    1.0000 </r>
       <r>    5.0611    1.0000 </r>
       <r>    5.3441    1.0000 </r>
       <r>    5.5161    1.0000 </r>
       <r>    5.6880    1.0000 </r>
       <r>    5.9764    1.0000 </r>
       <r>    6.0952    1.0000 </r>
       <r>    6.1387    1.0000 </r>
       <r>    6.1959    1.0000 </r>
       <r>    6.3859    1.0000 </r>
       <r>    6.7263    1.0000 </r>
       <r>    6.9828    1.0000 </r>
       <r>    7.3809    1.0047 </r>
       <r>    8.9653    0.0000 </r>
       <r>    9.7804    0.0000 </r>
       <r>   10.9446    0.0000 </r>
       <r>   11.5042    0.0000 </r>
       <r>   12.2061    0.0000 </r>
       <r>   13.6844    0.0000 </r>
       <r>   14.2735    0.0000 </r>
      </set>
      <set comment="kpoint 14">
       <r>    1.4459    1.0000 </r>
       <r>    1.5524    1.0000 </r>
       <r>    1.8370    1.0000 </r>
       <r>    1.9351    1.0000 </r>
       <r>    1.9742    1.0000 </r>
       <r>    2.0256    1.0000 </r>
       <r>    2.2055    1.0000 </r>
       <r>    2.4944    1.0000 </r>
       <r>    3.0045    1.0000 </r>
       <r>    3.1255    1.0000 </r>
       <r>    3.5330    1.0000 </r>
       <r>    3.5389    1.0000 </r>
       <r>    3.7762    1.0000 </r>
       <r>    3.8809    1.0000 </r>
       <r>    4.1670    1.0000 </r>
       <r>    4.3671    1.0000 </r>
       <r>    4.6909    1.0000 </r>
       <r>    4.7463    1.0000 </r>
       <r>    4.9941    1.0000 </r>
       <r>    5.0454    1.0000 </r>
       <r>    5.0665    1.0000 </r>
       <r>    5.1314    1.0000 </r>
       <r>    5.3680    1.0000 </r>
       <r>    5.5060    1.0000 </r>
       <r>    5.7904    1.0000 </r>
       <r>    6.0812    1.0000 </r>
       <r>    6.1626    1.0000 </r>
       <r>    6.2046    1.0000 </r>
       <r>    6.2766    1.0000 </r>
       <r>    6.4125    1.0000 </r>
       <r>    7.2533    1.0008 </r>
       <r>    7.7042    1.0315 </r>
       <r>    8.2387    0.0392 </r>
       <r>    9.3194    0.0000 </r>
       <r>    9.3881    0.0000 </r>
       <r>   10.1781    0.0000 </r>
       <r>   11.3774    0.0000 </r>
       <r>   11.5878    0.0000 </r>
       <r>   13.1824    0.0000 </r>
       <r>   14.1229    0.0000 </r>
      </set>
      <set comment="kpoint 15">
       <r>    1.4431    1.0000 </r>
       <r>    1.5388    1.0000 </r>
       <r>    1.8219    1.0000 </r>
       <r>    1.9245    1.0000 </r>
       <r>    1.9697    1.0000 </r>
       <r>    2.0092    1.0000 </r>
       <r>    2.1969    1.0000 </r>
       <r>    2.4828    1.0000 </r>
       <r>    3.0008    1.0000 </r>
       <r>    3.1162    1.0000 </r>
       <r>    3.5325    1.0000 </r>
       <r>    3.5490    1.0000 </r>
       <r>    3.7720    1.0000 </r>
       <r>    3.8969    1.0000 </r>
       <r>    4.1630    1.0000 </r>
       <r>    4.3873    1.0000 </r>
       <r>    4.7150    1.0000 </r>
       <r>    4.7474    1.0000 </r>
       <r>    5.0051    1.0000 </r>
       <r>    5.0687    1.0000 </r>
       <r>    5.0925    1.0000 </r>
       <r>    5.1568    1.0000 </r>
       <r>    5.3763    1.0000 </r>
       <r>    5.5010    1.0000 </r>
       <r>    5.8202    1.0000 </r>
       <r>    6.1126    1.0000 </r>
       <r>    6.1644    1.0000 </r>
       <r>    6.2404    1.0000 </r>
       <r>    6.3132    1.0000 </r>
       <r>    6.4217    1.0000 </r>
[...]
       <r>    4.7456    1.0000 </r>
       <r>    5.0721    1.0000 </r>
       <r>    5.4872    1.0000 </r>
       <r>    5.6234    1.0000 </r>
       <r>    5.7196    1.0000 </r>
       <r>    5.8202    1.0000 </r>
       <r>    5.8946    1.0000 </r>
       <r>    5.9226    1.0000 </r>
       <r>    6.1977    1.0000 </r>
       <r>   10.1159    0.0000 </r>
       <r>   10.2641    0.0000 </r>
       <r>   10.4756    0.0000 </r>
       <r>   10.8213    0.0000 </r>
       <r>   11.6896    0.0000 </r>
       <r>   11.9665    0.0000 </r>
       <r>   12.1379    0.0000 </r>
       <r>   12.4049    0.0000 </r>
       <r>   12.6793    0.0000 </r>
       <r>   12.7756    0.0000 </r>
      </set>
      <set comment="kpoint 369">
       <r>    2.3009    1.0000 </r>
       <r>    2.3772    1.0000 </r>
       <r>    2.4945    1.0000 </r>
       <r>    2.5755    1.0000 </r>
       <r>    2.7214    1.0000 </r>
       <r>    2.7735    1.0000 </r>
       <r>    2.8036    1.0000 </r>
       <r>    2.9186    1.0000 </r>
       <r>    2.9516    1.0000 </r>
       <r>    3.0701    1.0000 </r>
       <r>    3.1366    1.0000 </r>
       <r>    3.1791    1.0000 </r>
       <r>    3.3419    1.0000 </r>
       <r>    3.4788    1.0000 </r>
       <r>    3.5582    1.0000 </r>
       <r>    3.6969    1.0000 </r>
       <r>    4.0652    1.0000 </r>
       <r>    4.2302    1.0000 </r>
       <r>    4.2415    1.0000 </r>
       <r>    4.4636    1.0000 </r>
       <r>    4.5084    1.0000 </r>
       <r>    4.7346    1.0000 </r>
       <r>    5.0761    1.0000 </r>
       <r>    5.4556    1.0000 </r>
       <r>    5.6585    1.0000 </r>
       <r>    5.7188    1.0000 </r>
       <r>    5.8222    1.0000 </r>
       <r>    5.8903    1.0000 </r>
       <r>    5.9399    1.0000 </r>
       <r>    6.2030    1.0000 </r>
       <r>    9.4487    0.0000 </r>
       <r>    9.8509    0.0000 </r>
       <r>   10.8059    0.0000 </r>
       <r>   11.2217    0.0000 </r>
       <r>   11.5342    0.0000 </r>
       <r>   11.6509    0.0000 </r>
       <r>   12.0024    0.0000 </r>
       <r>   12.4773    0.0000 </r>
       <r>   12.9855    0.0000 </r>
       <r>   13.5141    0.0000 </r>
      </set>
      <set comment="kpoint 370">
       <r>    2.4017    1.0000 </r>
       <r>    2.4263    1.0000 </r>
       <r>    2.5471    1.0000 </r>
       <r>    2.5536    1.0000 </r>
       <r>    2.7089    1.0000 </r>
       <r>    2.7503    1.0000 </r>
       <r>    2.8757    1.0000 </r>
       <r>    2.9701    1.0000 </r>
       <r>    3.0037    1.0000 </r>
       <r>    3.0492    1.0000 </r>
       <r>    3.1655    1.0000 </r>
       <r>    3.1900    1.0000 </r>
       <r>    3.3138    1.0000 </r>
       <r>    3.4420    1.0000 </r>
       <r>    3.5294    1.0000 </r>
       <r>    3.5584    1.0000 </r>
       <r>    4.1164    1.0000 </r>
       <r>    4.1824    1.0000 </r>
       <r>    4.3264    1.0000 </r>
       <r>    4.4426    1.0000 </r>
       <r>    4.4837    1.0000 </r>
       <r>    4.6701    1.0000 </r>
       <r>    5.0641    1.0000 </r>
       <r>    5.4929    1.0000 </r>
       <r>    5.6113    1.0000 </r>
       <r>    5.7690    1.0000 </r>
       <r>    5.8267    1.0000 </r>
       <r>    5.8501    1.0000 </r>
       <r>    5.8979    1.0000 </r>
       <r>    6.1963    1.0000 </r>
       <r>   10.1831    0.0000 </r>
       <r>   10.4596    0.0000 </r>
       <r>   10.8497    0.0000 </r>
       <r>   11.1308    0.0000 </r>
       <r>   11.2875    0.0000 </r>
       <r>   11.9347    0.0000 </r>
       <r>   12.0362    0.0000 </r>
       <r>   12.4063    0.0000 </r>
       <r>   12.9594    0.0000 </r>
       <r>   13.1587    0.0000 </r>
      </set>
     </set>
    </set>
   </array>
  </eigenvalues>
  <separator name="orbital magnetization" >
   <v name="MAGDIPOLOUT">      0.00000000      0.00000000      0.00000000</v>
  </separator>
  <dos>
   <i name="efermi">      8.02792188 </i>
   <total>
    <array>
     <dimension dim="1">gridpoints</dimension>
     <dimension dim="2">spin</dimension>
     <field>energy</field>
     <field>total</field>
     <field>integrated</field>
     <set>
      <set comment="spin 1">
       <r>    -3.7682     0.0000     0.0000 </r>
       <r>    -3.6790     0.0000     0.0000 </r>
       <r>    -3.5898     0.0000     0.0000 </r>
       <r>    -3.5005     0.0000     0.0000 </r>
       <r>    -3.4113     0.0000     0.0000 </r>
       <r>    -3.3221     0.0000     0.0000 </r>
       <r>    -3.2329     0.0000     0.0000 </r>
       <r>    -3.1436     0.0000     0.0000 </r>
       <r>    -3.0544     0.0000     0.0000 </r>
       <r>    -2.9652     0.0000     0.0000 </r>
       <r>    -2.8759     0.0000     0.0000 </r>
       <r>    -2.7867     0.0000     0.0000 </r>
       <r>    -2.6975     0.0000     0.0000 </r>
       <r>    -2.6083     0.0000     0.0000 </r>
       <r>    -2.5190     0.0000     0.0000 </r>
       <r>    -2.4298     0.0000     0.0000 </r>
       <r>    -2.3406     0.0000     0.0000 </r>
       <r>    -2.2514     0.0000     0.0000 </r>
       <r>    -2.1621     0.0000     0.0000 </r>
       <r>    -2.0729     0.0000     0.0000 </r>
       <r>    -1.9837     0.0000     0.0000 </r>
       <r>    -1.8945     0.0000     0.0000 </r>
       <r>    -1.8052     0.0000     0.0000 </r>
       <r>    -1.7160     0.0000     0.0000 </r>
       <r>    -1.6268     0.0000     0.0000 </r>
       <r>    -1.5376    -0.0001     0.0000 </r>
       <r>    -1.4483    -0.0004     0.0000 </r>
       <r>    -1.3591    -0.0012    -0.0002 </r>
       <r>    -1.2699    -0.0031    -0.0004 </r>
       <r>    -1.1807    -0.0060    -0.0010 </r>
       <r>    -1.0914    -0.0083    -0.0017 </r>
       <r>    -1.0022    -0.0044    -0.0021 </r>
       <r>    -0.9130     0.0135    -0.0009 </r>
       <r>    -0.8237     0.0512     0.0037 </r>
       <r>    -0.7345     0.1058     0.0131 </r>
       <r>    -0.6453     0.1647     0.0278 </r>
       <r>    -0.5561     0.2128     0.0468 </r>
       <r>    -0.4668     0.2419     0.0684 </r>
       <r>    -0.3776     0.2540     0.0911 </r>
       <r>    -0.2884     0.2563     0.1139 </r>
       <r>    -0.1992     0.2551     0.1367 </r>
       <r>    -0.1099     0.2543     0.1594 </r>
       <r>    -0.0207     0.2569     0.1823 </r>
       <r>     0.0685     0.2683     0.2062 </r>
       <r>     0.1577     0.2953     0.2326 </r>
       <r>     0.2470     0.3409     0.2630 </r>
       <r>     0.3362     0.4008     0.2988 </r>
       <r>     0.4254     0.4672     0.3405 </r>
       <r>     0.5146     0.5332     0.3880 </r>
       <r>     0.6039     0.5976     0.4414 </r>
       <r>     0.6931     0.6642     0.5006 </r>
       <r>     0.7823     0.7369     0.5664 </r>
       <r>     0.8715     0.8100     0.6386 </r>
       <r>     0.9608     0.8713     0.7164 </r>
       <r>     1.0500     0.9243     0.7989 </r>
       <r>     1.1392     1.0092     0.8889 </r>
       <r>     1.2285     1.1972     0.9957 </r>
       <r>     1.3177     1.5516     1.1342 </r>
       <r>     1.4069     2.0767     1.3195 </r>
       <r>     1.4961     2.7030     1.5606 </r>
       <r>     1.5854     3.3540     1.8599 </r>
       <r>     1.6746     4.0544     2.2217 </r>
       <r>     1.7638     4.9666     2.6648 </r>
       <r>     1.8530     6.2843     3.2255 </r>
       <r>     1.9423     8.0579     3.9445 </r>
       <r>     2.0315    10.0982     4.8455 </r>
       <r>     2.1207    12.0377     5.9196 </r>
       <r>     2.2099    13.5001     7.1242 </r>
       <r>     2.2992    14.2549     8.3961 </r>
       <r>     2.3884    14.2797     9.6702 </r>
       <r>     2.4776    13.7259    10.8949 </r>
       <r>     2.5668    12.8447    12.0410 </r>
       <r>     2.6561    11.9308    13.1055 </r>
       <r>     2.7453    11.2917    14.1130 </r>
       <r>     2.8345    11.1853    15.1111 </r>
       <r>     2.9237    11.7012    16.1551 </r>
       <r>     3.0130    12.6785    17.2864 </r>
       <r>     3.1022    13.7804    18.5159 </r>
       <r>     3.1914    14.7017    19.8277 </r>
       <r>     3.2806    15.3534    21.1976 </r>
       <r>     3.3699    15.8838    22.6149 </r>
       <r>     3.4591    16.5112    24.0881 </r>
       <r>     3.5483    17.2734    25.6293 </r>
       <r>     3.6376    17.8977    27.2263 </r>
       <r>     3.7268    17.9433    28.8273 </r>
       <r>     3.8160    17.1448    30.3570 </r>
       <r>     3.9052    15.7011    31.7580 </r>
       <r>     3.9945    14.2433    33.0289 </r>
       <r>     4.0837    13.4308    34.2272 </r>
       <r>     4.1729    13.4617    35.4284 </r>
       <r>     4.2621    13.9500    36.6731 </r>
       <r>     4.3514    14.3043    37.9494 </r>
       <r>     4.4406    14.2104    39.2173 </r>
       <r>     4.5298    13.7358    40.4429 </r>
       <r>     4.6190    13.0581    41.6080 </r>
       <r>     4.7083    12.2461    42.7007 </r>
       <r>     4.7975    11.3503    43.7135 </r>
       <r>     4.8867    10.5846    44.6579 </r>
       <r>     4.9759    10.2430    45.5718 </r>
       <r>     5.0652    10.4000    46.4998 </r>
       <r>     5.1544    10.8157    47.4648 </r>
       <r>     5.2436    11.2158    48.4655 </r>
       <r>     5.3328    11.5860    49.4993 </r>
       <r>     5.4221    12.0994    50.5789 </r>
       <r>     5.5113    12.8110    51.7220 </r>
       <r>     5.6005    13.5225    52.9285 </r>
       <r>     5.6898    13.9563    54.1738 </r>
       <r>     5.7790    14.0283    55.4255 </r>
       <r>     5.8682    13.9433    56.6696 </r>
       <r>     5.9574    13.9839    57.9173 </r>
       <r>     6.0467    14.1164    59.1769 </r>
       <r>     6.1359    13.8148    60.4095 </r>
       <r>     6.2251    12.4338    61.5189 </r>
       <r>     6.3143     9.8645    62.3991 </r>
       <r>     6.4036     6.7655    63.0028 </r>
       <r>     6.4928     4.0852    63.3673 </r>
       <r>     6.5820     2.3931    63.5808 </r>
       <r>     6.6712     1.6577    63.7287 </r>
       <r>     6.7605     1.5090    63.8633 </r>
       <r>     6.8497     1.5833    64.0046 </r>
       <r>     6.9389     1.6692    64.1535 </r>
       <r>     7.0281     1.6904    64.3044 </r>
       <r>     7.1174     1.6559    64.4521 </r>
       <r>     7.2066     1.6200    64.5967 </r>
       <r>     7.2958     1.6353    64.7426 </r>
       <r>     7.3850     1.7067    64.8949 </r>
       <r>     7.4743     1.7825    65.0539 </r>
       <r>     7.5635     1.7972    65.2143 </r>
       <r>     7.6527     1.7325    65.3688 </r>
       <r>     7.7419     1.6428    65.5154 </r>
       <r>     7.8312     1.6106    65.6591 </r>
       <r>     7.9204     1.6701    65.8081 </r>
       <r>     8.0096     1.7753    65.9666 </r>
       <r>     8.0989     1.8419    66.1309 </r>
       <r>     8.1881     1.8151    66.2929 </r>
       <r>     8.2773     1.7069    66.4452 </r>
       <r>     8.3665     1.5850    66.5866 </r>
       <r>     8.4558     1.5314    66.7232 </r>
       <r>     8.5450     1.5893    66.8650 </r>
       <r>     8.6342     1.7230    67.0188 </r>
       <r>     8.7234     1.8306    67.1821 </r>
       <r>     8.8127     1.8209    67.3446 </r>
       <r>     8.9019     1.6931    67.4957 </r>
       <r>     8.9911     1.5375    67.6328 </r>
       <r>     9.0803     1.4576    67.7629 </r>
       <r>     9.1696     1.4926    67.8961 </r>
       <r>     9.2588     1.6037    68.0392 </r>
       <r>     9.3480     1.7122    68.1919 </r>
       <r>     9.4372     1.7489    68.3480 </r>
       <r>     9.5265     1.6940    68.4991 </r>
       <r>     9.6157     1.5900    68.6410 </r>
       <r>     9.7049     1.5104    68.7758 </r>
       <r>     9.7941     1.4993    68.9096 </r>
       <r>     9.8834     1.5388    69.0468 </r>
       <r>     9.9726     1.5760    69.1875 </r>
       <r>    10.0618     1.5755    69.3280 </r>
       <r>    10.1511     1.5388    69.4653 </r>
       <r>    10.2403     1.4886    69.5982 </r>
       <r>    10.3295     1.4446    69.7271 </r>
       <r>    10.4187     1.4116    69.8530 </r>
       <r>    10.5080     1.3771    69.9759 </r>
       <r>    10.5972     1.3239    70.0940 </r>
       <r>    10.6864     1.2551    70.2060 </r>
       <r>    10.7756     1.2029    70.3133 </r>
       <r>    10.8649     1.2059    70.4209 </r>
       <r>    10.9541     1.2794    70.5351 </r>
       <r>    11.0433     1.4120    70.6611 </r>
       <r>    11.1325     1.5835    70.8024 </r>
       <r>    11.2218     1.7712    70.9604 </r>
       <r>    11.3110     1.9427    71.1337 </r>
       <r>    11.4002     2.0632    71.3178 </r>
       <r>    11.4894     2.1188    71.5069 </r>
       <r>    11.5787     2.1248    71.6965 </r>
       <r>    11.6679     2.1057    71.8843 </r>
       <r>    11.7571     2.0739    72.0694 </r>
       <r>    11.8463     2.0305    72.2506 </r>
       <r>    11.9356     1.9790    72.4271 </r>
       <r>    12.0248     1.9331    72.5996 </r>
       <r>    12.1140     1.9080    72.7699 </r>
       <r>    12.2033     1.9043    72.9398 </r>
       <r>    12.2925     1.9015    73.1094 </r>
       <r>    12.3817     1.8763    73.2769 </r>
       <r>    12.4709     1.8322    73.4403 </r>
       <r>    12.5602     1.8034    73.6012 </r>
       <r>    12.6494     1.8181    73.7635 </r>
       <r>    12.7386     1.8600    73.9294 </r>
       <r>    12.8278     1.8831    74.0974 </r>
       <r>    12.9171     1.8637    74.2637 </r>
       <r>    13.0063     1.8227    74.4264 </r>
       <r>    13.0955     1.7915    74.5862 </r>
       <r>    13.1847     1.7744    74.7445 </r>
       <r>    13.2740     1.7556    74.9012 </r>
       <r>    13.3632     1.7268    75.0553 </r>
       <r>    13.4524     1.6914    75.2062 </r>
       <r>    13.5416     1.6500    75.3534 </r>
       <r>    13.6309     1.5979    75.4960 </r>
       <r>    13.7201     1.5425    75.6336 </r>
       <r>    13.8093     1.5112    75.7685 </r>
       <r>    13.8985     1.5376    75.9056 </r>
       <r>    13.9878     1.6398    76.0520 </r>
       <r>    14.0770     1.8099    76.2135 </r>
       <r>    14.1662     2.0148    76.3932 </r>
       <r>    14.2554     2.1982    76.5894 </r>
       <r>    14.3447     2.2912    76.7938 </r>
       <r>    14.4339     2.2433    76.9940 </r>
       <r>    14.5231     2.0589    77.1777 </r>
       <r>    14.6124     1.8069    77.3389 </r>
       <r>    14.7016     1.5827    77.4801 </r>
       <r>    14.7908     1.4469    77.6092 </r>
       <r>    14.8800     1.3942    77.7336 </r>
       <r>    14.9693     1.3760    77.8564 </r>
       <r>    15.0585     1.3485    77.9767 </r>
       <r>    15.1477     1.2996    78.0926 </r>
       <r>    15.2369     1.2403    78.2033 </r>
       <r>    15.3262     1.1824    78.3088 </r>
       <r>    15.4154     1.1267    78.4093 </r>
       <r>    15.5046     1.0699    78.5048 </r>
       <r>    15.5938     1.0222    78.5960 </r>
       <r>    15.6831     1.0119    78.6863 </r>
       <r>    15.7723     1.0682    78.7816 </r>
       <r>    15.8615     1.1988    78.8886 </r>
       <r>    15.9507     1.3802    79.0117 </r>
       <r>    16.0400     1.5613    79.1510 </r>
       <r>    16.1292     1.6728    79.3003 </r>
       <r>    16.2184     1.6494    79.4475 </r>
       <r>    16.3076     1.4657    79.5782 </r>
       <r>    16.3969     1.1589    79.6816 </r>
       <r>    16.4861     0.8126    79.7541 </r>
       <r>    16.5753     0.5090    79.7996 </r>
       <r>    16.6646     0.2928    79.8257 </r>
       <r>    16.7538     0.1674    79.8406 </r>
       <r>    16.8430     0.1113    79.8505 </r>
       <r>    16.9322     0.0947    79.8590 </r>
       <r>    17.0215     0.0895    79.8670 </r>
       <r>    17.1107     0.0776    79.8739 </r>
       <r>    17.1999     0.0559    79.8789 </r>
       <r>    17.2891     0.0327    79.8818 </r>
       <r>    17.3784     0.0169    79.8833 </r>
       <r>    17.4676     0.0121    79.8844 </r>
       <r>    17.5568     0.0177    79.8860 </r>
       <r>    17.6460     0.0325    79.8889 </r>
       <r>    17.7353     0.0524    79.8936 </r>
       <r>    17.8245     0.0677    79.8996 </r>
       <r>    17.9137     0.0690    79.9057 </r>
       <r>    18.0029     0.0570    79.9108 </r>
       <r>    18.0922     0.0443    79.9148 </r>
       <r>    18.1814     0.0454    79.9188 </r>
       <r>    18.2706     0.0647    79.9246 </r>
       <r>    18.3598     0.0943    79.9330 </r>
       <r>    18.4491     0.1201    79.9437 </r>
       <r>    18.5383     0.1294    79.9553 </r>
       <r>    18.6275     0.1165    79.9657 </r>
       <r>    18.7168     0.0852    79.9733 </r>
       <r>    18.8060     0.0473    79.9775 </r>
       <r>    18.8952     0.0161    79.9789 </r>
       <r>    18.9844    -0.0011    79.9788 </r>
       <r>    19.0737    -0.0039    79.9785 </r>
       <r>    19.1629     0.0040    79.9789 </r>
       <r>    19.2521     0.0177    79.9804 </r>
       <r>    19.3413     0.0312    79.9832 </r>
       <r>    19.4306     0.0384    79.9866 </r>
       <r>    19.5198     0.0359    79.9898 </r>
       <r>    19.6090     0.0262    79.9922 </r>
       <r>    19.6982     0.0156    79.9936 </r>
       <r>    19.7875     0.0097    79.9944 </r>
       <r>    19.8767     0.0102    79.9954 </r>
       <r>    19.9659     0.0138    79.9966 </r>
       <r>    20.0551     0.0157    79.9980 </r>
       <r>    20.1444     0.0134    79.9992 </r>
       <r>    20.2336     0.0082    79.9999 </r>
       <r>    20.3228     0.0031    80.0002 </r>
       <r>    20.4120     0.0001    80.0002 </r>
       <r>    20.5013    -0.0009    80.0001 </r>
       <r>    20.5905    -0.0008    80.0001 </r>
       <r>    20.6797    -0.0004    80.0000 </r>
       <r>    20.7689    -0.0002    80.0000 </r>
       <r>    20.8582     0.0000    80.0000 </r>
       <r>    20.9474     0.0000    80.0000 </r>
       <r>    21.0366     0.0000    80.0000 </r>
       <r>    21.1259     0.0000    80.0000 </r>
       <r>    21.2151     0.0000    80.0000 </r>
       <r>    21.3043     0.0000    80.0000 </r>
       <r>    21.3935     0.0000    80.0000 </r>
       <r>    21.4828     0.0000    80.0000 </r>
       <r>    21.5720     0.0000    80.0000 </r>
       <r>    21.6612     0.0000    80.0000 </r>
       <r>    21.7504     0.0000    80.0000 </r>
       <r>    21.8397     0.0000    80.0000 </r>
       <r>    21.9289     0.0000    80.0000 </r>
       <r>    22.0181     0.0000    80.0000 </r>
       <r>    22.1073     0.0000    80.0000 </r>
       <r>    22.1966     0.0000    80.0000 </r>
       <r>    22.2858     0.0000    80.0000 </r>
       <r>    22.3750     0.0000    80.0000 </r>
       <r>    22.4642     0.0000    80.0000 </r>
       <r>    22.5535     0.0000    80.0000 </r>
       <r>    22.6427     0.0000    80.0000 </r>
       <r>    22.7319     0.0000    80.0000 </r>
       <r>    22.8211     0.0000    80.0000 </r>
       <r>    22.9104     0.0000    80.0000 </r>
       <r>    22.9996     0.0000    80.0000 </r>
      </set>
     </set>
    </array>
   </total>
  </dos>
 </calculation>
 <structure name="finalpos" >
  <crystal>
   <varray name="basis" >
    <v>       2.04492850       0.00000000       2.04492850 </v>
    <v>       0.00000000      -2.04492850      -2.04492850 </v>
    <v>       8.12640847       8.12640847      -8.12640847 </v>
   </varray>
   <i name="volume">    101.94740055 </i>
   <varray name="rec_basis" >
    <v>       0.32600977      -0.16300488       0.16300488 </v>
    <v>       0.16300488      -0.32600977      -0.16300488 </v>
    <v>       0.04101853       0.04101853      -0.04101853 </v>
   </varray>
  </crystal>
  <varray name="positions" >
   <v>       0.66666667       0.33333333       0.83297136 </v>
   <v>       0.00000000       0.00000000       0.98531161 </v>
   <v>       0.00000000       0.00000000       0.50820852 </v>
   <v>       0.33333333       0.66666667       0.68004302 </v>
   <v>       0.33333333       0.66666667       0.15791664 </v>
   <v>       0.66666667       0.33333333       0.33554885 </v>
  </varray>
 </structure>
</modeling>
