<?xml version="1.0" encoding="ISO-8859-1"?>
<modeling>
 <generator>
  <i name="program" type="string">vasp </i>
  <i name="version" type="string">5.3.5  </i>
  <i name="subversion" type="string">31Mar14 (build Jun 20 2014 13:15:13) complex                          parallel </i>
  <i name="platform" type="string">LinuxIFC </i>
  <i name="date" type="string">2025 12 12 </i>
  <i name="time" type="string">11:48:01 </i>
 </generator>
 <incar>
  <i type="string" name="PREC">accurate</i>
  <i type="int" name="IALGO">    38</i>
  <i type="logical" name="ADDGRID"> T  </i>
  <i type="int" name="ISPIN">     2</i>
  <i type="int" name="NELM">   100</i>
  <i type="int" name="NELMIN">     4</i>
  <i name="EDIFF">      0.00000100</i>
  <i name="ENCUT">    500.00000000</i>
  <i type="logical" name="LREAL"> F  </i>
  <i type="int" name="ISMEAR">     0</i>
  <i name="SIGMA">      0.05000000</i>
  <i type="logical" name="LWAVE"> F  </i>
  <i type="logical" name="LCHARG"> F  </i>
  <i type="int" name="NELM">   100</i>
  <i type="logical" name="LDAU"> T  </i>
  <v name="LDAUU">      0.00000000      4.00000000      0.00000000</v>
  <v name="LDAUJ">      0.00000000      0.00000000      0.00000000</v>
 </incar>
 <kpoints>
  <generation param="Auto">
   <i name="subdivisionlength">     20.00000000 </i>
   <v type="int" name="divisions">       4        5        2 </v>
   <v name="usershift">      0.00000000       0.00000000       0.00000000 </v>
   <v name="genvec1">      0.25000000       0.00000000       0.00000000 </v>
   <v name="genvec2">      0.00000000       0.20000000       0.00000000 </v>
   <v name="genvec3">      0.00000000       0.00000000       0.50000000 </v>
   <v name="shift">      0.00000000       0.00000000       0.00000000 </v>
  </generation>
  <varray name="kpointlist" >
   <v>       0.00000000       0.00000000       0.00000000 </v>
   <v>       0.25000000       0.00000000       0.00000000 </v>
   <v>       0.50000000       0.00000000       0.00000000 </v>
   <v>       0.00000000       0.20000000       0.00000000 </v>
   <v>       0.25000000       0.20000000       0.00000000 </v>
   <v>       0.50000000       0.20000000       0.00000000 </v>
   <v>       0.00000000       0.40000000       0.00000000 </v>
   <v>       0.25000000       0.40000000       0.00000000 </v>
   <v>       0.50000000       0.40000000       0.00000000 </v>
   <v>       0.00000000       0.00000000       0.50000000 </v>
   <v>       0.25000000       0.00000000       0.50000000 </v>
   <v>       0.50000000       0.00000000       0.50000000 </v>
   <v>       0.00000000       0.20000000       0.50000000 </v>
   <v>       0.25000000       0.20000000       0.50000000 </v>
   <v>       0.50000000       0.20000000       0.50000000 </v>
   <v>       0.00000000       0.40000000       0.50000000 </v>
   <v>       0.25000000       0.40000000       0.50000000 </v>
   <v>       0.50000000       0.40000000       0.50000000 </v>
  </varray>
  <varray name="weights" >
   <v>       0.02500000 </v>
   <v>       0.05000000 </v>
   <v>       0.02500000 </v>
   <v>       0.05000000 </v>
   <v>       0.10000000 </v>
   <v>       0.05000000 </v>
   <v>       0.05000000 </v>
   <v>       0.10000000 </v>
   <v>       0.05000000 </v>
   <v>       0.02500000 </v>
   <v>       0.05000000 </v>
   <v>       0.02500000 </v>
   <v>       0.05000000 </v>
   <v>       0.10000000 </v>
   <v>       0.05000000 </v>
   <v>       0.05000000 </v>
   <v>       0.10000000 </v>
   <v>       0.05000000 </v>
  </varray>
 </kpoints>
 <parameters>
  <separator name="general" >
   <i type="string" name="SYSTEM">unknown system</i>
   <i type="logical" name="LCOMPAT"> F  </i>
  </separator>
  <separator name="electronic" >
   <i type="string" name="PREC">accura</i>
   <i name="ENMAX">    500.00000000</i>
   <i name="ENAUG">    586.98000000</i>
   <i name="EDIFF">      0.00000100</i>
   <i type="int" name="IALGO">    38</i>
   <i type="int" name="IWAVPR">    10</i>
   <i type="int" name="NBANDS">    88</i>
   <i name="NELECT">    132.00000000</i>
   <i type="int" name="TURBO">     0</i>
   <i type="int" name="IRESTART">     0</i>
   <i type="int" name="NREBOOT">     0</i>
   <i type="int" name="NMIN">     0</i>
   <i name="EREF">      0.00000000</i>
   <separator name="electronic smearing" >
    <i type="int" name="ISMEAR">     0</i>
    <i name="SIGMA">      0.05000000</i>
    <i name="KSPACING">      0.50000000</i>
    <i type="logical" name="KGAMMA"> T  </i>
   </separator>
   <separator name="electronic projectors" >
    <i type="logical" name="LREAL"> F  </i>
    <v name="ROPT">      0.00000000      0.00000000      0.00000000</v>
    <i type="int" name="LMAXPAW">  -100</i>
    <i type="int" name="LMAXMIX">     2</i>
    <i type="logical" name="NLSPLINE"> F  </i>
   </separator>
   <separator name="electronic startup" >
    <i type="int" name="ISTART">     0</i>
    <i type="int" name="ICHARG">     2</i>
    <i type="int" name="INIWAV">     1</i>
   </separator>
   <separator name="electronic spin" >
    <i type="int" name="ISPIN">     2</i>
    <i type="logical" name="LNONCOLLINEAR"> F  </i>
    <v name="MAGMOM">      1.00000000      1.00000000      1.00000000      1.00000000      1.00000000      1.00000000      1.00000000      1.00000000      1.00000000      1.00000000      1.00000000      1.00000000      1.00000000      1.00000000      1.00000000      1.00000000</v>
    <i name="NUPDOWN">     -1.00000000</i>
    <i type="logical" name="LSORBIT"> F  </i>
    <v name="SAXIS">      0.00000000      0.00000000      1.00000000</v>
    <i type="logical" name="LSPIRAL"> F  </i>
    <v name="QSPIRAL">      0.00000000      0.00000000      0.00000000</v>
    <i type="logical" name="LZEROZ"> F  </i>
   </separator>
   <separator name="electronic exchange-correlation" >
    <i type="logical" name="LASPH"> F  </i>
    <i type="logical" name="LMETAGGA"> F  </i>
   </separator>
   <separator name="electronic convergence" >
    <i type="int" name="NELM">   100</i>
    <i type="int" name="NELMDL">    -5</i>
    <i type="int" name="NELMIN">     4</i>
    <i name="ENINI">    500.00000000</i>
    <separator name="electronic convergence detail" >
     <i type="logical" name="LDIAG"> T  </i>
     <i type="logical" name="LSUBROT"> F  </i>
     <i name="WEIMIN">      0.00000000</i>
     <i name="EBREAK">      0.00000000</i>
     <i name="DEPER">      0.30000000</i>
     <i type="int" name="NRMM">     4</i>
     <i name="TIME">      0.40000000</i>
    </separator>
   </separator>
   <separator name="electronic mixer" >
    <i name="AMIX">      0.40000000</i>
    <i name="BMIX">      1.00000000</i>
    <i name="AMIN">      0.10000000</i>
    <i name="AMIX_MAG">      1.60000000</i>
    <i name="BMIX_MAG">      1.00000000</i>
    <separator name="electronic mixer details" >
     <i type="int" name="IMIX">     4</i>
     <i type="int" name="MAXMIX">   -45</i>
     <i name="WC">    100.00000000</i>
     <i type="int" name="INIMIX">     1</i>
     <i type="int" name="MIXPRE">     1</i>
     <i type="int" name="MREMOVE">     5</i>
    </separator>
   </separator>
   <separator name="electronic dipolcorrection" >
    <i type="logical" name="LDIPOL"> F  </i>
    <i type="logical" name="LMONO"> F  </i>
    <i type="int" name="IDIPOL">     0</i>
    <i name="EPSILON">      1.00000000</i>
    <v name="DIPOL">   -100.00000000   -100.00000000   -100.00000000</v>
    <i name="EFIELD">      0.00000000</i>
   </separator>
  </separator>
  <separator name="grids" >
   <i type="int" name="NGX">    42</i>
   <i type="int" name="NGY">    30</i>
   <i type="int" name="NGZ">    84</i>
   <i type="int" name="NGXF">    84</i>
   <i type="int" name="NGYF">    60</i>
   <i type="int" name="NGZF">   168</i>
   <i type="logical" name="ADDGRID"> T  </i>
  </separator>
  <separator name="ionic" >
   <i type="int" name="NSW">     0</i>
   <i type="int" name="IBRION">    -1</i>
   <i type="int" name="ISIF">     2</i>
   <i name="PSTRESS">      0.00000000</i>
   <i name="EDIFFG">      0.00001000</i>
   <i type="int" name="NFREE">     0</i>
   <i name="POTIM">      0.50000000</i>
   <i name="SMASS">     -3.00000000</i>
   <i name="SCALEE">      1.00000000</i>
  </separator>
  <separator name="ionic md" >
   <i name="TEBEG">      0.00010000</i>
   <i name="TEEND">      0.00010000</i>
   <i type="int" name="NBLOCK">     1</i>
   <i type="int" name="KBLOCK">     1</i>
   <i type="int" name="NPACO">   256</i>
   <i name="APACO">     16.00000000</i>
  </separator>
  <separator name="symmetry" >
   <i type="int" name="ISYM">     2</i>
   <i name="SYMPREC">      0.00001000</i>
  </separator>
  <separator name="dos" >
   <i type="logical" name="LORBIT"> F  </i>
   <v name="RWIGS">     -1.00000000     -1.00000000     -1.00000000</v>
   <i type="int" name="NEDOS">   301</i>
   <i name="EMIN">     10.00000000</i>
   <i name="EMAX">    -10.00000000</i>
   <i name="EFERMI">      0.00000000</i>
  </separator>
  <separator name="writing" >
   <i type="int" name="NWRITE">     2</i>
   <i type="logical" name="LWAVE"> F  </i>
   <i type="logical" name="LCHARG"> F  </i>
   <i type="logical" name="LPARD"> F  </i>
   <i type="logical" name="LVTOT"> F  </i>
   <i type="logical" name="LVHAR"> F  </i>
   <i type="logical" name="LELF"> F  </i>
   <i type="logical" name="LOPTICS"> F  </i>
   <v name="STM">      0.00000000      0.00000000      0.00000000      0.00000000      0.00000000      0.00000000      0.00000000</v>
  </separator>
  <separator name="performance" >
   <i type="int" name="NPAR">     4</i>
   <i type="int" name="NSIM">     4</i>
   <i type="int" name="NBLK">    -1</i>
   <i type="logical" name="LPLANE"> T  </i>
   <i type="logical" name="LSCALAPACK"> T  </i>
   <i type="logical" name="LSCAAWARE"> F  </i>
   <i type="logical" name="LSCALU"> F  </i>
   <i type="logical" name="LASYNC"> F  </i>
   <i type="logical" name="LORBITALREAL"> F  </i>
  </separator>
  <separator name="miscellaneous" >
   <i type="int" name="IDIOT">     3</i>
   <i type="logical" name="LMUSIC"> F  </i>
   <v name="POMASS">     87.62000000     63.54600000     16.00000000</v>
   <v name="DARWINR">      0.00000000      0.00000000      0.00000000</v>
   <v name="DARWINV">      1.00000000      1.00000000      1.00000000</v>
   <i type="logical" name="LCORR"> T  </i>
  </separator>
  <i type="logical" name="GGA_COMPAT"> T  </i>
  <i type="logical" name="LBERRY"> F  </i>
  <i type="int" name="ICORELEVEL">     0</i>
  <i type="logical" name="LDAU"> T  </i>
  <v type="int" name="LDAUTYPE">     2</v>
  <v type="int" name="LDAUL">     2</v>
  <v name="LDAUU">      0.00000000</v>
  <v name="LDAUJ">      0.00000000</v>
  <i type="int" name="LDAUPRINT">     0</i>
  <i type="int" name="I_CONSTRAINED_M">     0</i>
  <separator name="electronic exchange-correlation" >
   <i type="string" name="GGA">--</i>
   <i type="int" name="VOSKOWN">     0</i>
   <i type="logical" name="LHFCALC"> F  </i>
   <i type="string" name="PRECFOCK"></i>
   <i type="logical" name="LSYMGRAD"> F  </i>
   <i type="logical" name="LHFONE"> F  </i>
   <i type="logical" name="LRHFCALC"> F  </i>
   <i type="logical" name="LTHOMAS"> F  </i>
   <i type="logical" name="LMODELHF"> F  </i>
   <i name="ENCUT4O">     -1.00000000</i>
   <i type="int" name="EXXOEP">     0</i>
   <i type="int" name="FOURORBIT">     0</i>
   <i name="AEXX">      0.00000000</i>
   <i name="HFALPHA">      0.00000000</i>
   <i name="MCALPHA">      0.00000000</i>
   <i name="ALDAX">      1.00000000</i>
   <i name="AGGAX">      1.00000000</i>
   <i name="ALDAC">      1.00000000</i>
   <i name="AGGAC">      1.00000000</i>
   <i type="int" name="NKREDX">     1</i>
   <i type="int" name="NKREDY">     1</i>
   <i type="int" name="NKREDZ">     1</i>
   <i type="logical" name="SHIFTRED"> F  </i>
   <i type="logical" name="ODDONLY"> F  </i>
   <i type="logical" name="EVENONLY"> F  </i>
   <i type="int" name="LMAXFOCK">     0</i>
   <i type="int" name="NMAXFOCKAE">     0</i>
   <i type="logical" name="LFOCKAEDFT"> F  </i>
   <i name="HFSCREEN">      0.00000000</i>
   <i name="HFSCREENC">      0.00000000</i>
   <i type="int" name="NBANDSGWLOW">     0</i>
  </separator>
  <separator name="vdW DFT" >
   <i type="logical" name="LUSE_VDW"> F  </i>
   <i name="Zab_VDW">     -0.84910000</i>
   <i name="PARAM1">      0.12340000</i>
   <i name="PARAM2">      1.00000000</i>
   <i name="PARAM3">      0.00000000</i>
  </separator>
  <separator name="model GW" >
   <i type="int" name="MODEL_GW">     0</i>
   <i name="MODEL_EPS0">      9.60000000</i>
   <i name="MODEL_ALPHA">      1.00000000</i>
  </separator>
  <separator name="linear response parameters" >
   <i type="logical" name="LEPSILON"> F  </i>
   <i type="logical" name="LRPA"> F  </i>
   <i type="logical" name="LNABLA"> F  </i>
   <i type="logical" name="LVEL"> F  </i>
   <i type="int" name="KINTER">     0</i>
   <i name="CSHIFT">      0.10000000</i>
   <i name="OMEGAMAX">     -1.00000000</i>
   <i name="DEG_THRESHOLD">      0.00200000</i>
  </separator>
  <separator name="orbital magnetization" >
   <i type="logical" name="NUCIND"> F  </i>
   <v name="MAGPOS">      0.00000000      0.00000000      0.00000000</v>
   <i type="logical" name="LNICSALL"> T  </i>
   <i type="logical" name="ORBITALMAG"> F  </i>
   <i type="logical" name="LMAGBLOCH"> F  </i>
   <i type="logical" name="LCHIMAG"> F  </i>
   <i type="logical" name="LGAUGE"> T  </i>
   <i type="int" name="MAGATOM">     0</i>
   <v name="MAGDIPOL">      0.00000000      0.00000000      0.00000000</v>
   <v name="AVECCONST">      0.00000000      0.00000000      0.00000000</v>
  </separator>
  <separator name="response functions" >
   <i type="logical" name="LADDER"> F  </i>
   <i type="logical" name="LFXC"> F  </i>
   <i type="logical" name="LHARTREE"> T  </i>
   <i type="int" name="IBSE">     0</i>
   <i type="logical" name="LTCTE"> F  </i>
   <i type="logical" name="LTETE"> F  </i>
   <i type="logical" name="LTRIPLET"> F  </i>
   <i type="logical" name="LFXCEPS"> F  </i>
   <i type="logical" name="LFXHEG"> F  </i>
   <i type="logical" name="L2ORDER"> F  </i>
   <i type="logical" name="LUSEW"> F  </i>
   <i name="ENCUTGW">     -2.00000000</i>
   <i name="ENCUTGWSOFT">     -2.00000000</i>
   <i name="ENCUTLF">     -1.00000000</i>
   <i type="int" name="LMAXMP2">    -1</i>
   <i name="SCISSOR">      0.00000000</i>
   <i type="int" name="NOMEGA">     0</i>
   <i type="int" name="NOMEGAR">     0</i>
   <i type="int" name="NBANDSGW">    -1</i>
   <i type="int" name="NBANDSO">    -1</i>
   <i type="int" name="NBANDSV">    -1</i>
   <i type="int" name="NELM">   100</i>
   <i type="int" name="DIM">     3</i>
   <i type="int" name="ANTIRES">     0</i>
   <i name="OMEGAMAX">    -30.00000000</i>
   <i name="OMEGAMIN">    -30.00000000</i>
   <i name="OMEGATL">   -200.00000000</i>
   <i type="int" name="OMEGAGRID">     0</i>
   <i name="CSHIFT">     -0.10000000</i>
   <i type="logical" name="SELFENERGY"> F  </i>
   <i type="logical" name="LSPECTRAL"> F  </i>
   <i type="logical" name="ODDONLYGW"> F  </i>
   <i type="logical" name="EVENONLYGW"> F  </i>
   <i type="int" name="NKREDLFX">     1</i>
   <i type="int" name="NKREDLFY">     1</i>
   <i type="int" name="NKREDLFZ">     1</i>
   <i type="int" name="MAXMEM">  1800</i>
   <i type="int" name="TELESCOPE">     0</i>
   <i type="int" name="TAUPAR">     1</i>
  </separator>
  <separator name="External order field" >
   <i name="OFIELD_KAPPA">      0.00000000</i>
   <v name="OFIELD_K">      0.00000000      0.00000000      0.00000000</v>
   <i name="OFIELD_Q6_NEAR">      0.00000000</i>
   <i name="OFIELD_Q6_FAR">      0.00000000</i>
   <i name="OFIELD_A">      0.00000000</i>
  </separator>
 </parameters>
 <atominfo>
  <atoms>      16 </atoms>
  <types>       3 </types>
  <array name="atoms" >
   <dimension dim="1">ion</dimension>
   <field type="string">element</field>
   <field type="int">atomtype</field>
   <set>
    <rc><c>Sr</c><c>   1</c></rc>
    <rc><c>Sr</c><c>   1</c></rc>
    <rc><c>Sr</c><c>   1</c></rc>
    <rc><c>Sr</c><c>   1</c></rc>
    <rc><c>Cu</c><c>   2</c></rc>
    <rc><c>Cu</c><c>   2</c></rc>
    <rc><c>Cu</c><c>   2</c></rc>
    <rc><c>Cu</c><c>   2</c></rc>
    <rc><c>O </c><c>   3</c></rc>
    <rc><c>O </c><c>   3</c></rc>
    <rc><c>O </c><c>   3</c></rc>
    <rc><c>O </c><c>   3</c></rc>
    <rc><c>O </c><c>   3</c></rc>
    <rc><c>O </c><c>   3</c></rc>
    <rc><c>O </c><c>   3</c></rc>
    <rc><c>O </c><c>   3</c></rc>
   </set>
  </array>
  <array name="atomtypes" >
   <dimension dim="1">type</dimension>
   <field type="int">atomspertype</field>
   <field type="string">element</field>
   <field>mass</field>
   <field>valence</field>
   <field type="string">pseudopotential</field>
   <set>
    <rc><c>   4</c><c>Sr</c><c>     87.62000000</c><c>     10.00000000</c><c>  PAW_PBE Sr_sv 07Sep2000               </c></rc>
    <rc><c>   4</c><c>Cu</c><c>     63.54600000</c><c>     11.00000000</c><c>  PAW_PBE Cu 22Jun2005                  </c></rc>
    <rc><c>   8</c><c>O </c><c>     16.00000000</c><c>      6.00000000</c><c>  PAW_PBE O_s 07Sep2000                 </c></rc>
   </set>
  </array>
 </atominfo>
 <structure name="initialpos" >
  <crystal>
   <varray name="basis" >
    <v>       5.65685425       0.00000000       0.00000000 </v>
    <v>       0.00000000       4.00000000       0.00000000 </v>
    <v>       0.00000000       0.00000000      11.31370850 </v>
   </varray>
   <i name="volume">    256.00000000 </i>
   <varray name="rec_basis" >
    <v>       0.17677670       0.00000000       0.00000000 </v>
    <v>       0.00000000       0.25000000       0.00000000 </v>
    <v>       0.00000000       0.00000000       0.08838835 </v>
   </varray>
  </crystal>
  <varray name="positions" >
   <v>       0.00000000       0.00000000       0.00000000 </v>
   <v>       0.50000000       0.00000000       0.25000000 </v>
   <v>       0.00000000       0.00000000       0.50000000 </v>
   <v>       0.50000000       0.00000000       0.75000000 </v>
   <v>       0.50000000       0.50000000       0.00000000 </v>
   <v>       0.00000000       0.50000000       0.25000000 </v>
   <v>       0.50000000       0.50000000       0.50000000 </v>
   <v>       0.00000000       0.50000000       0.75000000 </v>
   <v>       0.25000000       0.50000000       0.62500000 </v>
   <v>       0.00000000       0.00000000       0.25000000 </v>
   <v>       0.50000000       0.00000000       0.50000000 </v>
   <v>       0.00000000       0.00000000       0.75000000 </v>
   <v>       0.75000000       0.50000000       0.12500000 </v>
   <v>       0.25000000       0.50000000       0.37500000 </v>
   <v>       0.75000000       0.50000000       0.62500000 </v>
   <v>       0.25000000       0.50000000       0.87500000 </v>
  </varray>
 </structure>
 <calculation>
  <scstep>
   <time name="dav">    2.03    2.03</time>
   <time name="total">    2.13    2.14</time>
   <energy>
    <i name="alphaZ">    598.65364144 </i>
    <i name="ewald">  -8488.99562188 </i>
    <i name="hartreedc">  -3955.15575559 </i>
    <i name="XCdc">    543.15138270 </i>
    <i name="pawpsdc">  10188.96972968 </i>
    <i name="pawaedc"> -10517.73277125 </i>
    <i name="eentropy">     -0.00233109 </i>
    <i name="bandstr">    882.64425973 </i>
    <i name="atom">  12395.00728236 </i>
    <i name="e_fr_energy">   1646.53981610 </i>
    <i name="e_wo_entrp">   1646.54214718 </i>
    <i name="e_0_energy">   1646.54098164 </i>
   </energy>
  </scstep>
  <scstep>
   <time name="dav">    2.17    2.17</time>
   <time name="total">    2.17    2.18</time>
   <energy>
    <i name="e_fr_energy">    151.83361732 </i>
    <i name="e_wo_entrp">    151.83869003 </i>
    <i name="e_0_energy">    151.83615367 </i>
   </energy>
  </scstep>
  <scstep>
   <time name="dav">    2.17    2.17</time>
   <time name="total">    2.17    2.18</time>
   <energy>
    <i name="e_fr_energy">    -78.94124505 </i>
    <i name="e_wo_entrp">    -78.93459011 </i>
    <i name="e_0_energy">    -78.93791758 </i>
   </energy>
  </scstep>
  <scstep>
   <time name="dav">    2.88    2.88</time>
   <time name="total">    2.89    2.90</time>
   <energy>
    <i name="e_fr_energy">    -96.44383680 </i>
    <i name="e_wo_entrp">    -96.43914635 </i>
    <i name="e_0_energy">    -96.44149157 </i>
   </energy>
  </scstep>
  <scstep>
   <time name="dav">    3.50    3.50</time>
   <time name="total">    3.70    3.71</time>
   <energy>
    <i name="e_fr_energy">    -97.43713262 </i>
    <i name="e_wo_entrp">    -97.43234426 </i>
    <i name="e_0_energy">    -97.43473844 </i>
   </energy>
  </scstep>
  <scstep>
   <time name="dav">    2.74    2.74</time>
   <time name="total">    3.04    3.05</time>
   <energy>
    <i name="e_fr_energy">    -85.14686971 </i>
    <i name="e_wo_entrp">    -85.13365478 </i>
    <i name="e_0_energy">    -85.14026224 </i>
   </energy>
  </scstep>
  <scstep>
   <time name="dav">    2.76    2.76</time>
   <time name="total">    3.05    3.07</time>
   <energy>
    <i name="e_fr_energy">    -78.92812996 </i>
    <i name="e_wo_entrp">    -78.92108064 </i>
    <i name="e_0_energy">    -78.92460530 </i>
   </energy>
  </scstep>
  <scstep>
   <time name="dav">    3.02    3.02</time>
   <time name="total">    3.32    3.33</time>
   <energy>
    <i name="e_fr_energy">    -79.48805560 </i>
    <i name="e_wo_entrp">    -79.47959432 </i>
    <i name="e_0_energy">    -79.48382496 </i>
   </energy>
  </scstep>
  <scstep>
   <time name="dav">    2.69    2.69</time>
   <time name="total">    2.98    3.00</time>
   <energy>
    <i name="e_fr_energy">    -80.09430275 </i>
    <i name="e_wo_entrp">    -80.08604027 </i>
    <i name="e_0_energy">    -80.09017151 </i>
   </energy>
  </scstep>
  <scstep>
   <time name="dav">    2.74    2.74</time>
   <time name="total">    3.03    3.05</time>
   <energy>
    <i name="e_fr_energy">    -78.60682901 </i>
    <i name="e_wo_entrp">    -78.59721822 </i>
    <i name="e_0_energy">    -78.60202362 </i>
   </energy>
  </scstep>
  <scstep>
   <time name="dav">    2.87    2.88</time>
   <time name="total">    3.17    3.18</time>
   <energy>
    <i name="e_fr_energy">    -78.57769420 </i>
    <i name="e_wo_entrp">    -78.57013145 </i>
    <i name="e_0_energy">    -78.57391283 </i>
   </energy>
  </scstep>
  <scstep>
   <time name="dav">    2.92    2.92</time>
   <time name="total">    3.22    3.23</time>
   <energy>
    <i name="e_fr_energy">    -78.61358523 </i>
    <i name="e_wo_entrp">    -78.60696619 </i>
    <i name="e_0_energy">    -78.61027571 </i>
   </energy>
  </scstep>
  <scstep>
   <time name="dav">    2.87    2.87</time>
   <time name="total">    3.16    3.18</time>
   <energy>
    <i name="e_fr_energy">    -78.66188403 </i>
    <i name="e_wo_entrp">    -78.65693858 </i>
    <i name="e_0_energy">    -78.65941130 </i>
   </energy>
  </scstep>
  <scstep>
   <time name="dav">    2.87    2.87</time>
   <time name="total">    3.17    3.18</time>
   <energy>
    <i name="e_fr_energy">    -78.66554531 </i>
    <i name="e_wo_entrp">    -78.66071201 </i>
    <i name="e_0_energy">    -78.66312866 </i>
   </energy>
  </scstep>
  <scstep>
   <time name="dav">    2.73    2.73</time>
   <time name="total">    3.03    3.04</time>
   <energy>
    <i name="e_fr_energy">    -78.66828176 </i>
    <i name="e_wo_entrp">    -78.66341547 </i>
    <i name="e_0_energy">    -78.66584861 </i>
   </energy>
  </scstep>
  <scstep>
   <time name="dav">    2.86    2.86</time>
   <time name="total">    3.15    3.17</time>
   <energy>
    <i name="e_fr_energy">    -78.66707439 </i>
    <i name="e_wo_entrp">    -78.66253322 </i>
    <i name="e_0_energy">    -78.66480381 </i>
   </energy>
  </scstep>
  <scstep>
   <time name="dav">    2.80    2.80</time>
   <time name="total">    3.10    3.12</time>
   <energy>
    <i name="e_fr_energy">    -78.66911392 </i>
    <i name="e_wo_entrp">    -78.66470796 </i>
    <i name="e_0_energy">    -78.66691094 </i>
   </energy>
  </scstep>
  <scstep>
   <time name="dav">    2.84    2.84</time>
   <time name="total">    3.13    3.15</time>
   <energy>
    <i name="e_fr_energy">    -78.66930942 </i>
    <i name="e_wo_entrp">    -78.66496961 </i>
    <i name="e_0_energy">    -78.66713952 </i>
   </energy>
  </scstep>
  <scstep>
   <time name="dav">    2.85    2.86</time>
   <time name="total">    3.15    3.16</time>
   <energy>
    <i name="e_fr_energy">    -78.66964859 </i>
    <i name="e_wo_entrp">    -78.66524105 </i>
    <i name="e_0_energy">    -78.66744482 </i>
   </energy>
  </scstep>
  <scstep>
   <time name="dav">    2.99    2.99</time>
   <time name="total">    3.28    3.30</time>
   <energy>
    <i name="e_fr_energy">    -78.66995698 </i>
    <i name="e_wo_entrp">    -78.66553749 </i>
    <i name="e_0_energy">    -78.66774723 </i>
   </energy>
  </scstep>
  <scstep>
   <time name="dav">    3.06    3.06</time>
   <time name="total">    3.36    3.37</time>
   <energy>
    <i name="e_fr_energy">    -78.67026130 </i>
    <i name="e_wo_entrp">    -78.66578689 </i>
    <i name="e_0_energy">    -78.66802409 </i>
   </energy>
  </scstep>
  <scstep>
   <time name="dav">    3.07    3.07</time>
   <time name="total">    3.36    3.38</time>
   <energy>
    <i name="e_fr_energy">    -78.67065019 </i>
    <i name="e_wo_entrp">    -78.66599576 </i>
    <i name="e_0_energy">    -78.66832298 </i>
   </energy>
  </scstep>
  <scstep>
   <time name="dav">    2.69    2.70</time>
   <time name="total">    2.99    3.01</time>
   <energy>
    <i name="e_fr_energy">    -78.67100308 </i>
    <i name="e_wo_entrp">    -78.66632046 </i>
    <i name="e_0_energy">    -78.66866177 </i>
   </energy>
  </scstep>
  <scstep>
   <time name="dav">    3.03    3.03</time>
   <time name="total">    3.33    3.34</time>
   <energy>
    <i name="e_fr_energy">    -78.67125431 </i>
    <i name="e_wo_entrp">    -78.66649969 </i>
    <i name="e_0_energy">    -78.66887700 </i>
   </energy>
  </scstep>
  <scstep>
   <time name="dav">    2.94    2.94</time>
   <time name="total">    3.24    3.25</time>
   <energy>
    <i name="e_fr_energy">    -78.67147787 </i>
    <i name="e_wo_entrp">    -78.66665977 </i>
    <i name="e_0_energy">    -78.66906882 </i>
   </energy>
  </scstep>
  <scstep>
   <time name="dav">    2.81    2.81</time>
   <time name="total">    3.10    3.12</time>
   <energy>
    <i name="e_fr_energy">    -78.67155182 </i>
    <i name="e_wo_entrp">    -78.66671197 </i>
    <i name="e_0_energy">    -78.66913189 </i>
   </energy>
  </scstep>
  <scstep>
   <time name="dav">    2.64    2.64</time>
   <time name="total">    2.94    2.95</time>
   <energy>
    <i name="e_fr_energy">    -78.67147891 </i>
    <i name="e_wo_entrp">    -78.66665506 </i>
    <i name="e_0_energy">    -78.66906698 </i>
   </energy>
  </scstep>
  <scstep>
   <time name="dav">    2.89    2.89</time>
   <time name="total">    3.19    3.20</time>
   <energy>
    <i name="e_fr_energy">    -78.67120517 </i>
    <i name="e_wo_entrp">    -78.66643022 </i>
    <i name="e_0_energy">    -78.66881770 </i>
   </energy>
  </scstep>
  <scstep>
   <time name="dav">    2.91    2.91</time>
   <time name="total">    3.20    3.22</time>
   <energy>
    <i name="e_fr_energy">    -78.67097759 </i>
    <i name="e_wo_entrp">    -78.66626115 </i>
    <i name="e_0_energy">    -78.66861937 </i>
   </energy>
  </scstep>
  <scstep>
   <time name="dav">    3.10    3.10</time>
   <time name="total">    3.39    3.41</time>
   <energy>
    <i name="e_fr_energy">    -78.67074570 </i>
    <i name="e_wo_entrp">    -78.66609655 </i>
    <i name="e_0_energy">    -78.66842112 </i>
   </energy>
  </scstep>
  <scstep>
   <time name="dav">    2.98    2.98</time>
   <time name="total">    3.28    3.29</time>
   <energy>
    <i name="e_fr_energy">    -78.67069561 </i>
    <i name="e_wo_entrp">    -78.66608749 </i>
    <i name="e_0_energy">    -78.66839155 </i>
   </energy>
  </scstep>
  <scstep>
   <time name="dav">    2.50    2.50</time>
   <time name="total">    2.79    2.81</time>
   <energy>
    <i name="e_fr_energy">    -78.67080854 </i>
    <i name="e_wo_entrp">    -78.66619665 </i>
    <i name="e_0_energy">    -78.66850259 </i>
   </energy>
  </scstep>
  <scstep>
   <time name="dav">    2.49    2.49</time>
   <time name="total">    2.79    2.81</time>
   <energy>
    <i name="e_fr_energy">    -78.67064549 </i>
    <i name="e_wo_entrp">    -78.66606719 </i>
    <i name="e_0_energy">    -78.66835634 </i>
   </energy>
  </scstep>
  <scstep>
   <time name="dav">    2.11    2.11</time>
   <time name="total">    2.41    2.42</time>
   <energy>
    <i name="e_fr_energy">    -78.67070366 </i>
    <i name="e_wo_entrp">    -78.66612427 </i>
    <i name="e_0_energy">    -78.66841397 </i>
   </energy>
  </scstep>
  <scstep>
   <time name="dav">    1.72    1.72</time>
   <time name="total">    2.02    2.03</time>
   <energy>
    <i name="e_fr_energy">    -78.67067508 </i>
    <i name="e_wo_entrp">    -78.66610317 </i>
    <i name="e_0_energy">    -78.66838913 </i>
   </energy>
  </scstep>
  <scstep>
   <time name="dav">    2.72    2.72</time>
   <time name="total">    3.02    3.03</time>
   <energy>
    <i name="e_fr_energy">    -78.67053305 </i>
    <i name="e_wo_entrp">    -78.66598959 </i>
    <i name="e_0_energy">    -78.66826132 </i>
   </energy>
  </scstep>
  <scstep>
   <time name="dav">    2.16    2.16</time>
   <time name="total">    2.46    2.47</time>
   <energy>
    <i name="e_fr_energy">    -78.67053594 </i>
    <i name="e_wo_entrp">    -78.66599916 </i>
    <i name="e_0_energy">    -78.66826755 </i>
   </energy>
  </scstep>
  <scstep>
   <time name="dav">    2.66    2.66</time>
   <time name="total">    2.96    2.97</time>
   <energy>
    <i name="e_fr_energy">    -78.67066757 </i>
    <i name="e_wo_entrp">    -78.66610456 </i>
    <i name="e_0_energy">    -78.66838606 </i>
   </energy>
  </scstep>
  <scstep>
   <time name="dav">    2.91    2.91</time>
   <time name="total">    3.21    3.22</time>
   <energy>
    <i name="e_fr_energy">    -78.67081933 </i>
    <i name="e_wo_entrp">    -78.66621304 </i>
    <i name="e_0_energy">    -78.66851619 </i>
   </energy>
  </scstep>
  <scstep>
   <time name="dav">    2.52    2.52</time>
   <time name="total">    2.82    2.84</time>
   <energy>
    <i name="e_fr_energy">    -78.67088342 </i>
    <i name="e_wo_entrp">    -78.66625395 </i>
    <i name="e_0_energy">    -78.66856869 </i>
   </energy>
  </scstep>
  <scstep>
   <time name="dav">    2.07    2.07</time>
   <time name="total">    2.38    2.39</time>
   <energy>
    <i name="e_fr_energy">    -78.67087176 </i>
    <i name="e_wo_entrp">    -78.66623905 </i>
    <i name="e_0_energy">    -78.66855541 </i>
   </energy>
  </scstep>
  <scstep>
   <time name="dav">    1.59    1.59</time>
   <time name="total">    1.89    1.91</time>
   <energy>
    <i name="e_fr_energy">    -78.67090481 </i>
    <i name="e_wo_entrp">    -78.66626250 </i>
    <i name="e_0_energy">    -78.66858366 </i>
   </energy>
  </scstep>
  <scstep>
   <time name="dav">    2.25    2.25</time>
   <time name="total">    2.55    2.57</time>
   <energy>
    <i name="e_fr_energy">    -78.67098739 </i>
    <i name="e_wo_entrp">    -78.66632268 </i>
    <i name="e_0_energy">    -78.66865504 </i>
   </energy>
  </scstep>
  <scstep>
   <time name="dav">    2.91    2.91</time>
   <time name="total">    3.22    3.23</time>
   <energy>
    <i name="e_fr_energy">    -78.67121433 </i>
    <i name="e_wo_entrp">    -78.66648313 </i>
    <i name="e_0_energy">    -78.66884873 </i>
   </energy>
  </scstep>
  <scstep>
   <time name="dav">    2.95    2.95</time>
   <time name="total">    3.25    3.26</time>
   <energy>
    <i name="e_fr_energy">    -78.67142247 </i>
    <i name="e_wo_entrp">    -78.66663088 </i>
    <i name="e_0_energy">    -78.66902668 </i>
   </energy>
  </scstep>
  <scstep>
   <time name="dav">    2.63    2.64</time>
   <time name="total">    2.94    2.95</time>
   <energy>
    <i name="e_fr_energy">    -78.67145247 </i>
    <i name="e_wo_entrp">    -78.66664677 </i>
    <i name="e_0_energy">    -78.66904962 </i>
   </energy>
  </scstep>
  <scstep>
   <time name="dav">    2.05    2.05</time>
   <time name="total">    2.35    2.37</time>
   <energy>
    <i name="e_fr_energy">    -78.67145629 </i>
    <i name="e_wo_entrp">    -78.66664411 </i>
    <i name="e_0_energy">    -78.66905020 </i>
   </energy>
  </scstep>
  <scstep>
   <time name="dav">    1.79    1.79</time>
   <time name="total">    2.10    2.12</time>
   <energy>
    <i name="e_fr_energy">    -78.67145859 </i>
    <i name="e_wo_entrp">    -78.66664323 </i>
    <i name="e_0_energy">    -78.66905091 </i>
   </energy>
  </scstep>
  <scstep>
   <time name="dav">    1.57    1.57</time>
   <time name="total">    1.87    1.89</time>
   <energy>
    <i name="e_fr_energy">    -78.67144068 </i>
    <i name="e_wo_entrp">    -78.66662671 </i>
    <i name="e_0_energy">    -78.66903370 </i>
   </energy>
  </scstep>
  <scstep>
   <time name="dav">    1.50    1.50</time>
   <time name="total">    1.81    1.82</time>
   <energy>
    <i name="e_fr_energy">    -78.67139791 </i>
    <i name="e_wo_entrp">    -78.66659130 </i>
    <i name="e_0_energy">    -78.66899461 </i>
   </energy>
  </scstep>
  <scstep>
   <time name="dav">    1.78    1.78</time>
   <time name="total">    2.08    2.09</time>
   <energy>
    <i name="e_fr_energy">    -78.67137072 </i>
    <i name="e_wo_entrp">    -78.66657095 </i>
    <i name="e_0_energy">    -78.66897083 </i>
   </energy>
  </scstep>
  <scstep>
   <time name="dav">    1.70    1.70</time>
   <time name="total">    2.01    2.02</time>
   <energy>
    <i name="e_fr_energy">    -78.67144180 </i>
    <i name="e_wo_entrp">    -78.66663157 </i>
    <i name="e_0_energy">    -78.66903669 </i>
   </energy>
  </scstep>
  <scstep>
   <time name="dav">    1.50    1.50</time>
   <time name="total">    1.80    1.82</time>
   <energy>
    <i name="e_fr_energy">    -78.67144586 </i>
    <i name="e_wo_entrp">    -78.66663255 </i>
    <i name="e_0_energy">    -78.66903921 </i>
   </energy>
  </scstep>
  <scstep>
   <time name="dav">    1.50    1.50</time>
   <time name="total">    1.81    1.83</time>
   <energy>
    <i name="e_fr_energy">    -78.67146219 </i>
    <i name="e_wo_entrp">    -78.66664500 </i>
    <i name="e_0_energy">    -78.66905360 </i>
   </energy>
  </scstep>
  <scstep>
   <time name="dav">    1.49    1.49</time>
   <time name="total">    1.79    1.81</time>
   <energy>
    <i name="e_fr_energy">    -78.67149359 </i>
    <i name="e_wo_entrp">    -78.66666995 </i>
    <i name="e_0_energy">    -78.66908177 </i>
   </energy>
  </scstep>
  <scstep>
   <time name="dav">    1.49    1.49</time>
   <time name="total">    1.79    1.81</time>
   <energy>
    <i name="e_fr_energy">    -78.67150315 </i>
    <i name="e_wo_entrp">    -78.66667624 </i>
    <i name="e_0_energy">    -78.66908969 </i>
   </energy>
  </scstep>
  <scstep>
   <time name="dav">    1.47    1.47</time>
   <time name="total">    1.78    1.79</time>
   <energy>
    <i name="e_fr_energy">    -78.67152971 </i>
    <i name="e_wo_entrp">    -78.66669736 </i>
    <i name="e_0_energy">    -78.66911354 </i>
   </energy>
  </scstep>
  <scstep>
   <time name="dav">    1.64    1.64</time>
   <time name="total">    1.95    1.96</time>
   <energy>
    <i name="e_fr_energy">    -78.67153332 </i>
    <i name="e_wo_entrp">    -78.66669872 </i>
    <i name="e_0_energy">    -78.66911602 </i>
   </energy>
  </scstep>
  <scstep>
   <time name="dav">    1.64    1.64</time>
   <time name="total">    1.95    1.96</time>
   <energy>
    <i name="e_fr_energy">    -78.67151897 </i>
    <i name="e_wo_entrp">    -78.66668561 </i>
    <i name="e_0_energy">    -78.66910229 </i>
   </energy>
  </scstep>
  <scstep>
   <time name="dav">    1.44    1.44</time>
   <time name="total">    1.75    1.76</time>
   <energy>
    <i name="e_fr_energy">    -78.67151338 </i>
    <i name="e_wo_entrp">    -78.66668110 </i>
    <i name="e_0_energy">    -78.66909724 </i>
   </energy>
  </scstep>
  <scstep>
   <time name="dav">    1.44    1.44</time>
   <time name="total">    1.74    1.76</time>
   <energy>
    <i name="e_fr_energy">    -78.67150185 </i>
    <i name="e_wo_entrp">    -78.66667173 </i>
    <i name="e_0_energy">    -78.66908679 </i>
   </energy>
  </scstep>
  <scstep>
   <time name="dav">    1.45    1.45</time>
   <time name="total">    1.75    1.77</time>
   <energy>
    <i name="e_fr_energy">    -78.67146865 </i>
    <i name="e_wo_entrp">    -78.66664428 </i>
    <i name="e_0_energy">    -78.66905646 </i>
   </energy>
  </scstep>
  <scstep>
   <time name="dav">    1.43    1.43</time>
   <time name="total">    1.73    1.75</time>
   <energy>
    <i name="e_fr_energy">    -78.67146142 </i>
    <i name="e_wo_entrp">    -78.66664012 </i>
    <i name="e_0_energy">    -78.66905077 </i>
   </energy>
  </scstep>
  <scstep>
   <time name="dav">    1.43    1.43</time>
   <time name="total">    1.73    1.74</time>
   <energy>
    <i name="e_fr_energy">    -78.67144383 </i>
    <i name="e_wo_entrp">    -78.66662672 </i>
    <i name="e_0_energy">    -78.66903528 </i>
   </energy>
  </scstep>
  <scstep>
   <time name="dav">    1.44    1.44</time>
   <time name="total">    1.75    1.76</time>
   <energy>
    <i name="e_fr_energy">    -78.67141545 </i>
    <i name="e_wo_entrp">    -78.66660449 </i>
    <i name="e_0_energy">    -78.66900997 </i>
   </energy>
  </scstep>
  <scstep>
   <time name="dav">    1.55    1.55</time>
   <time name="total">    1.85    1.87</time>
   <energy>
    <i name="e_fr_energy">    -78.67136493 </i>
    <i name="e_wo_entrp">    -78.66656467 </i>
    <i name="e_0_energy">    -78.66896480 </i>
   </energy>
  </scstep>
  <scstep>
   <time name="dav">    1.76    1.76</time>
   <time name="total">    2.06    2.08</time>
   <energy>
    <i name="e_fr_energy">    -78.67135209 </i>
    <i name="e_wo_entrp">    -78.66655793 </i>
    <i name="e_0_energy">    -78.66895501 </i>
   </energy>
  </scstep>
  <scstep>
   <time name="dav">    1.60    1.60</time>
   <time name="total">    1.90    1.92</time>
   <energy>
    <i name="e_fr_energy">    -78.67131750 </i>
    <i name="e_wo_entrp">    -78.66653202 </i>
    <i name="e_0_energy">    -78.66892476 </i>
   </energy>
  </scstep>
  <scstep>
   <time name="dav">    1.77    1.77</time>
   <time name="total">    2.07    2.09</time>
   <energy>
    <i name="e_fr_energy">    -78.67128078 </i>
    <i name="e_wo_entrp">    -78.66650493 </i>
    <i name="e_0_energy">    -78.66889285 </i>
   </energy>
  </scstep>
  <scstep>
   <time name="dav">    1.69    1.69</time>
   <time name="total">    1.99    2.01</time>
   <energy>
    <i name="e_fr_energy">    -78.67126659 </i>
    <i name="e_wo_entrp">    -78.66649683 </i>
    <i name="e_0_energy">    -78.66888171 </i>
   </energy>
  </scstep>
  <scstep>
   <time name="dav">    1.47    1.47</time>
   <time name="total">    1.78    1.79</time>
   <energy>
    <i name="e_fr_energy">    -78.67122540 </i>
    <i name="e_wo_entrp">    -78.66646557 </i>
    <i name="e_0_energy">    -78.66884548 </i>
   </energy>
  </scstep>
  <scstep>
   <time name="dav">    1.75    1.75</time>
   <time name="total">    2.05    2.07</time>
   <energy>
    <i name="e_fr_energy">    -78.67118887 </i>
    <i name="e_wo_entrp">    -78.66643968 </i>
    <i name="e_0_energy">    -78.66881427 </i>
   </energy>
  </scstep>
  <scstep>
   <time name="dav">    1.68    1.68</time>
   <time name="total">    1.99    2.00</time>
   <energy>
    <i name="e_fr_energy">    -78.67117831 </i>
    <i name="e_wo_entrp">    -78.66643513 </i>
    <i name="e_0_energy">    -78.66880672 </i>
   </energy>
  </scstep>
  <scstep>
   <time name="dav">    1.47    1.47</time>
   <time name="total">    1.57    1.58</time>
   <energy>
    <i name="alphaZ">    598.65364144 </i>
    <i name="ewald">  -8488.99562188 </i>
    <i name="hartreedc">  -3965.73543489 </i>
    <i name="XCdc">    543.38613731 </i>
    <i name="pawpsdc">  15530.97154524 </i>
    <i name="pawaedc"> -15896.23527173 </i>
    <i name="eentropy">     -0.00474092 </i>
    <i name="bandstr">   -795.71871602 </i>
    <i name="atom">  12395.00728236 </i>
    <i name="e_fr_energy">    -78.67117910 </i>
    <i name="e_wo_entrp">    -78.66643819 </i>
    <i name="e_0_energy">    -78.66880864 </i>
   </energy>
  </scstep>
  <structure>
   <crystal>
    <varray name="basis" >
     <v>       5.65685425       0.00000000       0.00000000 </v>
     <v>       0.00000000       4.00000000       0.00000000 </v>
     <v>       0.00000000       0.00000000      11.31370850 </v>
    </varray>
    <i name="volume">    256.00000000 </i>
    <varray name="rec_basis" >
     <v>       0.17677670       0.00000000       0.00000000 </v>
     <v>       0.00000000       0.25000000       0.00000000 </v>
     <v>       0.00000000       0.00000000       0.08838835 </v>
    </varray>
   </crystal>
   <varray name="positions" >
    <v>       0.00000000       0.00000000       0.00000000 </v>
    <v>       0.50000000       0.00000000       0.25000000 </v>
    <v>       0.00000000       0.00000000       0.50000000 </v>
    <v>       0.50000000       0.00000000       0.75000000 </v>
    <v>       0.50000000       0.50000000       0.00000000 </v>
    <v>       0.00000000       0.50000000       0.25000000 </v>
    <v>       0.50000000       0.50000000       0.50000000 </v>
    <v>       0.00000000       0.50000000       0.75000000 </v>
    <v>       0.25000000       0.50000000       0.62500000 </v>
    <v>       0.00000000       0.00000000       0.25000000 </v>
    <v>       0.50000000       0.00000000       0.50000000 </v>
    <v>       0.00000000       0.00000000       0.75000000 </v>
    <v>       0.75000000       0.50000000       0.12500000 </v>
    <v>       0.25000000       0.50000000       0.37500000 </v>
    <v>       0.75000000       0.50000000       0.62500000 </v>
    <v>       0.25000000       0.50000000       0.87500000 </v>
   </varray>
  </structure>
  <varray name="forces" >
   <v>       0.07697327       0.00000000      -0.20450316 </v>
   <v>      -0.28293177       0.00000000       1.38401514 </v>
   <v>       0.91451201       0.00000000       1.03189038 </v>
   <v>      -0.77672503       0.00000000      -2.17664806 </v>
   <v>      -0.19021029       0.00000000      -0.04309459 </v>
   <v>       0.56243725       0.00000000       0.36531268 </v>
   <v>      -0.63325657       0.00000000       0.96287846 </v>
   <v>       0.15274226       0.00000000      -1.25070699 </v>
   <v>       0.09051087       0.00000000       0.05027450 </v>
   <v>       0.01693889       0.00000000      -0.47604108 </v>
   <v>       0.73011365       0.00000000      -0.88640190 </v>
   <v>      -0.76209888       0.00000000       1.18580942 </v>
   <v>      -1.34091959       0.00000000      -1.55674669 </v>
   <v>       0.18482635       0.00000000      -1.07276028 </v>
   <v>      -0.07547699       0.00000000       0.10387625 </v>
   <v>       1.33256457       0.00000000       2.58284591 </v>
  </varray>
  <varray name="stress" >
   <v>     -98.34375193       0.00000000      22.94870396 </v>
   <v>       0.00000000     -70.30062603       0.00000000 </v>
   <v>      22.94870383       0.00000000    -105.65722150 </v>
  </varray>
  <energy>
   <i name="e_fr_energy">    -78.67117910 </i>
   <i name="e_wo_entrp">    -78.66880864 </i>
   <i name="e_0_energy">     -0.00474092 </i>
  </energy>
  <time name="totalsc">  192.39  193.50</time>
  <eigenvalues>
   <array>
    <dimension dim="1">band</dimension>
    <dimension dim="2">kpoint</dimension>
    <dimension dim="3">spin</dimension>
    <field>eigene</field>
    <field>occ</field>
    <set>
     <set comment="spin 1">
      <set comment="kpoint 1">
       <r>  -32.3668    1.0000 </r>
       <r>  -31.8289    1.0000 </r>
       <r>  -30.9235    1.0000 </r>
       <r>  -30.4046    1.0000 </r>
       <r>  -15.1589    1.0000 </r>
       <r>  -14.7899    1.0000 </r>
       <r>  -14.6663    1.0000 </r>
       <r>  -14.5216    1.0000 </r>
       <r>  -14.2850    1.0000 </r>
       <r>  -14.2594    1.0000 </r>
       <r>  -14.0202    1.0000 </r>
       <r>  -13.8781    1.0000 </r>
       <r>  -13.7946    1.0000 </r>
       <r>  -13.7837    1.0000 </r>
       <r>  -13.6405    1.0000 </r>
       <r>  -13.5700    1.0000 </r>
       <r>  -13.2837    1.0000 </r>
       <r>  -13.1744    1.0000 </r>
       <r>  -12.8390    1.0000 </r>
       <r>  -12.8036    1.0000 </r>
       <r>  -12.6028    1.0000 </r>
       <r>  -12.3622    1.0000 </r>
       <r>  -12.2734    1.0000 </r>
       <r>  -12.0618    1.0000 </r>
       <r>   -2.8914    1.0000 </r>
       <r>   -2.0847    1.0000 </r>
       <r>   -1.9713    1.0000 </r>
       <r>   -1.8366    1.0000 </r>
       <r>   -1.8062    1.0000 </r>
       <r>   -1.4596    1.0000 </r>
       <r>   -1.3680    1.0000 </r>
       <r>   -1.0944    1.0000 </r>
       <r>   -1.0424    1.0000 </r>
       <r>   -0.9939    1.0000 </r>
       <r>   -0.8703    1.0000 </r>
       <r>   -0.8094    1.0000 </r>
       <r>   -0.7472    1.0000 </r>
       <r>   -0.6862    1.0000 </r>
       <r>   -0.6390    1.0000 </r>
       <r>   -0.6220    1.0000 </r>
       <r>   -0.5817    1.0000 </r>
       <r>   -0.5488    1.0000 </r>
       <r>   -0.5385    1.0000 </r>
       <r>   -0.4740    1.0000 </r>
       <r>   -0.3522    1.0000 </r>
       <r>   -0.2165    1.0000 </r>
       <r>   -0.1078    1.0000 </r>
       <r>   -0.0473    1.0000 </r>
       <r>    0.0972    1.0000 </r>
       <r>    0.2983    1.0000 </r>
       <r>    0.5632    1.0000 </r>
       <r>    0.6344    1.0000 </r>
       <r>    0.8439    1.0000 </r>
       <r>    0.8889    1.0000 </r>
       <r>    0.9512    1.0000 </r>
       <r>    1.0902    1.0000 </r>
       <r>    1.2229    1.0000 </r>
       <r>    1.2749    1.0000 </r>
       <r>    1.3403    1.0000 </r>
       <r>    1.3856    1.0000 </r>
       <r>    1.5717    1.0000 </r>
       <r>    1.6551    1.0000 </r>
       <r>    1.9672    1.0000 </r>
       <r>    2.0159    1.0000 </r>
       <r>    2.0311    1.0000 </r>
       <r>    2.3028    1.0000 </r>
       <r>    2.3240    1.0000 </r>
       <r>    3.1136    0.0000 </r>
       <r>    3.3760    0.0000 </r>
       <r>    4.4998    0.0000 </r>
       <r>    5.1707    0.0000 </r>
       <r>    5.8578    0.0000 </r>
       <r>    6.8859    0.0000 </r>
       <r>    7.4837    0.0000 </r>
       <r>    7.7107    0.0000 </r>
       <r>    7.8601    0.0000 </r>
       <r>    7.9828    0.0000 </r>
       <r>    8.1317    0.0000 </r>
       <r>    8.2742    0.0000 </r>
       <r>    8.5176    0.0000 </r>
       <r>    9.0179    0.0000 </r>
       <r>    9.1861    0.0000 </r>
       <r>    9.3589    0.0000 </r>
       <r>    9.3640    0.0000 </r>
       <r>    9.3970    0.0000 </r>
       <r>    9.6168    0.0000 </r>
       <r>    9.9569    0.0000 </r>
       <r>   10.1947    0.0000 </r>
      </set>
      <set comment="kpoint 2">
       <r>  -32.3667    1.0000 </r>
       <r>  -31.8287    1.0000 </r>
       <r>  -30.9233    1.0000 </r>
       <r>  -30.4044    1.0000 </r>
       <r>  -15.2393    1.0000 </r>
       <r>  -14.8108    1.0000 </r>
       <r>  -14.6982    1.0000 </r>
       <r>  -14.5341    1.0000 </r>
       <r>  -14.2849    1.0000 </r>
       <r>  -14.2844    1.0000 </r>
       <r>  -14.1228    1.0000 </r>
       <r>  -13.8806    1.0000 </r>
       <r>  -13.7837    1.0000 </r>
       <r>  -13.7802    1.0000 </r>
       <r>  -13.6057    1.0000 </r>
       <r>  -13.3451    1.0000 </r>
       <r>  -13.2989    1.0000 </r>
       <r>  -13.1878    1.0000 </r>
       <r>  -12.8387    1.0000 </r>
       <r>  -12.8080    1.0000 </r>
       <r>  -12.5532    1.0000 </r>
       <r>  -12.3624    1.0000 </r>
       <r>  -12.2239    1.0000 </r>
       <r>  -12.0282    1.0000 </r>
       <r>   -2.8325    1.0000 </r>
       <r>   -2.3551    1.0000 </r>
       <r>   -1.9412    1.0000 </r>
       <r>   -1.6829    1.0000 </r>
       <r>   -1.4086    1.0000 </r>
       <r>   -1.3830    1.0000 </r>
       <r>   -1.3050    1.0000 </r>
       <r>   -1.1402    1.0000 </r>
       <r>   -1.0683    1.0000 </r>
       <r>   -1.0524    1.0000 </r>
       <r>   -0.9311    1.0000 </r>
       <r>   -0.8636    1.0000 </r>
       <r>   -0.7922    1.0000 </r>
       <r>   -0.7515    1.0000 </r>
       <r>   -0.7182    1.0000 </r>
       <r>   -0.6788    1.0000 </r>
       <r>   -0.5434    1.0000 </r>
       <r>   -0.5422    1.0000 </r>
       <r>   -0.5116    1.0000 </r>
       <r>   -0.4649    1.0000 </r>
       <r>   -0.3780    1.0000 </r>
       <r>   -0.3593    1.0000 </r>
       <r>   -0.1224    1.0000 </r>
       <r>   -0.1157    1.0000 </r>
       <r>   -0.0360    1.0000 </r>
       <r>    0.2545    1.0000 </r>
       <r>    0.4639    1.0000 </r>
       <r>    0.6953    1.0000 </r>
       <r>    0.7900    1.0000 </r>
       <r>    0.8100    1.0000 </r>
       <r>    0.9507    1.0000 </r>
       <r>    0.9835    1.0000 </r>
       <r>    1.0936    1.0000 </r>
       <r>    1.3110    1.0000 </r>
       <r>    1.3447    1.0000 </r>
       <r>    1.3776    1.0000 </r>
       <r>    1.6332    1.0000 </r>
       <r>    1.7223    1.0000 </r>
       <r>    1.9568    1.0000 </r>
       <r>    1.9826    1.0000 </r>
       <r>    2.0753    1.0000 </r>
       <r>    2.2067    1.0000 </r>
       <r>    2.2858    1.0000 </r>
       <r>    2.9922    0.0000 </r>
       <r>    3.4513    0.0000 </r>
       <r>    4.6094    0.0000 </r>
       <r>    5.3801    0.0000 </r>
       <r>    6.0886    0.0000 </r>
       <r>    6.9809    0.0000 </r>
       <r>    7.1955    0.0000 </r>
       <r>    7.2669    0.0000 </r>
       <r>    7.4370    0.0000 </r>
       <r>    7.9724    0.0000 </r>
       <r>    8.3573    0.0000 </r>
       <r>    8.4781    0.0000 </r>
       <r>    8.5920    0.0000 </r>
       <r>    9.0889    0.0000 </r>
       <r>    9.2412    0.0000 </r>
       <r>    9.2913    0.0000 </r>
       <r>    9.4840    0.0000 </r>
       <r>    9.6232    0.0000 </r>
       <r>    9.9162    0.0000 </r>
       <r>    9.9240    0.0000 </r>
       <r>   10.2909    0.0000 </r>
      </set>
      <set comment="kpoint 3">
       <r>  -32.3666    1.0000 </r>
       <r>  -31.8286    1.0000 </r>
       <r>  -30.9231    1.0000 </r>
       <r>  -30.4043    1.0000 </r>
       <r>  -15.3070    1.0000 </r>
       <r>  -14.8489    1.0000 </r>
       <r>  -14.7307    1.0000 </r>
       <r>  -14.5482    1.0000 </r>
       <r>  -14.3169    1.0000 </r>
       <r>  -14.2848    1.0000 </r>
       <r>  -14.1297    1.0000 </r>
       <r>  -13.8869    1.0000 </r>
       <r>  -13.8210    1.0000 </r>
       <r>  -13.7837    1.0000 </r>
       <r>  -13.4755    1.0000 </r>
       <r>  -13.3094    1.0000 </r>
       <r>  -13.2782    1.0000 </r>
       <r>  -13.1736    1.0000 </r>
       <r>  -12.8383    1.0000 </r>
       <r>  -12.8001    1.0000 </r>
       <r>  -12.5175    1.0000 </r>
       <r>  -12.3626    1.0000 </r>
       <r>  -12.1698    1.0000 </r>
       <r>  -11.9881    1.0000 </r>
       <r>   -2.8775    1.0000 </r>
       <r>   -2.0580    1.0000 </r>
       <r>   -1.9775    1.0000 </r>
       <r>   -1.8383    1.0000 </r>
       <r>   -1.4425    1.0000 </r>
       <r>   -1.3450    1.0000 </r>
       <r>   -1.3271    1.0000 </r>
       <r>   -1.0715    1.0000 </r>
       <r>   -1.0427    1.0000 </r>
       <r>   -0.9973    1.0000 </r>
       <r>   -0.8455    1.0000 </r>
       <r>   -0.8233    1.0000 </r>
       <r>   -0.7944    1.0000 </r>
       <r>   -0.7779    1.0000 </r>
       <r>   -0.7574    1.0000 </r>
       <r>   -0.6725    1.0000 </r>
       <r>   -0.6525    1.0000 </r>
       <r>   -0.5876    1.0000 </r>
       <r>   -0.5328    1.0000 </r>
       <r>   -0.4600    1.0000 </r>
       <r>   -0.4356    1.0000 </r>
       <r>   -0.3271    1.0000 </r>
       <r>   -0.2368    1.0000 </r>
       <r>   -0.2243    1.0000 </r>
       <r>   -0.0053    1.0000 </r>
       <r>    0.1556    1.0000 </r>
       <r>    0.3980    1.0000 </r>
       <r>    0.5856    1.0000 </r>
       <r>    0.6430    1.0000 </r>
       <r>    0.7453    1.0000 </r>
       <r>    0.8253    1.0000 </r>
       <r>    1.0457    1.0000 </r>
       <r>    1.1244    1.0000 </r>
       <r>    1.2531    1.0000 </r>
       <r>    1.3197    1.0000 </r>
       <r>    1.3976    1.0000 </r>
       <r>    1.7408    1.0000 </r>
       <r>    1.7982    1.0000 </r>
       <r>    1.9263    1.0000 </r>
       <r>    1.9925    1.0000 </r>
       <r>    2.1587    1.0000 </r>
       <r>    2.1654    1.0000 </r>
       <r>    2.2489    1.0000 </r>
       <r>    2.5916    1.0000 </r>
       <r>    4.0074    0.0000 </r>
       <r>    4.2816    0.0000 </r>
       <r>    5.7744    0.0000 </r>
       <r>    6.3895    0.0000 </r>
       <r>    6.7005    0.0000 </r>
       <r>    6.9278    0.0000 </r>
       <r>    7.0253    0.0000 </r>
       <r>    7.2726    0.0000 </r>
       <r>    8.0599    0.0000 </r>
       <r>    8.4729    0.0000 </r>
       <r>    8.5833    0.0000 </r>
       <r>    8.6711    0.0000 </r>
       <r>    8.9671    0.0000 </r>
       <r>    9.2608    0.0000 </r>
       <r>    9.5092    0.0000 </r>
       <r>    9.5630    0.0000 </r>
       <r>    9.7475    0.0000 </r>
       <r>    9.7728    0.0000 </r>
       <r>    9.9579    0.0000 </r>
       <r>   10.4133    0.0000 </r>
      </set>
      <set comment="kpoint 4">
       <r>  -32.3626    1.0000 </r>
       <r>  -31.8246    1.0000 </r>
       <r>  -30.9190    1.0000 </r>
       <r>  -30.4000    1.0000 </r>
       <r>  -15.0989    1.0000 </r>
       <r>  -14.8928    1.0000 </r>
       <r>  -14.6379    1.0000 </r>
       <r>  -14.4631    1.0000 </r>
       <r>  -14.2286    1.0000 </r>
       <r>  -14.1623    1.0000 </r>
       <r>  -14.0633    1.0000 </r>
       <r>  -13.9973    1.0000 </r>
       <r>  -13.8434    1.0000 </r>
       <r>  -13.6541    1.0000 </r>
       <r>  -13.5697    1.0000 </r>
       <r>  -13.5318    1.0000 </r>
       <r>  -13.4038    1.0000 </r>
       <r>  -13.2396    1.0000 </r>
       <r>  -12.8586    1.0000 </r>
       <r>  -12.7589    1.0000 </r>
       <r>  -12.6624    1.0000 </r>
       <r>  -12.3576    1.0000 </r>
       <r>  -12.2473    1.0000 </r>
       <r>  -12.1308    1.0000 </r>
       <r>   -2.8877    1.0000 </r>
       <r>   -2.1011    1.0000 </r>
       <r>   -1.9752    1.0000 </r>
       <r>   -1.8485    1.0000 </r>
       <r>   -1.7077    1.0000 </r>
       <r>   -1.6839    1.0000 </r>
       <r>   -1.5557    1.0000 </r>
       <r>   -1.4523    1.0000 </r>
       <r>   -1.4419    1.0000 </r>
       <r>   -1.2934    1.0000 </r>
       <r>   -1.1936    1.0000 </r>
       <r>   -1.1027    1.0000 </r>
       <r>   -1.0628    1.0000 </r>
       <r>   -1.0098    1.0000 </r>
       <r>   -0.8696    1.0000 </r>
       <r>   -0.8454    1.0000 </r>
       <r>   -0.7639    1.0000 </r>
       <r>   -0.7383    1.0000 </r>
       <r>   -0.6911    1.0000 </r>
       <r>   -0.5432    1.0000 </r>
       <r>   -0.5361    1.0000 </r>
       <r>   -0.4872    1.0000 </r>
       <r>   -0.0906    1.0000 </r>
       <r>    0.1728    1.0000 </r>
       <r>    0.3011    1.0000 </r>
       <r>    0.4926    1.0000 </r>
       <r>    0.5478    1.0000 </r>
       <r>    0.7984    1.0000 </r>
       <r>    1.0198    1.0000 </r>
       <r>    1.0880    1.0000 </r>
       <r>    1.1445    1.0000 </r>
       <r>    1.3691    1.0000 </r>
       <r>    1.3849    1.0000 </r>
       <r>    1.4387    1.0000 </r>
       <r>    1.5688    1.0000 </r>
       <r>    1.6367    1.0000 </r>
       <r>    1.8136    1.0000 </r>
       <r>    1.8778    1.0000 </r>
       <r>    1.9656    1.0000 </r>
       <r>    2.0895    1.0000 </r>
       <r>    2.2465    1.0000 </r>
       <r>    2.7173    0.9999 </r>
       <r>    2.8475    0.5663 </r>
       <r>    3.3549    0.0000 </r>
       <r>    3.6919    0.0000 </r>
       <r>    4.4597    0.0000 </r>
       <r>    5.2750    0.0000 </r>
       <r>    5.6062    0.0000 </r>
       <r>    6.9726    0.0000 </r>
       <r>    7.4906    0.0000 </r>
       <r>    7.5950    0.0000 </r>
       <r>    7.8125    0.0000 </r>
       <r>    8.1524    0.0000 </r>
       <r>    8.4398    0.0000 </r>
       <r>    8.5766    0.0000 </r>
       <r>    8.6486    0.0000 </r>
       <r>    8.7931    0.0000 </r>
       <r>    9.0853    0.0000 </r>
       <r>    9.1950    0.0000 </r>
       <r>    9.5284    0.0000 </r>
       <r>    9.6303    0.0000 </r>
       <r>    9.8980    0.0000 </r>
       <r>   10.0260    0.0000 </r>
       <r>   10.3382    0.0000 </r>
      </set>
      <set comment="kpoint 5">
       <r>  -32.3625    1.0000 </r>
       <r>  -31.8244    1.0000 </r>
       <r>  -30.9189    1.0000 </r>
       <r>  -30.3999    1.0000 </r>
       <r>  -15.1488    1.0000 </r>
       <r>  -14.8846    1.0000 </r>
       <r>  -14.6760    1.0000 </r>
       <r>  -14.4832    1.0000 </r>
       <r>  -14.3051    1.0000 </r>
       <r>  -14.2270    1.0000 </r>
       <r>  -14.0783    1.0000 </r>
       <r>  -13.9582    1.0000 </r>
       <r>  -13.8236    1.0000 </r>
       <r>  -13.7503    1.0000 </r>
       <r>  -13.5520    1.0000 </r>
       <r>  -13.4228    1.0000 </r>
       <r>  -13.3255    1.0000 </r>
       <r>  -13.2386    1.0000 </r>
       <r>  -12.8651    1.0000 </r>
       <r>  -12.7547    1.0000 </r>
       <r>  -12.5824    1.0000 </r>
       <r>  -12.3221    1.0000 </r>
       <r>  -12.2145    1.0000 </r>
       <r>  -12.0856    1.0000 </r>
       <r>   -2.8360    1.0000 </r>
       <r>   -2.3960    1.0000 </r>
       <r>   -1.9351    1.0000 </r>
       <r>   -1.7279    1.0000 </r>
       <r>   -1.6247    1.0000 </r>
       <r>   -1.5639    1.0000 </r>
       <r>   -1.5220    1.0000 </r>
       <r>   -1.4011    1.0000 </r>
       <r>   -1.3414    1.0000 </r>
       <r>   -1.2905    1.0000 </r>
       <r>   -1.2763    1.0000 </r>
       <r>   -1.1699    1.0000 </r>
       <r>   -1.1291    1.0000 </r>
       <r>   -0.9688    1.0000 </r>
       <r>   -0.8633    1.0000 </r>
       <r>   -0.8218    1.0000 </r>
       <r>   -0.7999    1.0000 </r>
       <r>   -0.7817    1.0000 </r>
       <r>   -0.7272    1.0000 </r>
       <r>   -0.7035    1.0000 </r>
       <r>   -0.6980    1.0000 </r>
       <r>   -0.3800    1.0000 </r>
       <r>   -0.1771    1.0000 </r>
       <r>    0.0883    1.0000 </r>
       <r>    0.2693    1.0000 </r>
       <r>    0.4354    1.0000 </r>
       <r>    0.5492    1.0000 </r>
       <r>    0.8511    1.0000 </r>
       <r>    0.9369    1.0000 </r>
       <r>    1.0782    1.0000 </r>
       <r>    1.1843    1.0000 </r>
       <r>    1.2845    1.0000 </r>
       <r>    1.4023    1.0000 </r>
       <r>    1.4521    1.0000 </r>
       <r>    1.5302    1.0000 </r>
       <r>    1.5751    1.0000 </r>
       <r>    1.6612    1.0000 </r>
       <r>    1.8878    1.0000 </r>
       <r>    2.0270    1.0000 </r>
       <r>    2.1794    1.0000 </r>
       <r>    2.2597    1.0000 </r>
       <r>    2.6044    1.0000 </r>
       <r>    2.7378    0.9995 </r>
       <r>    3.3024    0.0000 </r>
       <r>    3.7916    0.0000 </r>
       <r>    4.6678    0.0000 </r>
       <r>    5.5156    0.0000 </r>
       <r>    5.8570    0.0000 </r>
       <r>    6.9961    0.0000 </r>
       <r>    7.1277    0.0000 </r>
       <r>    7.4890    0.0000 </r>
       <r>    7.7565    0.0000 </r>
       <r>    8.0409    0.0000 </r>
       <r>    8.4063    0.0000 </r>
       <r>    8.5159    0.0000 </r>
       <r>    8.6687    0.0000 </r>
       <r>    9.0671    0.0000 </r>
       <r>    9.2647    0.0000 </r>
       <r>    9.3817    0.0000 </r>
       <r>    9.5357    0.0000 </r>
       <r>    9.7411    0.0000 </r>
       <r>    9.9759    0.0000 </r>
       <r>   10.1361    0.0000 </r>
       <r>   10.2814    0.0000 </r>
      </set>
      <set comment="kpoint 6">
       <r>  -32.3624    1.0000 </r>
       <r>  -31.8243    1.0000 </r>
       <r>  -30.9187    1.0000 </r>
       <r>  -30.3997    1.0000 </r>
       <r>  -15.1958    1.0000 </r>
       <r>  -14.8819    1.0000 </r>
       <r>  -14.7140    1.0000 </r>
       <r>  -14.5034    1.0000 </r>
       <r>  -14.3872    1.0000 </r>
       <r>  -14.2354    1.0000 </r>
       <r>  -14.0302    1.0000 </r>
       <r>  -13.9530    1.0000 </r>
       <r>  -13.9364    1.0000 </r>
       <r>  -13.7177    1.0000 </r>
       <r>  -13.5210    1.0000 </r>
       <r>  -13.3698    1.0000 </r>
       <r>  -13.3244    1.0000 </r>
       <r>  -13.2158    1.0000 </r>
       <r>  -12.8596    1.0000 </r>
       <r>  -12.7040    1.0000 </r>
       <r>  -12.5378    1.0000 </r>
       <r>  -12.3073    1.0000 </r>
       <r>  -12.1733    1.0000 </r>
       <r>  -12.0245    1.0000 </r>
       <r>   -2.9115    1.0000 </r>
       <r>   -2.0740    1.0000 </r>
       <r>   -1.9832    1.0000 </r>
       <r>   -1.8542    1.0000 </r>
       <r>   -1.7300    1.0000 </r>
       <r>   -1.5913    1.0000 </r>
       <r>   -1.5207    1.0000 </r>
       <r>   -1.4683    1.0000 </r>
       <r>   -1.4114    1.0000 </r>
       <r>   -1.2865    1.0000 </r>
       <r>   -1.2189    1.0000 </r>
       <r>   -1.1573    1.0000 </r>
       <r>   -1.1097    1.0000 </r>
       <r>   -1.0395    1.0000 </r>
       <r>   -0.9350    1.0000 </r>
       <r>   -0.9094    1.0000 </r>
       <r>   -0.8071    1.0000 </r>
       <r>   -0.7249    1.0000 </r>
       <r>   -0.7007    1.0000 </r>
       <r>   -0.6875    1.0000 </r>
       <r>   -0.4502    1.0000 </r>
       <r>   -0.3441    1.0000 </r>
       <r>   -0.3113    1.0000 </r>
       <r>   -0.1251    1.0000 </r>
       <r>    0.3455    1.0000 </r>
       <r>    0.4029    1.0000 </r>
       <r>    0.5023    1.0000 </r>
       <r>    0.8147    1.0000 </r>
       <r>    0.9836    1.0000 </r>
       <r>    1.0367    1.0000 </r>
       <r>    1.1428    1.0000 </r>
       <r>    1.2370    1.0000 </r>
       <r>    1.2730    1.0000 </r>
       <r>    1.3759    1.0000 </r>
       <r>    1.4461    1.0000 </r>
       <r>    1.6957    1.0000 </r>
       <r>    1.7599    1.0000 </r>
       <r>    1.8656    1.0000 </r>
       <r>    1.9018    1.0000 </r>
       <r>    2.0557    1.0000 </r>
       <r>    2.1483    1.0000 </r>
       <r>    2.7486    0.9985 </r>
       <r>    2.8049    0.9152 </r>
       <r>    3.1955    0.0000 </r>
       <r>    4.2992    0.0000 </r>
       <r>    4.3682    0.0000 </r>
       <r>    5.8263    0.0000 </r>
       <r>    6.2221    0.0000 </r>
       <r>    6.7557    0.0000 </r>
       <r>    7.2165    0.0000 </r>
       <r>    7.2916    0.0000 </r>
       <r>    7.4464    0.0000 </r>
       <r>    7.9633    0.0000 </r>
       <r>    8.1849    0.0000 </r>
       <r>    8.5611    0.0000 </r>
       <r>    8.8639    0.0000 </r>
       <r>    8.9401    0.0000 </r>
       <r>    9.4811    0.0000 </r>
       <r>    9.6570    0.0000 </r>
       <r>    9.7410    0.0000 </r>
       <r>    9.8205    0.0000 </r>
       <r>    9.8767    0.0000 </r>
       <r>   10.1140    0.0000 </r>
       <r>   10.1908    0.0000 </r>
      </set>
      <set comment="kpoint 7">
       <r>  -32.3557    1.0000 </r>
       <r>  -31.8176    1.0000 </r>
       <r>  -30.9117    1.0000 </r>
       <r>  -30.3926    1.0000 </r>
       <r>  -15.1899    1.0000 </r>
       <r>  -14.7688    1.0000 </r>
       <r>  -14.6003    1.0000 </r>
       <r>  -14.4066    1.0000 </r>
       <r>  -14.3225    1.0000 </r>
       <r>  -14.0917    1.0000 </r>
       <r>  -14.0025    1.0000 </r>
       <r>  -13.9580    1.0000 </r>
       <r>  -13.8407    1.0000 </r>
       <r>  -13.6879    1.0000 </r>
       <r>  -13.5287    1.0000 </r>
       <r>  -13.4374    1.0000 </r>
       <r>  -13.4245    1.0000 </r>
       <r>  -13.3279    1.0000 </r>
       <r>  -12.9025    1.0000 </r>
       <r>  -12.7907    1.0000 </r>
       <r>  -12.7438    1.0000 </r>
       <r>  -12.4075    1.0000 </r>
       <r>  -12.2332    1.0000 </r>
       <r>  -12.1749    1.0000 </r>
       <r>   -2.9953    1.0000 </r>
       <r>   -2.6128    1.0000 </r>
       <r>   -2.3861    1.0000 </r>
       <r>   -2.3837    1.0000 </r>
       <r>   -1.9974    1.0000 </r>
       <r>   -1.9265    1.0000 </r>
       <r>   -1.7603    1.0000 </r>
       <r>   -1.6946    1.0000 </r>
       <r>   -1.6077    1.0000 </r>
       <r>   -1.4978    1.0000 </r>
       <r>   -1.4432    1.0000 </r>
       <r>   -1.3384    1.0000 </r>
       <r>   -1.2315    1.0000 </r>
       <r>   -1.1742    1.0000 </r>
       <r>   -1.0270    1.0000 </r>
       <r>   -1.0082    1.0000 </r>
       <r>   -0.9262    1.0000 </r>
       <r>   -0.7273    1.0000 </r>
       <r>   -0.6722    1.0000 </r>
       <r>   -0.5332    1.0000 </r>
       <r>   -0.5229    1.0000 </r>
       <r>   -0.2824    1.0000 </r>
       <r>   -0.1201    1.0000 </r>
       <r>    0.1456    1.0000 </r>
       <r>    0.1724    1.0000 </r>
       <r>    0.4169    1.0000 </r>
       <r>    0.8012    1.0000 </r>
       <r>    0.9400    1.0000 </r>
       <r>    1.0995    1.0000 </r>
       <r>    1.2124    1.0000 </r>
       <r>    1.4636    1.0000 </r>
       <r>    1.5154    1.0000 </r>
       <r>    1.5973    1.0000 </r>
       <r>    1.6204    1.0000 </r>
       <r>    1.8588    1.0000 </r>
       <r>    1.9000    1.0000 </r>
       <r>    1.9867    1.0000 </r>
       <r>    2.1352    1.0000 </r>
       <r>    2.2096    1.0000 </r>
       <r>    2.2565    1.0000 </r>
       <r>    2.6053    1.0000 </r>
       <r>    2.9561    0.0018 </r>
       <r>    3.3862    0.0000 </r>
       <r>    3.5353    0.0000 </r>
       <r>    4.0773    0.0000 </r>
       <r>    4.1562    0.0000 </r>
       <r>    5.1240    0.0000 </r>
       <r>    5.9065    0.0000 </r>
       <r>    6.8203    0.0000 </r>
       <r>    7.3906    0.0000 </r>
       <r>    8.0392    0.0000 </r>
       <r>    8.1363    0.0000 </r>
       <r>    8.4860    0.0000 </r>
       <r>    8.6774    0.0000 </r>
       <r>    8.8413    0.0000 </r>
       <r>    8.9519    0.0000 </r>
       <r>    9.1576    0.0000 </r>
       <r>    9.3759    0.0000 </r>
       <r>    9.5123    0.0000 </r>
       <r>    9.5918    0.0000 </r>
       <r>    9.9463    0.0000 </r>
       <r>    9.9576    0.0000 </r>
       <r>   10.1324    0.0000 </r>
       <r>   10.6936    0.0000 </r>
      </set>
      <set comment="kpoint 8">
       <r>  -32.3556    1.0000 </r>
       <r>  -31.8175    1.0000 </r>
       <r>  -30.9116    1.0000 </r>
       <r>  -30.3924    1.0000 </r>
       <r>  -15.1582    1.0000 </r>
       <r>  -14.7985    1.0000 </r>
       <r>  -14.6341    1.0000 </r>
       <r>  -14.4301    1.0000 </r>
       <r>  -14.3010    1.0000 </r>
       <r>  -14.1497    1.0000 </r>
       <r>  -14.1103    1.0000 </r>
       <r>  -14.0044    1.0000 </r>
       <r>  -13.8403    1.0000 </r>
       <r>  -13.6765    1.0000 </r>
       <r>  -13.5762    1.0000 </r>
       <r>  -13.4901    1.0000 </r>
       <r>  -13.3695    1.0000 </r>
       <r>  -13.3112    1.0000 </r>
       <r>  -12.8911    1.0000 </r>
       <r>  -12.7048    1.0000 </r>
       <r>  -12.6244    1.0000 </r>
       <r>  -12.3022    1.0000 </r>
       <r>  -12.1845    1.0000 </r>
       <r>  -12.1694    1.0000 </r>
       <r>   -2.9563    1.0000 </r>
       <r>   -2.7266    1.0000 </r>
       <r>   -2.4506    1.0000 </r>
       <r>   -2.3607    1.0000 </r>
       <r>   -2.1233    1.0000 </r>
       <r>   -1.9163    1.0000 </r>
       <r>   -1.8901    1.0000 </r>
       <r>   -1.6492    1.0000 </r>
       <r>   -1.4863    1.0000 </r>
       <r>   -1.4643    1.0000 </r>
       <r>   -1.3276    1.0000 </r>
       <r>   -1.2778    1.0000 </r>
       <r>   -1.2236    1.0000 </r>
       <r>   -1.2056    1.0000 </r>
       <r>   -1.0787    1.0000 </r>
       <r>   -1.0182    1.0000 </r>
       <r>   -0.9450    1.0000 </r>
       <r>   -0.8293    1.0000 </r>
       <r>   -0.7436    1.0000 </r>
       <r>   -0.7216    1.0000 </r>
       <r>   -0.6693    1.0000 </r>
       <r>   -0.1882    1.0000 </r>
       <r>   -0.0311    1.0000 </r>
       <r>    0.1835    1.0000 </r>
       <r>    0.2922    1.0000 </r>
       <r>    0.4279    1.0000 </r>
       <r>    0.6568    1.0000 </r>
       <r>    0.9016    1.0000 </r>
       <r>    1.2142    1.0000 </r>
       <r>    1.2624    1.0000 </r>
       <r>    1.3519    1.0000 </r>
       <r>    1.4487    1.0000 </r>
       <r>    1.5390    1.0000 </r>
       <r>    1.5804    1.0000 </r>
       <r>    1.7649    1.0000 </r>
       <r>    1.8840    1.0000 </r>
       <r>    2.0218    1.0000 </r>
       <r>    2.1386    1.0000 </r>
       <r>    2.2313    1.0000 </r>
       <r>    2.3481    1.0000 </r>
       <r>    2.5244    1.0000 </r>
       <r>    2.7724    0.9891 </r>
       <r>    3.0886    0.0000 </r>
       <r>    3.9458    0.0000 </r>
       <r>    4.1965    0.0000 </r>
       <r>    4.5411    0.0000 </r>
       <r>    5.2736    0.0000 </r>
       <r>    6.0612    0.0000 </r>
       <r>    6.6896    0.0000 </r>
       <r>    7.4231    0.0000 </r>
       <r>    7.8864    0.0000 </r>
       <r>    8.1261    0.0000 </r>
       <r>    8.4369    0.0000 </r>
       <r>    8.5745    0.0000 </r>
       <r>    8.8696    0.0000 </r>
       <r>    9.1151    0.0000 </r>
       <r>    9.1418    0.0000 </r>
       <r>    9.4582    0.0000 </r>
       <r>    9.6464    0.0000 </r>
       <r>    9.7288    0.0000 </r>
       <r>   10.0531    0.0000 </r>
       <r>   10.1149    0.0000 </r>
       <r>   10.4451    0.0000 </r>
       <r>   10.5488    0.0000 </r>
      </set>
      <set comment="kpoint 9">
       <r>  -32.3555    1.0000 </r>
       <r>  -31.8174    1.0000 </r>
       <r>  -30.9114    1.0000 </r>
       <r>  -30.3923    1.0000 </r>
       <r>  -15.1210    1.0000 </r>
       <r>  -14.8345    1.0000 </r>
       <r>  -14.6782    1.0000 </r>
       <r>  -14.4664    1.0000 </r>
       <r>  -14.2634    1.0000 </r>
       <r>  -14.2108    1.0000 </r>
       <r>  -14.1481    1.0000 </r>
       <r>  -13.9446    1.0000 </r>
       <r>  -13.9050    1.0000 </r>
       <r>  -13.7699    1.0000 </r>
       <r>  -13.6713    1.0000 </r>
       <r>  -13.5108    1.0000 </r>
       <r>  -13.3330    1.0000 </r>
       <r>  -13.2072    1.0000 </r>
       <r>  -12.8969    1.0000 </r>
       <r>  -12.6030    1.0000 </r>
       <r>  -12.5331    1.0000 </r>
       <r>  -12.2628    1.0000 </r>
       <r>  -12.1834    1.0000 </r>
       <r>  -12.0674    1.0000 </r>
       <r>   -3.0896    1.0000 </r>
       <r>   -2.5907    1.0000 </r>
       <r>   -2.4278    1.0000 </r>
       <r>   -2.3653    1.0000 </r>
       <r>   -2.0432    1.0000 </r>
       <r>   -1.9726    1.0000 </r>
       <r>   -1.9168    1.0000 </r>
       <r>   -1.7547    1.0000 </r>
       <r>   -1.6305    1.0000 </r>
       <r>   -1.5699    1.0000 </r>
       <r>   -1.4592    1.0000 </r>
       <r>   -1.4265    1.0000 </r>
       <r>   -1.2500    1.0000 </r>
       <r>   -1.1544    1.0000 </r>
       <r>   -1.1032    1.0000 </r>
       <r>   -1.0122    1.0000 </r>
       <r>   -1.0112    1.0000 </r>
       <r>   -0.7569    1.0000 </r>
       <r>   -0.7121    1.0000 </r>
       <r>   -0.6801    1.0000 </r>
       <r>   -0.3296    1.0000 </r>
       <r>   -0.2027    1.0000 </r>
       <r>   -0.0297    1.0000 </r>
       <r>    0.0503    1.0000 </r>
       <r>    0.3367    1.0000 </r>
       <r>    0.5070    1.0000 </r>
       <r>    0.7768    1.0000 </r>
       <r>    0.8932    1.0000 </r>
       <r>    1.1947    1.0000 </r>
       <r>    1.2424    1.0000 </r>
       <r>    1.2874    1.0000 </r>
       <r>    1.3596    1.0000 </r>
       <r>    1.4885    1.0000 </r>
       <r>    1.5743    1.0000 </r>
       <r>    1.6799    1.0000 </r>
       <r>    1.7240    1.0000 </r>
       <r>    1.8600    1.0000 </r>
       <r>    1.9573    1.0000 </r>
       <r>    2.1158    1.0000 </r>
       <r>    2.2915    1.0000 </r>
       <r>    2.5576    1.0000 </r>
       <r>    2.9934    0.0000 </r>
       <r>    3.3937    0.0000 </r>
       <r>    3.9229    0.0000 </r>
       <r>    4.4389    0.0000 </r>
       <r>    5.1058    0.0000 </r>
       <r>    5.1993    0.0000 </r>
       <r>    6.2107    0.0000 </r>
       <r>    6.5212    0.0000 </r>
       <r>    7.2309    0.0000 </r>
       <r>    7.6904    0.0000 </r>
       <r>    8.0982    0.0000 </r>
       <r>    8.3228    0.0000 </r>
       <r>    8.5754    0.0000 </r>
       <r>    8.6924    0.0000 </r>
       <r>    9.0525    0.0000 </r>
       <r>    9.2665    0.0000 </r>
       <r>    9.6893    0.0000 </r>
       <r>    9.8176    0.0000 </r>
       <r>    9.9257    0.0000 </r>
       <r>   10.1142    0.0000 </r>
       <r>   10.2775    0.0000 </r>
       <r>   10.4150    0.0000 </r>
       <r>   10.6179    0.0000 </r>
      </set>
      <set comment="kpoint 10">
       <r>  -32.3668    1.0000 </r>
       <r>  -31.8289    1.0000 </r>
       <r>  -30.9235    1.0000 </r>
       <r>  -30.4045    1.0000 </r>
       <r>  -15.1541    1.0000 </r>
       <r>  -14.7991    1.0000 </r>
       <r>  -14.6598    1.0000 </r>
       <r>  -14.4787    1.0000 </r>
       <r>  -14.3539    1.0000 </r>
       <r>  -14.2850    1.0000 </r>
       <r>  -13.9903    1.0000 </r>
       <r>  -13.8709    1.0000 </r>
       <r>  -13.7837    1.0000 </r>
       <r>  -13.7737    1.0000 </r>
       <r>  -13.6277    1.0000 </r>
       <r>  -13.5853    1.0000 </r>
       <r>  -13.2591    1.0000 </r>
       <r>  -13.2004    1.0000 </r>
       <r>  -12.8390    1.0000 </r>
       <r>  -12.8057    1.0000 </r>
       <r>  -12.6012    1.0000 </r>
       <r>  -12.3622    1.0000 </r>
       <r>  -12.2764    1.0000 </r>
       <r>  -12.0633    1.0000 </r>
       <r>   -2.8334    1.0000 </r>
       <r>   -2.3789    1.0000 </r>
       <r>   -1.9380    1.0000 </r>
       <r>   -1.7405    1.0000 </r>
       <r>   -1.5734    1.0000 </r>
       <r>   -1.4536    1.0000 </r>
       <r>   -1.3459    1.0000 </r>
       <r>   -1.1284    1.0000 </r>
       <r>   -1.1178    1.0000 </r>
       <r>   -0.8927    1.0000 </r>
       <r>   -0.8455    1.0000 </r>
       <r>   -0.8098    1.0000 </r>
       <r>   -0.7797    1.0000 </r>
       <r>   -0.7328    1.0000 </r>
       <r>   -0.7222    1.0000 </r>
       <r>   -0.6873    1.0000 </r>
       <r>   -0.6002    1.0000 </r>
       <r>   -0.5387    1.0000 </r>
       <r>   -0.5148    1.0000 </r>
       <r>   -0.4709    1.0000 </r>
       <r>   -0.3726    1.0000 </r>
       <r>   -0.2874    1.0000 </r>
       <r>   -0.0494    1.0000 </r>
       <r>   -0.0385    1.0000 </r>
       <r>    0.1380    1.0000 </r>
       <r>    0.2874    1.0000 </r>
       <r>    0.5610    1.0000 </r>
       <r>    0.7407    1.0000 </r>
       <r>    0.8441    1.0000 </r>
       <r>    0.8811    1.0000 </r>
       <r>    1.0130    1.0000 </r>
       <r>    1.0218    1.0000 </r>
       <r>    1.2215    1.0000 </r>
       <r>    1.2805    1.0000 </r>
       <r>    1.3512    1.0000 </r>
       <r>    1.3958    1.0000 </r>
       <r>    1.5492    1.0000 </r>
       <r>    1.5873    1.0000 </r>
       <r>    1.9669    1.0000 </r>
       <r>    2.0160    1.0000 </r>
       <r>    2.0341    1.0000 </r>
       <r>    2.2526    1.0000 </r>
       <r>    2.3028    1.0000 </r>
       <r>    3.1812    0.0000 </r>
       <r>    3.5136    0.0000 </r>
       <r>    4.2348    0.0000 </r>
       <r>    5.4162    0.0000 </r>
       <r>    5.7051    0.0000 </r>
       <r>    7.0033    0.0000 </r>
       <r>    7.4288    0.0000 </r>
       <r>    7.7114    0.0000 </r>
       <r>    7.8177    0.0000 </r>
       <r>    7.8388    0.0000 </r>
       <r>    8.1418    0.0000 </r>
       <r>    8.1721    0.0000 </r>
       <r>    8.5456    0.0000 </r>
       <r>    9.1758    0.0000 </r>
       <r>    9.2347    0.0000 </r>
       <r>    9.3044    0.0000 </r>
       <r>    9.4006    0.0000 </r>
       <r>    9.6045    0.0000 </r>
       <r>    9.8858    0.0000 </r>
       <r>    9.9095    0.0000 </r>
       <r>   10.2528    0.0000 </r>
      </set>
      <set comment="kpoint 11">
       <r>  -32.3667    1.0000 </r>
       <r>  -31.8287    1.0000 </r>
       <r>  -30.9233    1.0000 </r>
       <r>  -30.4044    1.0000 </r>
       <r>  -15.2312    1.0000 </r>
       <r>  -14.8368    1.0000 </r>
       <r>  -14.6840    1.0000 </r>
       <r>  -14.4999    1.0000 </r>
       <r>  -14.3624    1.0000 </r>
       <r>  -14.2849    1.0000 </r>
       <r>  -14.0813    1.0000 </r>
       <r>  -13.8561    1.0000 </r>
       <r>  -13.8092    1.0000 </r>
       <r>  -13.7837    1.0000 </r>
       <r>  -13.5734    1.0000 </r>
       <r>  -13.3742    1.0000 </r>
       <r>  -13.2938    1.0000 </r>
       <r>  -13.1811    1.0000 </r>
       <r>  -12.8387    1.0000 </r>
       <r>  -12.8094    1.0000 </r>
       <r>  -12.5521    1.0000 </r>
       <r>  -12.3624    1.0000 </r>
       <r>  -12.2270    1.0000 </r>
       <r>  -12.0298    1.0000 </r>
       <r>   -2.8871    1.0000 </r>
       <r>   -2.0586    1.0000 </r>
       <r>   -1.9737    1.0000 </r>
       <r>   -1.8431    1.0000 </r>
       <r>   -1.6287    1.0000 </r>
       <r>   -1.4504    1.0000 </r>
       <r>   -1.4062    1.0000 </r>
       <r>   -1.0689    1.0000 </r>
       <r>   -0.9678    1.0000 </r>
       <r>   -0.9316    1.0000 </r>
       <r>   -0.8489    1.0000 </r>
       <r>   -0.8123    1.0000 </r>
       <r>   -0.7913    1.0000 </r>
       <r>   -0.7112    1.0000 </r>
       <r>   -0.6859    1.0000 </r>
       <r>   -0.6707    1.0000 </r>
       <r>   -0.5978    1.0000 </r>
       <r>   -0.5929    1.0000 </r>
       <r>   -0.5340    1.0000 </r>
       <r>   -0.4648    1.0000 </r>
       <r>   -0.3597    1.0000 </r>
       <r>   -0.3027    1.0000 </r>
       <r>   -0.1917    1.0000 </r>
       <r>   -0.1195    1.0000 </r>
       <r>   -0.0453    1.0000 </r>
       <r>    0.2632    1.0000 </r>
       <r>    0.5187    1.0000 </r>
       <r>    0.6518    1.0000 </r>
       <r>    0.7429    1.0000 </r>
       <r>    0.8032    1.0000 </r>
       <r>    0.9087    1.0000 </r>
       <r>    1.0233    1.0000 </r>
       <r>    1.0792    1.0000 </r>
       <r>    1.2974    1.0000 </r>
       <r>    1.3512    1.0000 </r>
       <r>    1.4061    1.0000 </r>
       <r>    1.6223    1.0000 </r>
       <r>    1.7283    1.0000 </r>
       <r>    1.9682    1.0000 </r>
       <r>    1.9815    1.0000 </r>
       <r>    2.0741    1.0000 </r>
       <r>    2.1698    1.0000 </r>
       <r>    2.2865    1.0000 </r>
       <r>    2.9399    0.0072 </r>
       <r>    3.5750    0.0000 </r>
       <r>    4.5547    0.0000 </r>
       <r>    5.4262    0.0000 </r>
       <r>    5.9709    0.0000 </r>
       <r>    7.0082    0.0000 </r>
       <r>    7.2494    0.0000 </r>
       <r>    7.2678    0.0000 </r>
       <r>    7.4609    0.0000 </r>
       <r>    7.9360    0.0000 </r>
       <r>    8.3781    0.0000 </r>
       <r>    8.4551    0.0000 </r>
       <r>    8.6245    0.0000 </r>
       <r>    9.0518    0.0000 </r>
       <r>    9.2309    0.0000 </r>
       <r>    9.2765    0.0000 </r>
       <r>    9.5810    0.0000 </r>
       <r>    9.6357    0.0000 </r>
       <r>    9.8753    0.0000 </r>
       <r>    9.9574    0.0000 </r>
       <r>   10.2501    0.0000 </r>
      </set>
      <set comment="kpoint 12">
       <r>  -32.3666    1.0000 </r>
       <r>  -31.8286    1.0000 </r>
       <r>  -30.9231    1.0000 </r>
       <r>  -30.4043    1.0000 </r>
       <r>  -15.2956    1.0000 </r>
       <r>  -14.8900    1.0000 </r>
       <r>  -14.7098    1.0000 </r>
       <r>  -14.5335    1.0000 </r>
       <r>  -14.3406    1.0000 </r>
       <r>  -14.2848    1.0000 </r>
       <r>  -14.0928    1.0000 </r>
       <r>  -13.9418    1.0000 </r>
       <r>  -13.7897    1.0000 </r>
       <r>  -13.7837    1.0000 </r>
       <r>  -13.4416    1.0000 </r>
       <r>  -13.3272    1.0000 </r>
       <r>  -13.2861    1.0000 </r>
       <r>  -13.1762    1.0000 </r>
       <r>  -12.8383    1.0000 </r>
       <r>  -12.8011    1.0000 </r>
       <r>  -12.5124    1.0000 </r>
       <r>  -12.3626    1.0000 </r>
       <r>  -12.1738    1.0000 </r>
       <r>  -11.9900    1.0000 </r>
       <r>   -2.8364    1.0000 </r>
       <r>   -2.3249    1.0000 </r>
       <r>   -1.9484    1.0000 </r>
[...]
       <r>     1.8031     6.5838    60.3215 </r>
       <r>     1.9610     8.5158    61.6664 </r>
       <r>     2.1189     8.6624    63.0345 </r>
       <r>     2.2769     9.4548    64.5277 </r>
       <r>     2.4348     2.7136    64.9563 </r>
       <r>     2.5927     2.9032    65.4148 </r>
       <r>     2.7507     3.3972    65.9513 </r>
       <r>     2.9086     3.8370    66.5573 </r>
       <r>     3.0665     1.7080    66.8270 </r>
       <r>     3.2245     1.5844    67.0772 </r>
       <r>     3.3824     2.3209    67.4438 </r>
       <r>     3.5403     1.8128    67.7301 </r>
       <r>     3.6983     0.8527    67.8647 </r>
       <r>     3.8562     2.3441    68.2350 </r>
       <r>     4.0141     1.2151    68.4269 </r>
       <r>     4.1720     1.1837    68.6138 </r>
       <r>     4.3300     2.6213    69.0278 </r>
       <r>     4.4879     2.0312    69.3486 </r>
       <r>     4.6458     2.0229    69.6681 </r>
       <r>     4.8038     1.4685    69.9000 </r>
       <r>     4.9617     0.0012    69.9002 </r>
       <r>     5.1196     0.8444    70.0335 </r>
       <r>     5.2776     2.2144    70.3832 </r>
       <r>     5.4355     1.5235    70.6238 </r>
       <r>     5.5934     1.4485    70.8526 </r>
       <r>     5.7513     1.3881    71.0718 </r>
       <r>     5.9093     2.0500    71.3956 </r>
       <r>     6.0672     1.7880    71.6780 </r>
       <r>     6.2251     1.3883    71.8972 </r>
       <r>     6.3831     0.4966    71.9757 </r>
       <r>     6.5410     0.7640    72.0963 </r>
       <r>     6.6989     1.3825    72.3147 </r>
       <r>     6.8569     1.4791    72.5482 </r>
       <r>     7.0148     2.4574    72.9363 </r>
       <r>     7.1727     2.3523    73.3078 </r>
       <r>     7.3307     3.4083    73.8461 </r>
       <r>     7.4886     4.1330    74.4988 </r>
       <r>     7.6465     1.8517    74.7913 </r>
       <r>     7.8044     2.4498    75.1782 </r>
       <r>     7.9624     2.9107    75.6379 </r>
       <r>     8.1203     4.2899    76.3154 </r>
       <r>     8.2782     2.7927    76.7564 </r>
       <r>     8.4362     4.1076    77.4051 </r>
       <r>     8.5941     5.4867    78.2716 </r>
       <r>     8.7520     5.6287    79.1606 </r>
       <r>     8.9100     2.6719    79.5826 </r>
       <r>     9.0679     4.0063    80.2153 </r>
       <r>     9.2258     6.2492    81.2022 </r>
       <r>     9.3838     5.4467    82.0624 </r>
       <r>     9.5417     5.0634    82.8621 </r>
       <r>     9.6996     6.9242    83.9556 </r>
       <r>     9.8575     4.5357    84.6720 </r>
       <r>    10.0155     5.7458    85.5794 </r>
       <r>    10.1734     4.6478    86.3134 </r>
       <r>    10.3313     5.1852    87.1323 </r>
       <r>    10.4893     2.7228    87.5623 </r>
       <r>    10.6472     2.2294    87.9144 </r>
       <r>    10.8051     0.5415    88.0000 </r>
       <r>    10.9631     0.0003    88.0000 </r>
       <r>    11.1210     0.0000    88.0000 </r>
       <r>    11.2789     0.0000    88.0000 </r>
       <r>    11.4368     0.0000    88.0000 </r>
       <r>    11.5948     0.0000    88.0000 </r>
       <r>    11.7527     0.0000    88.0000 </r>
       <r>    11.9106     0.0000    88.0000 </r>
       <r>    12.0686     0.0000    88.0000 </r>
       <r>    12.2265     0.0000    88.0000 </r>
       <r>    12.3844     0.0000    88.0000 </r>
       <r>    12.5424     0.0000    88.0000 </r>
       <r>    12.7003     0.0000    88.0000 </r>
       <r>    12.8582     0.0000    88.0000 </r>
      </set>
      <set comment="spin 2">
       <r>   -34.5209     0.0000     0.0000 </r>
       <r>   -34.3630     0.0000     0.0000 </r>
       <r>   -34.2051     0.0000     0.0000 </r>
       <r>   -34.0471     0.0000     0.0000 </r>
       <r>   -33.8892     0.0000     0.0000 </r>
       <r>   -33.7313     0.0000     0.0000 </r>
       <r>   -33.5734     0.0000     0.0000 </r>
       <r>   -33.4154     0.0000     0.0000 </r>
       <r>   -33.2575     0.0000     0.0000 </r>
       <r>   -33.0996     0.0000     0.0000 </r>
       <r>   -32.9416     0.0000     0.0000 </r>
       <r>   -32.7837     0.0000     0.0000 </r>
       <r>   -32.6258     0.0000     0.0000 </r>
       <r>   -32.4678     0.0086     0.0014 </r>
       <r>   -32.3099     5.8463     0.9247 </r>
       <r>   -32.1520     0.4770     1.0000 </r>
       <r>   -31.9941     0.0000     1.0000 </r>
       <r>   -31.8361     2.2752     1.3593 </r>
       <r>   -31.6782     4.0565     2.0000 </r>
       <r>   -31.5203     0.0001     2.0000 </r>
       <r>   -31.3623     0.0000     2.0000 </r>
       <r>   -31.2044     0.0000     2.0000 </r>
       <r>   -31.0465     0.0011     2.0002 </r>
       <r>   -30.8885     5.0676     2.8005 </r>
       <r>   -30.7306     1.2632     3.0000 </r>
       <r>   -30.5727     0.0000     3.0000 </r>
       <r>   -30.4147     2.1056     3.3325 </r>
       <r>   -30.2568     4.2261     4.0000 </r>
       <r>   -30.0989     0.0002     4.0000 </r>
       <r>   -29.9410     0.0000     4.0000 </r>
       <r>   -29.7830     0.0000     4.0000 </r>
       <r>   -29.6251     0.0000     4.0000 </r>
       <r>   -29.4672     0.0000     4.0000 </r>
       <r>   -29.3092     0.0000     4.0000 </r>
       <r>   -29.1513     0.0000     4.0000 </r>
       <r>   -28.9934     0.0000     4.0000 </r>
       <r>   -28.8354     0.0000     4.0000 </r>
       <r>   -28.6775     0.0000     4.0000 </r>
       <r>   -28.5196     0.0000     4.0000 </r>
       <r>   -28.3617     0.0000     4.0000 </r>
       <r>   -28.2037     0.0000     4.0000 </r>
       <r>   -28.0458     0.0000     4.0000 </r>
       <r>   -27.8879     0.0000     4.0000 </r>
       <r>   -27.7299     0.0000     4.0000 </r>
       <r>   -27.5720     0.0000     4.0000 </r>
       <r>   -27.4141     0.0000     4.0000 </r>
       <r>   -27.2561     0.0000     4.0000 </r>
       <r>   -27.0982     0.0000     4.0000 </r>
       <r>   -26.9403     0.0000     4.0000 </r>
       <r>   -26.7823     0.0000     4.0000 </r>
       <r>   -26.6244     0.0000     4.0000 </r>
       <r>   -26.4665     0.0000     4.0000 </r>
       <r>   -26.3086     0.0000     4.0000 </r>
       <r>   -26.1506     0.0000     4.0000 </r>
       <r>   -25.9927     0.0000     4.0000 </r>
       <r>   -25.8348     0.0000     4.0000 </r>
       <r>   -25.6768     0.0000     4.0000 </r>
       <r>   -25.5189     0.0000     4.0000 </r>
       <r>   -25.3610     0.0000     4.0000 </r>
       <r>   -25.2030     0.0000     4.0000 </r>
       <r>   -25.0451     0.0000     4.0000 </r>
       <r>   -24.8872     0.0000     4.0000 </r>
       <r>   -24.7292     0.0000     4.0000 </r>
       <r>   -24.5713     0.0000     4.0000 </r>
       <r>   -24.4134     0.0000     4.0000 </r>
       <r>   -24.2555     0.0000     4.0000 </r>
       <r>   -24.0975     0.0000     4.0000 </r>
       <r>   -23.9396     0.0000     4.0000 </r>
       <r>   -23.7817     0.0000     4.0000 </r>
       <r>   -23.6237     0.0000     4.0000 </r>
       <r>   -23.4658     0.0000     4.0000 </r>
       <r>   -23.3079     0.0000     4.0000 </r>
       <r>   -23.1499     0.0000     4.0000 </r>
       <r>   -22.9920     0.0000     4.0000 </r>
       <r>   -22.8341     0.0000     4.0000 </r>
       <r>   -22.6762     0.0000     4.0000 </r>
       <r>   -22.5182     0.0000     4.0000 </r>
       <r>   -22.3603     0.0000     4.0000 </r>
       <r>   -22.2024     0.0000     4.0000 </r>
       <r>   -22.0444     0.0000     4.0000 </r>
       <r>   -21.8865     0.0000     4.0000 </r>
       <r>   -21.7286     0.0000     4.0000 </r>
       <r>   -21.5706     0.0000     4.0000 </r>
       <r>   -21.4127     0.0000     4.0000 </r>
       <r>   -21.2548     0.0000     4.0000 </r>
       <r>   -21.0968     0.0000     4.0000 </r>
       <r>   -20.9389     0.0000     4.0000 </r>
       <r>   -20.7810     0.0000     4.0000 </r>
       <r>   -20.6231     0.0000     4.0000 </r>
       <r>   -20.4651     0.0000     4.0000 </r>
       <r>   -20.3072     0.0000     4.0000 </r>
       <r>   -20.1493     0.0000     4.0000 </r>
       <r>   -19.9913     0.0000     4.0000 </r>
       <r>   -19.8334     0.0000     4.0000 </r>
       <r>   -19.6755     0.0000     4.0000 </r>
       <r>   -19.5175     0.0000     4.0000 </r>
       <r>   -19.3596     0.0000     4.0000 </r>
       <r>   -19.2017     0.0000     4.0000 </r>
       <r>   -19.0437     0.0000     4.0000 </r>
       <r>   -18.8858     0.0000     4.0000 </r>
       <r>   -18.7279     0.0000     4.0000 </r>
       <r>   -18.5700     0.0000     4.0000 </r>
       <r>   -18.4120     0.0000     4.0000 </r>
       <r>   -18.2541     0.0000     4.0000 </r>
       <r>   -18.0962     0.0000     4.0000 </r>
       <r>   -17.9382     0.0000     4.0000 </r>
       <r>   -17.7803     0.0000     4.0000 </r>
       <r>   -17.6224     0.0000     4.0000 </r>
       <r>   -17.4644     0.0000     4.0000 </r>
       <r>   -17.3065     0.0000     4.0000 </r>
       <r>   -17.1486     0.0000     4.0000 </r>
       <r>   -16.9907     0.0000     4.0000 </r>
       <r>   -16.8327     0.0000     4.0000 </r>
       <r>   -16.6748     0.0000     4.0000 </r>
       <r>   -16.5169     0.0000     4.0000 </r>
       <r>   -16.3589     0.0000     4.0000 </r>
       <r>   -16.2010     0.0000     4.0000 </r>
       <r>   -16.0431     0.0000     4.0000 </r>
       <r>   -15.8851     0.0000     4.0000 </r>
       <r>   -15.7272     0.0000     4.0000 </r>
       <r>   -15.5693     0.0000     4.0000 </r>
       <r>   -15.4113     0.0001     4.0000 </r>
       <r>   -15.2534     0.3878     4.0613 </r>
       <r>   -15.0955     5.0468     4.8583 </r>
       <r>   -14.9376     0.9528     5.0088 </r>
       <r>   -14.7796     4.5999     5.7352 </r>
       <r>   -14.6217     6.2070     6.7155 </r>
       <r>   -14.4638     2.8684     7.1685 </r>
       <r>   -14.3058     7.2444     8.3127 </r>
       <r>   -14.1479     8.9383     9.7243 </r>
       <r>   -13.9900     7.3382    10.8832 </r>
       <r>   -13.8320     8.4421    12.2165 </r>
       <r>   -13.6741     8.6257    13.5787 </r>
       <r>   -13.5162     4.6976    14.3206 </r>
       <r>   -13.3582     8.4198    15.6504 </r>
       <r>   -13.2003     7.7751    16.8783 </r>
       <r>   -13.0424     6.9252    17.9720 </r>
       <r>   -12.8845     1.7782    18.2528 </r>
       <r>   -12.7265     7.5839    19.4505 </r>
       <r>   -12.5686     5.8124    20.3685 </r>
       <r>   -12.4107     4.4317    21.0684 </r>
       <r>   -12.2527     5.6100    21.9544 </r>
       <r>   -12.0948     9.0157    23.3783 </r>
       <r>   -11.9369     3.8745    23.9902 </r>
       <r>   -11.7789     0.0623    24.0000 </r>
       <r>   -11.6210     0.0000    24.0000 </r>
       <r>   -11.4631     0.0000    24.0000 </r>
       <r>   -11.3052     0.0000    24.0000 </r>
       <r>   -11.1472     0.0000    24.0000 </r>
       <r>   -10.9893     0.0000    24.0000 </r>
       <r>   -10.8314     0.0000    24.0000 </r>
       <r>   -10.6734     0.0000    24.0000 </r>
       <r>   -10.5155     0.0000    24.0000 </r>
       <r>   -10.3576     0.0000    24.0000 </r>
       <r>   -10.1996     0.0000    24.0000 </r>
       <r>   -10.0417     0.0000    24.0000 </r>
       <r>    -9.8838     0.0000    24.0000 </r>
       <r>    -9.7258     0.0000    24.0000 </r>
       <r>    -9.5679     0.0000    24.0000 </r>
       <r>    -9.4100     0.0000    24.0000 </r>
       <r>    -9.2521     0.0000    24.0000 </r>
       <r>    -9.0941     0.0000    24.0000 </r>
       <r>    -8.9362     0.0000    24.0000 </r>
       <r>    -8.7783     0.0000    24.0000 </r>
       <r>    -8.6203     0.0000    24.0000 </r>
       <r>    -8.4624     0.0000    24.0000 </r>
       <r>    -8.3045     0.0000    24.0000 </r>
       <r>    -8.1465     0.0000    24.0000 </r>
       <r>    -7.9886     0.0000    24.0000 </r>
       <r>    -7.8307     0.0000    24.0000 </r>
       <r>    -7.6727     0.0000    24.0000 </r>
       <r>    -7.5148     0.0000    24.0000 </r>
       <r>    -7.3569     0.0000    24.0000 </r>
       <r>    -7.1990     0.0000    24.0000 </r>
       <r>    -7.0410     0.0000    24.0000 </r>
       <r>    -6.8831     0.0000    24.0000 </r>
       <r>    -6.7252     0.0000    24.0000 </r>
       <r>    -6.5672     0.0000    24.0000 </r>
       <r>    -6.4093     0.0000    24.0000 </r>
       <r>    -6.2514     0.0000    24.0000 </r>
       <r>    -6.0934     0.0000    24.0000 </r>
       <r>    -5.9355     0.0000    24.0000 </r>
       <r>    -5.7776     0.0000    24.0000 </r>
       <r>    -5.6197     0.0000    24.0000 </r>
       <r>    -5.4617     0.0000    24.0000 </r>
       <r>    -5.3038     0.0000    24.0000 </r>
       <r>    -5.1459     0.0000    24.0000 </r>
       <r>    -4.9879     0.0000    24.0000 </r>
       <r>    -4.8300     0.0000    24.0000 </r>
       <r>    -4.6721     0.0000    24.0000 </r>
       <r>    -4.5141     0.0000    24.0000 </r>
       <r>    -4.3562     0.0000    24.0000 </r>
       <r>    -4.1983     0.0000    24.0000 </r>
       <r>    -4.0403     0.0000    24.0000 </r>
       <r>    -3.8824     0.0000    24.0000 </r>
       <r>    -3.7245     0.0000    24.0000 </r>
       <r>    -3.5666     0.0000    24.0000 </r>
       <r>    -3.4086     0.0000    24.0000 </r>
       <r>    -3.2507     0.0000    24.0000 </r>
       <r>    -3.0928     0.0262    24.0041 </r>
       <r>    -2.9348     1.5657    24.2514 </r>
       <r>    -2.7769     3.1943    24.7559 </r>
       <r>    -2.6190     2.0718    25.0831 </r>
       <r>    -2.4610     1.0007    25.2411 </r>
       <r>    -2.3031     1.4273    25.4665 </r>
       <r>    -2.1452     3.5090    26.0207 </r>
       <r>    -1.9872     3.3148    26.5442 </r>
       <r>    -1.8293     5.6770    27.4408 </r>
       <r>    -1.6714     4.4226    28.1392 </r>
       <r>    -1.5135     8.0925    29.4173 </r>
       <r>    -1.3555    14.7341    31.7443 </r>
       <r>    -1.1976    14.6192    34.0531 </r>
       <r>    -1.0397    10.2446    35.6710 </r>
       <r>    -0.8817    15.6624    38.1446 </r>
       <r>    -0.7238    15.9877    40.6695 </r>
       <r>    -0.5659    17.5896    43.4475 </r>
       <r>    -0.4079     6.7165    44.5082 </r>
       <r>    -0.2500     5.8639    45.4343 </r>
       <r>    -0.0921     5.0208    46.2272 </r>
       <r>     0.0658     5.8553    47.1520 </r>
       <r>     0.2238     4.2664    47.8258 </r>
       <r>     0.3817     5.3020    48.6631 </r>
       <r>     0.5396     4.4160    49.3605 </r>
       <r>     0.6976     5.9595    50.3017 </r>
       <r>     0.8555     5.0049    51.0921 </r>
       <r>     1.0134     8.9201    52.5009 </r>
       <r>     1.1714     6.0529    53.4568 </r>
       <r>     1.3293     8.8791    54.8591 </r>
       <r>     1.4872    10.8331    56.5700 </r>
       <r>     1.6452    11.2015    58.3390 </r>
       <r>     1.8031     7.9220    59.5902 </r>
       <r>     1.9610     6.4461    60.6082 </r>
       <r>     2.1189     8.6032    61.9669 </r>
       <r>     2.2769     8.6585    63.3343 </r>
       <r>     2.4348     7.5346    64.5243 </r>
       <r>     2.5927     2.9471    64.9897 </r>
       <r>     2.7507     2.5118    65.3864 </r>
       <r>     2.9086     1.4189    65.6105 </r>
       <r>     3.0665     1.0278    65.7728 </r>
       <r>     3.2245     4.7266    66.5193 </r>
       <r>     3.3824     2.3291    66.8871 </r>
       <r>     3.5403     2.8658    67.3397 </r>
       <r>     3.6983     1.6142    67.5947 </r>
       <r>     3.8562     2.9761    68.0647 </r>
       <r>     4.0141     1.7407    68.3396 </r>
       <r>     4.1720     0.9570    68.4907 </r>
       <r>     4.3300     1.2464    68.6876 </r>
       <r>     4.4879     3.2448    69.2000 </r>
       <r>     4.6458     2.4342    69.5845 </r>
       <r>     4.8038     1.9884    69.8985 </r>
       <r>     4.9617     0.0095    69.9000 </r>
       <r>     5.1196     0.2656    69.9419 </r>
       <r>     5.2776     1.6593    70.2040 </r>
       <r>     5.4355     2.3533    70.5757 </r>
       <r>     5.5934     1.5083    70.8139 </r>
       <r>     5.7513     1.2612    71.0130 </r>
       <r>     5.9093     1.9496    71.3209 </r>
       <r>     6.0672     1.6581    71.5828 </r>
       <r>     6.2251     1.5454    71.8269 </r>
       <r>     6.3831     0.8614    71.9629 </r>
       <r>     6.5410     0.7217    72.0769 </r>
       <r>     6.6989     1.2972    72.2817 </r>
       <r>     6.8569     1.6588    72.5437 </r>
       <r>     7.0148     2.3161    72.9095 </r>
       <r>     7.1727     2.3538    73.2812 </r>
       <r>     7.3307     3.4824    73.8312 </r>
       <r>     7.4886     3.9820    74.4601 </r>
       <r>     7.6465     2.0624    74.7858 </r>
       <r>     7.8044     2.3904    75.1633 </r>
       <r>     7.9624     2.6575    75.5830 </r>
       <r>     8.1203     4.3123    76.2641 </r>
       <r>     8.2782     3.0470    76.7453 </r>
       <r>     8.4362     3.9209    77.3645 </r>
       <r>     8.5941     5.2056    78.1866 </r>
       <r>     8.7520     5.9759    79.1304 </r>
       <r>     8.9100     2.6014    79.5412 </r>
       <r>     9.0679     3.8360    80.1471 </r>
       <r>     9.2258     6.4140    81.1600 </r>
       <r>     9.3838     5.4099    82.0144 </r>
       <r>     9.5417     4.9953    82.8033 </r>
       <r>     9.6996     6.9497    83.9009 </r>
       <r>     9.8575     4.6854    84.6409 </r>
       <r>    10.0155     5.6409    85.5317 </r>
       <r>    10.1734     4.6105    86.2599 </r>
       <r>    10.3313     5.2889    87.0952 </r>
       <r>    10.4893     2.7984    87.5371 </r>
       <r>    10.6472     2.3158    87.9029 </r>
       <r>    10.8051     0.6144    87.9999 </r>
       <r>    10.9631     0.0007    88.0000 </r>
       <r>    11.1210     0.0000    88.0000 </r>
       <r>    11.2789     0.0000    88.0000 </r>
       <r>    11.4368     0.0000    88.0000 </r>
       <r>    11.5948     0.0000    88.0000 </r>
       <r>    11.7527     0.0000    88.0000 </r>
       <r>    11.9106     0.0000    88.0000 </r>
       <r>    12.0686     0.0000    88.0000 </r>
       <r>    12.2265     0.0000    88.0000 </r>
       <r>    12.3844     0.0000    88.0000 </r>
       <r>    12.5424     0.0000    88.0000 </r>
       <r>    12.7003     0.0000    88.0000 </r>
       <r>    12.8582     0.0000    88.0000 </r>
      </set>
     </set>
    </array>
   </total>
  </dos>
 </calculation>
 <structure name="finalpos" >
  <crystal>
   <varray name="basis" >
    <v>       5.65685425       0.00000000       0.00000000 </v>
    <v>       0.00000000       4.00000000       0.00000000 </v>
    <v>       0.00000000       0.00000000      11.31370850 </v>
   </varray>
   <i name="volume">    256.00000000 </i>
   <varray name="rec_basis" >
    <v>       0.17677670       0.00000000       0.00000000 </v>
    <v>       0.00000000       0.25000000       0.00000000 </v>
    <v>       0.00000000       0.00000000       0.08838835 </v>
   </varray>
  </crystal>
  <varray name="positions" >
   <v>       0.00000000       0.00000000       0.00000000 </v>
   <v>       0.50000000       0.00000000       0.25000000 </v>
   <v>       0.00000000       0.00000000       0.50000000 </v>
   <v>       0.50000000       0.00000000       0.75000000 </v>
   <v>       0.50000000       0.50000000       0.00000000 </v>
   <v>       0.00000000       0.50000000       0.25000000 </v>
   <v>       0.50000000       0.50000000       0.50000000 </v>
   <v>       0.00000000       0.50000000       0.75000000 </v>
   <v>       0.25000000       0.50000000       0.62500000 </v>
   <v>       0.00000000       0.00000000       0.25000000 </v>
   <v>       0.50000000       0.00000000       0.50000000 </v>
   <v>       0.00000000       0.00000000       0.75000000 </v>
   <v>       0.75000000       0.50000000       0.12500000 </v>
   <v>       0.25000000       0.50000000       0.37500000 </v>
   <v>       0.75000000       0.50000000       0.62500000 </v>
   <v>       0.25000000       0.50000000       0.87500000 </v>
  </varray>
 </structure>
</modeling>
