<?xml version="1.0" encoding="ISO-8859-1"?>
<modeling>
 <generator>
  <i name="program" type="string">vasp </i>
  <i name="version" type="string">5.3.5  </i>
  <i name="subversion" type="string">31Mar14 (build Jun 20 2014 13:15:13) complex                          parallel </i>
  <i name="platform" type="string">LinuxIFC </i>
  <i name="date" type="string">2025 12 16 </i>
  <i name="time" type="string">17:48:54 </i>
 </generator>
 <incar>
  <i type="string" name="PREC">accurate</i>
  <i type="int" name="IALGO">    68</i>
  <i type="logical" name="ADDGRID"> T  </i>
  <i type="int" name="NELM">   100</i>
  <i type="int" name="NELMIN">     4</i>
  <i type="int" name="IBRION">     2</i>
  <i name="EDIFF">      0.00000100</i>
  <i name="EDIFFG">     -0.02000000</i>
  <i type="int" name="NSW">    30</i>
  <i type="int" name="ISIF">     3</i>
  <i name="ENCUT">    600.00000000</i>
  <i type="logical" name="LREAL"> F  </i>
  <i type="int" name="ISMEAR">     0</i>
  <i name="SIGMA">      0.10000000</i>
  <i type="logical" name="LWAVE"> F  </i>
  <i type="logical" name="LCHARG"> F  </i>
  <i type="int" name="NELM">   100</i>
 </incar>
 <kpoints>
  <generation param="Auto">
   <i name="subdivisionlength">     20.00000000 </i>
   <v type="int" name="divisions">       4        4        4 </v>
   <v name="usershift">      0.00000000       0.00000000       0.00000000 </v>
   <v name="genvec1">      0.25000000       0.00000000       0.00000000 </v>
   <v name="genvec2">      0.00000000       0.25000000       0.00000000 </v>
   <v name="genvec3">      0.00000000       0.00000000       0.25000000 </v>
   <v name="shift">      0.00000000       0.00000000       0.00000000 </v>
  </generation>
  <varray name="kpointlist" >
   <v>       0.00000000       0.00000000       0.00000000 </v>
   <v>       0.25000000       0.00000000       0.00000000 </v>
   <v>       0.50000000       0.00000000       0.00000000 </v>
   <v>       0.00000000       0.25000000       0.00000000 </v>
   <v>       0.25000000       0.25000000       0.00000000 </v>
   <v>       0.50000000       0.25000000       0.00000000 </v>
   <v>      -0.25000000       0.25000000       0.00000000 </v>
   <v>       0.00000000       0.50000000       0.00000000 </v>
   <v>       0.25000000       0.50000000       0.00000000 </v>
   <v>       0.50000000       0.50000000       0.00000000 </v>
   <v>       0.00000000       0.00000000       0.25000000 </v>
   <v>       0.25000000       0.00000000       0.25000000 </v>
   <v>       0.50000000       0.00000000       0.25000000 </v>
   <v>      -0.25000000       0.00000000       0.25000000 </v>
   <v>       0.00000000       0.25000000       0.25000000 </v>
   <v>       0.25000000       0.25000000       0.25000000 </v>
   <v>       0.50000000       0.25000000       0.25000000 </v>
   <v>      -0.25000000       0.25000000       0.25000000 </v>
   <v>       0.00000000       0.50000000       0.25000000 </v>
   <v>       0.25000000       0.50000000       0.25000000 </v>
   <v>       0.50000000       0.50000000       0.25000000 </v>
   <v>      -0.25000000       0.50000000       0.25000000 </v>
   <v>       0.00000000      -0.25000000       0.25000000 </v>
   <v>       0.25000000      -0.25000000       0.25000000 </v>
   <v>       0.50000000      -0.25000000       0.25000000 </v>
   <v>      -0.25000000      -0.25000000       0.25000000 </v>
   <v>       0.00000000       0.00000000       0.50000000 </v>
   <v>       0.25000000       0.00000000       0.50000000 </v>
   <v>       0.50000000       0.00000000       0.50000000 </v>
   <v>       0.00000000       0.25000000       0.50000000 </v>
   <v>       0.25000000       0.25000000       0.50000000 </v>
   <v>       0.50000000       0.25000000       0.50000000 </v>
   <v>      -0.25000000       0.25000000       0.50000000 </v>
   <v>       0.00000000       0.50000000       0.50000000 </v>
   <v>       0.25000000       0.50000000       0.50000000 </v>
   <v>       0.50000000       0.50000000       0.50000000 </v>
  </varray>
  <varray name="weights" >
   <v>       0.01562500 </v>
   <v>       0.03125000 </v>
   <v>       0.01562500 </v>
   <v>       0.03125000 </v>
   <v>       0.03125000 </v>
   <v>       0.03125000 </v>
   <v>       0.03125000 </v>
   <v>       0.01562500 </v>
   <v>       0.03125000 </v>
   <v>       0.01562500 </v>
   <v>       0.03125000 </v>
   <v>       0.03125000 </v>
   <v>       0.03125000 </v>
   <v>       0.03125000 </v>
   <v>       0.03125000 </v>
   <v>       0.03125000 </v>
   <v>       0.03125000 </v>
   <v>       0.03125000 </v>
   <v>       0.03125000 </v>
   <v>       0.03125000 </v>
   <v>       0.03125000 </v>
   <v>       0.03125000 </v>
   <v>       0.03125000 </v>
   <v>       0.03125000 </v>
   <v>       0.03125000 </v>
   <v>       0.03125000 </v>
   <v>       0.01562500 </v>
   <v>       0.03125000 </v>
   <v>       0.01562500 </v>
   <v>       0.03125000 </v>
   <v>       0.03125000 </v>
   <v>       0.03125000 </v>
   <v>       0.03125000 </v>
   <v>       0.01562500 </v>
   <v>       0.03125000 </v>
   <v>       0.01562500 </v>
  </varray>
 </kpoints>
 <parameters>
  <separator name="general" >
   <i type="string" name="SYSTEM">unknown system</i>
   <i type="logical" name="LCOMPAT"> F  </i>
  </separator>
  <separator name="electronic" >
   <i type="string" name="PREC">accura</i>
   <i name="ENMAX">    600.00000000</i>
   <i name="ENAUG">    644.87300000</i>
   <i name="EDIFF">      0.00000100</i>
   <i type="int" name="IALGO">    68</i>
   <i type="int" name="IWAVPR">    11</i>
   <i type="int" name="NBANDS">    44</i>
   <i name="NELECT">     64.00000000</i>
   <i type="int" name="TURBO">     0</i>
   <i type="int" name="IRESTART">     0</i>
   <i type="int" name="NREBOOT">     0</i>
   <i type="int" name="NMIN">     0</i>
   <i name="EREF">      0.00000000</i>
   <separator name="electronic smearing" >
    <i type="int" name="ISMEAR">     0</i>
    <i name="SIGMA">      0.10000000</i>
    <i name="KSPACING">      0.50000000</i>
    <i type="logical" name="KGAMMA"> T  </i>
   </separator>
   <separator name="electronic projectors" >
    <i type="logical" name="LREAL"> F  </i>
    <v name="ROPT">      0.00000000      0.00000000      0.00000000      0.00000000</v>
    <i type="int" name="LMAXPAW">  -100</i>
    <i type="int" name="LMAXMIX">     2</i>
    <i type="logical" name="NLSPLINE"> F  </i>
   </separator>
   <separator name="electronic startup" >
    <i type="int" name="ISTART">     0</i>
    <i type="int" name="ICHARG">     2</i>
    <i type="int" name="INIWAV">     1</i>
   </separator>
   <separator name="electronic spin" >
    <i type="int" name="ISPIN">     1</i>
    <i type="logical" name="LNONCOLLINEAR"> F  </i>
    <v name="MAGMOM">      1.00000000      1.00000000      1.00000000      1.00000000      1.00000000      1.00000000      1.00000000      1.00000000      1.00000000      1.00000000      1.00000000      1.00000000      1.00000000      1.00000000      1.00000000      1.00000000</v>
    <i name="NUPDOWN">     -1.00000000</i>
    <i type="logical" name="LSORBIT"> F  </i>
    <v name="SAXIS">      0.00000000      0.00000000      1.00000000</v>
    <i type="logical" name="LSPIRAL"> F  </i>
    <v name="QSPIRAL">      0.00000000      0.00000000      0.00000000</v>
    <i type="logical" name="LZEROZ"> F  </i>
   </separator>
   <separator name="electronic exchange-correlation" >
    <i type="logical" name="LASPH"> F  </i>
    <i type="logical" name="LMETAGGA"> F  </i>
   </separator>
   <separator name="electronic convergence" >
    <i type="int" name="NELM">   100</i>
    <i type="int" name="NELMDL">     0</i>
    <i type="int" name="NELMIN">     4</i>
    <i name="ENINI">    600.00000000</i>
    <separator name="electronic convergence detail" >
     <i type="logical" name="LDIAG"> T  </i>
     <i type="logical" name="LSUBROT"> F  </i>
     <i name="WEIMIN">      0.00100000</i>
     <i name="EBREAK">      0.00000001</i>
     <i name="DEPER">      0.30000000</i>
     <i type="int" name="NRMM">     4</i>
     <i name="TIME">      0.40000000</i>
    </separator>
   </separator>
   <separator name="electronic mixer" >
    <i name="AMIX">      0.40000000</i>
    <i name="BMIX">      1.00000000</i>
    <i name="AMIN">      0.10000000</i>
    <i name="AMIX_MAG">      1.60000000</i>
    <i name="BMIX_MAG">      1.00000000</i>
    <separator name="electronic mixer details" >
     <i type="int" name="IMIX">     4</i>
     <i type="int" name="MAXMIX">   -45</i>
     <i name="WC">    100.00000000</i>
     <i type="int" name="INIMIX">     1</i>
     <i type="int" name="MIXPRE">     1</i>
     <i type="int" name="MREMOVE">     5</i>
    </separator>
   </separator>
   <separator name="electronic dipolcorrection" >
    <i type="logical" name="LDIPOL"> F  </i>
    <i type="logical" name="LMONO"> F  </i>
    <i type="int" name="IDIPOL">     0</i>
    <i name="EPSILON">      1.00000000</i>
    <v name="DIPOL">   -100.00000000   -100.00000000   -100.00000000</v>
    <i name="EFIELD">      0.00000000</i>
   </separator>
  </separator>
  <separator name="grids" >
   <i type="int" name="NGX">    48</i>
   <i type="int" name="NGY">    48</i>
   <i type="int" name="NGZ">    48</i>
   <i type="int" name="NGXF">    96</i>
   <i type="int" name="NGYF">    96</i>
   <i type="int" name="NGZF">    96</i>
   <i type="logical" name="ADDGRID"> T  </i>
  </separator>
  <separator name="ionic" >
   <i type="int" name="NSW">    30</i>
   <i type="int" name="IBRION">     2</i>
   <i type="int" name="ISIF">     3</i>
   <i name="PSTRESS">      0.00000000</i>
   <i name="EDIFFG">     -0.02000000</i>
   <i type="int" name="NFREE">     1</i>
   <i name="POTIM">      0.50000000</i>
   <i name="SMASS">     -3.00000000</i>
   <i name="SCALEE">      1.00000000</i>
  </separator>
  <separator name="ionic md" >
   <i name="TEBEG">      0.00010000</i>
   <i name="TEEND">      0.00010000</i>
   <i type="int" name="NBLOCK">     1</i>
   <i type="int" name="KBLOCK">    30</i>
   <i type="int" name="NPACO">   256</i>
   <i name="APACO">     16.00000000</i>
  </separator>
  <separator name="symmetry" >
   <i type="int" name="ISYM">     2</i>
   <i name="SYMPREC">      0.00001000</i>
  </separator>
  <separator name="dos" >
   <i type="logical" name="LORBIT"> F  </i>
   <v name="RWIGS">     -1.00000000     -1.00000000     -1.00000000     -1.00000000</v>
   <i type="int" name="NEDOS">   301</i>
   <i name="EMIN">     10.00000000</i>
   <i name="EMAX">    -10.00000000</i>
   <i name="EFERMI">      0.00000000</i>
  </separator>
  <separator name="writing" >
   <i type="int" name="NWRITE">     2</i>
   <i type="logical" name="LWAVE"> F  </i>
   <i type="logical" name="LCHARG"> F  </i>
   <i type="logical" name="LPARD"> F  </i>
   <i type="logical" name="LVTOT"> F  </i>
   <i type="logical" name="LVHAR"> F  </i>
   <i type="logical" name="LELF"> F  </i>
   <i type="logical" name="LOPTICS"> F  </i>
   <v name="STM">      0.00000000      0.00000000      0.00000000      0.00000000      0.00000000      0.00000000      0.00000000</v>
  </separator>
  <separator name="performance" >
   <i type="int" name="NPAR">     4</i>
   <i type="int" name="NSIM">     4</i>
   <i type="int" name="NBLK">    -1</i>
   <i type="logical" name="LPLANE"> T  </i>
   <i type="logical" name="LSCALAPACK"> T  </i>
   <i type="logical" name="LSCAAWARE"> F  </i>
   <i type="logical" name="LSCALU"> F  </i>
   <i type="logical" name="LASYNC"> F  </i>
   <i type="logical" name="LORBITALREAL"> F  </i>
  </separator>
  <separator name="miscellaneous" >
   <i type="int" name="IDIOT">     3</i>
   <i type="logical" name="LMUSIC"> F  </i>
   <v name="POMASS">     28.08500000     26.98100000     12.01100000     14.00100000</v>
   <v name="DARWINR">      0.00000000      0.00000000      0.00000000      0.00000000</v>
   <v name="DARWINV">      1.00000000      1.00000000      1.00000000      1.00000000</v>
   <i type="logical" name="LCORR"> T  </i>
  </separator>
  <i type="logical" name="GGA_COMPAT"> T  </i>
  <i type="logical" name="LBERRY"> F  </i>
  <i type="int" name="ICORELEVEL">     0</i>
  <i type="logical" name="LDAU"> F  </i>
  <i type="int" name="I_CONSTRAINED_M">     0</i>
  <separator name="electronic exchange-correlation" >
   <i type="string" name="GGA">--</i>
   <i type="int" name="VOSKOWN">     0</i>
   <i type="logical" name="LHFCALC"> F  </i>
   <i type="string" name="PRECFOCK"></i>
   <i type="logical" name="LSYMGRAD"> F  </i>
   <i type="logical" name="LHFONE"> F  </i>
   <i type="logical" name="LRHFCALC"> F  </i>
   <i type="logical" name="LTHOMAS"> F  </i>
   <i type="logical" name="LMODELHF"> F  </i>
   <i name="ENCUT4O">     -1.00000000</i>
   <i type="int" name="EXXOEP">     0</i>
   <i type="int" name="FOURORBIT">     0</i>
   <i name="AEXX">      0.00000000</i>
   <i name="HFALPHA">      0.00000000</i>
   <i name="MCALPHA">      0.00000000</i>
   <i name="ALDAX">      1.00000000</i>
   <i name="AGGAX">      1.00000000</i>
   <i name="ALDAC">      1.00000000</i>
   <i name="AGGAC">      1.00000000</i>
   <i type="int" name="NKREDX">     1</i>
   <i type="int" name="NKREDY">     1</i>
   <i type="int" name="NKREDZ">     1</i>
   <i type="logical" name="SHIFTRED"> F  </i>
   <i type="logical" name="ODDONLY"> F  </i>
   <i type="logical" name="EVENONLY"> F  </i>
   <i type="int" name="LMAXFOCK">     0</i>
   <i type="int" name="NMAXFOCKAE">     0</i>
   <i type="logical" name="LFOCKAEDFT"> F  </i>
   <i name="HFSCREEN">      0.00000000</i>
   <i name="HFSCREENC">      0.00000000</i>
   <i type="int" name="NBANDSGWLOW">     0</i>
  </separator>
  <separator name="vdW DFT" >
   <i type="logical" name="LUSE_VDW"> F  </i>
   <i name="Zab_VDW">     -0.84910000</i>
   <i name="PARAM1">      0.12340000</i>
   <i name="PARAM2">      1.00000000</i>
   <i name="PARAM3">      0.00000000</i>
  </separator>
  <separator name="model GW" >
   <i type="int" name="MODEL_GW">     0</i>
   <i name="MODEL_EPS0">      6.41019860</i>
   <i name="MODEL_ALPHA">      1.00000000</i>
  </separator>
  <separator name="linear response parameters" >
   <i type="logical" name="LEPSILON"> F  </i>
   <i type="logical" name="LRPA"> F  </i>
   <i type="logical" name="LNABLA"> F  </i>
   <i type="logical" name="LVEL"> F  </i>
   <i type="int" name="KINTER">     0</i>
   <i name="CSHIFT">      0.10000000</i>
   <i name="OMEGAMAX">     -1.00000000</i>
   <i name="DEG_THRESHOLD">      0.00200000</i>
  </separator>
  <separator name="orbital magnetization" >
   <i type="logical" name="NUCIND"> F  </i>
   <v name="MAGPOS">      0.00000000      0.00000000      0.00000000</v>
   <i type="logical" name="LNICSALL"> T  </i>
   <i type="logical" name="ORBITALMAG"> F  </i>
   <i type="logical" name="LMAGBLOCH"> F  </i>
   <i type="logical" name="LCHIMAG"> F  </i>
   <i type="logical" name="LGAUGE"> T  </i>
   <i type="int" name="MAGATOM">     0</i>
   <v name="MAGDIPOL">      0.00000000      0.00000000      0.00000000</v>
   <v name="AVECCONST">      0.00000000      0.00000000      0.00000000</v>
  </separator>
  <separator name="response functions" >
   <i type="logical" name="LADDER"> F  </i>
   <i type="logical" name="LFXC"> F  </i>
   <i type="logical" name="LHARTREE"> T  </i>
   <i type="int" name="IBSE">     0</i>
   <i type="logical" name="LTCTE"> F  </i>
   <i type="logical" name="LTETE"> F  </i>
   <i type="logical" name="LTRIPLET"> F  </i>
   <i type="logical" name="LFXCEPS"> F  </i>
   <i type="logical" name="LFXHEG"> F  </i>
   <i type="logical" name="L2ORDER"> F  </i>
   <i type="logical" name="LUSEW"> F  </i>
   <i name="ENCUTGW">     -2.00000000</i>
   <i name="ENCUTGWSOFT">     -2.00000000</i>
   <i name="ENCUTLF">     -1.00000000</i>
   <i type="int" name="LMAXMP2">    -1</i>
   <i name="SCISSOR">      0.00000000</i>
   <i type="int" name="NOMEGA">     0</i>
   <i type="int" name="NOMEGAR">     0</i>
   <i type="int" name="NBANDSGW">    -1</i>
   <i type="int" name="NBANDSO">    -1</i>
   <i type="int" name="NBANDSV">    -1</i>
   <i type="int" name="NELM">   100</i>
   <i type="int" name="DIM">     3</i>
   <i type="int" name="ANTIRES">     0</i>
   <i name="OMEGAMAX">    -30.00000000</i>
   <i name="OMEGAMIN">    -30.00000000</i>
   <i name="OMEGATL">   -200.00000000</i>
   <i type="int" name="OMEGAGRID">     0</i>
   <i name="CSHIFT">     -0.10000000</i>
   <i type="logical" name="SELFENERGY"> F  </i>
   <i type="logical" name="LSPECTRAL"> F  </i>
   <i type="logical" name="ODDONLYGW"> F  </i>
   <i type="logical" name="EVENONLYGW"> F  </i>
   <i type="int" name="NKREDLFX">     1</i>
   <i type="int" name="NKREDLFY">     1</i>
   <i type="int" name="NKREDLFZ">     1</i>
   <i type="int" name="MAXMEM">  1800</i>
   <i type="int" name="TELESCOPE">     0</i>
   <i type="int" name="TAUPAR">     1</i>
  </separator>
  <separator name="External order field" >
   <i name="OFIELD_KAPPA">      0.00000000</i>
   <v name="OFIELD_K">      0.00000000      0.00000000      0.00000000</v>
   <i name="OFIELD_Q6_NEAR">      0.00000000</i>
   <i name="OFIELD_Q6_FAR">      0.00000000</i>
   <i name="OFIELD_A">      0.00000000</i>
  </separator>
 </parameters>
 <atominfo>
  <atoms>      16 </atoms>
  <types>       4 </types>
  <array name="atoms" >
   <dimension dim="1">ion</dimension>
   <field type="string">element</field>
   <field type="int">atomtype</field>
   <set>
    <rc><c>Si</c><c>   1</c></rc>
    <rc><c>Si</c><c>   1</c></rc>
    <rc><c>Si</c><c>   1</c></rc>
    <rc><c>Si</c><c>   1</c></rc>
    <rc><c>Al</c><c>   2</c></rc>
    <rc><c>Al</c><c>   2</c></rc>
    <rc><c>Al</c><c>   2</c></rc>
    <rc><c>Al</c><c>   2</c></rc>
    <rc><c>C </c><c>   3</c></rc>
    <rc><c>C </c><c>   3</c></rc>
    <rc><c>C </c><c>   3</c></rc>
    <rc><c>C </c><c>   3</c></rc>
    <rc><c>N </c><c>   4</c></rc>
    <rc><c>N </c><c>   4</c></rc>
    <rc><c>N </c><c>   4</c></rc>
    <rc><c>N </c><c>   4</c></rc>
   </set>
  </array>
  <array name="atomtypes" >
   <dimension dim="1">type</dimension>
   <field type="int">atomspertype</field>
   <field type="string">element</field>
   <field>mass</field>
   <field>valence</field>
   <field type="string">pseudopotential</field>
   <set>
    <rc><c>   4</c><c>Si</c><c>     28.08500000</c><c>      4.00000000</c><c>  PAW_PBE Si 05Jan2001                  </c></rc>
    <rc><c>   4</c><c>Al</c><c>     26.98100000</c><c>      3.00000000</c><c>  PAW_PBE Al 04Jan2001                  </c></rc>
    <rc><c>   4</c><c>C </c><c>     12.01100000</c><c>      4.00000000</c><c>  PAW_PBE C 08Apr2002                   </c></rc>
    <rc><c>   4</c><c>N </c><c>     14.00100000</c><c>      5.00000000</c><c>  PAW_PBE N_s 07Sep2000                 </c></rc>
   </set>
  </array>
 </atominfo>
 <structure name="initialpos" >
  <crystal>
   <varray name="basis" >
    <v>       5.39305414       0.00019864       0.00453477 </v>
    <v>       0.00018551       5.94771185      -0.05579328 </v>
    <v>       0.00435425      -2.65660670       5.35404459 </v>
   </varray>
   <i name="volume">    170.93862930 </i>
   <varray name="rec_basis" >
    <v>       0.18542382      -0.00000723      -0.00015439 </v>
    <v>      -0.00007670       0.16891812       0.08381502 </v>
    <v>      -0.00015785       0.00176026       0.18764823 </v>
   </varray>
  </crystal>
  <varray name="positions" >
   <v>       0.83160580       0.75390010       0.73787497 </v>
   <v>       0.16949199       0.50074087       0.00940187 </v>
   <v>       0.16202974       0.99196396       0.49672732 </v>
   <v>       0.67424747       0.24846870       0.74416219 </v>
   <v>       0.33100446       0.00500062       0.99729340 </v>
   <v>       0.83569929       0.25355887       0.25404333 </v>
   <v>       0.32813086       0.49921427       0.49275930 </v>
   <v>       0.66684618       0.74877508       0.25865666 </v>
   <v>       0.32059701       0.80901691       0.18785875 </v>
   <v>       0.84353932       0.06843249       0.45687730 </v>
   <v>       0.16413918       0.31742129       0.17481485 </v>
   <v>       0.66735032       0.56769979       0.45916464 </v>
   <v>       0.33827930       0.30108004       0.69976316 </v>
   <v>       0.84163908       0.55874024       0.92231002 </v>
   <v>       0.15071163       0.81664483       0.68794659 </v>
   <v>       0.67468838       0.05934195       0.92034565 </v>
  </varray>
 </structure>
 <calculation>
  <scstep>
   <time name="dav">    0.75    0.75</time>
   <time name="total">    0.79    0.81</time>
   <energy>
    <i name="alphaZ">     63.62865935 </i>
    <i name="ewald">  -2263.52676880 </i>
    <i name="hartreedc">   -365.35932563 </i>
    <i name="XCdc">     -5.66380250 </i>
    <i name="pawpsdc">   1871.13760811 </i>
    <i name="pawaedc">  -1679.96522576 </i>
    <i name="eentropy">     -0.01208479 </i>
    <i name="bandstr">    441.93373427 </i>
    <i name="atom">   2273.20978491 </i>
    <i name="e_fr_energy">    335.38257917 </i>
    <i name="e_wo_entrp">    335.39466396 </i>
    <i name="e_0_energy">    335.38862156 </i>
   </energy>
  </scstep>
  <scstep>
   <time name="dav">    0.86    0.86</time>
   <time name="total">    0.86    0.87</time>
   <energy>
    <i name="e_fr_energy">   -100.41994029 </i>
    <i name="e_wo_entrp">   -100.41994029 </i>
    <i name="e_0_energy">   -100.41994029 </i>
   </energy>
  </scstep>
  <scstep>
   <time name="dav">    0.89    0.89</time>
   <time name="total">    0.89    0.91</time>
   <energy>
    <i name="e_fr_energy">   -133.58048405 </i>
    <i name="e_wo_entrp">   -133.58048405 </i>
    <i name="e_0_energy">   -133.58048405 </i>
   </energy>
  </scstep>
  <scstep>
   <time name="dav">    0.87    0.87</time>
   <time name="total">    0.88    0.89</time>
   <energy>
    <i name="e_fr_energy">   -134.44843128 </i>
    <i name="e_wo_entrp">   -134.44843128 </i>
    <i name="e_0_energy">   -134.44843128 </i>
   </energy>
  </scstep>
  <scstep>
   <time name="dav">    0.88    0.88</time>
   <time name="total">    0.96    0.98</time>
   <energy>
    <i name="e_fr_energy">   -134.47592990 </i>
    <i name="e_wo_entrp">   -134.47592990 </i>
    <i name="e_0_energy">   -134.47592990 </i>
   </energy>
  </scstep>
  <scstep>
   <time name="diag">    0.18    0.18</time>
   <time name="diis">    0.46    0.46</time>
   <time name="orth">    0.03    0.03</time>
   <time name="total">    0.79    0.81</time>
   <energy>
    <i name="e_fr_energy">   -115.95631779 </i>
    <i name="e_wo_entrp">   -115.95631779 </i>
    <i name="e_0_energy">   -115.95631779 </i>
   </energy>
  </scstep>
  <scstep>
   <time name="diag">    0.18    0.18</time>
   <time name="diis">    0.50    0.50</time>
   <time name="orth">    0.03    0.03</time>
   <time name="total">    0.84    0.85</time>
   <energy>
    <i name="e_fr_energy">   -115.85216143 </i>
    <i name="e_wo_entrp">   -115.85216143 </i>
    <i name="e_0_energy">   -115.85216143 </i>
   </energy>
  </scstep>
  <scstep>
   <time name="diag">    0.18    0.18</time>
   <time name="diis">    0.46    0.46</time>
   <time name="orth">    0.03    0.03</time>
   <time name="total">    0.79    0.81</time>
   <energy>
    <i name="e_fr_energy">   -116.03652072 </i>
    <i name="e_wo_entrp">   -116.03652072 </i>
    <i name="e_0_energy">   -116.03652072 </i>
   </energy>
  </scstep>
  <scstep>
   <time name="diag">    0.18    0.18</time>
   <time name="diis">    0.46    0.46</time>
   <time name="orth">    0.03    0.03</time>
   <time name="total">    0.79    0.80</time>
   <energy>
    <i name="e_fr_energy">   -115.72239242 </i>
    <i name="e_wo_entrp">   -115.72239242 </i>
    <i name="e_0_energy">   -115.72239242 </i>
   </energy>
  </scstep>
  <scstep>
   <time name="diag">    0.18    0.18</time>
   <time name="diis">    0.49    0.49</time>
   <time name="orth">    0.03    0.03</time>
   <time name="total">    0.82    0.84</time>
   <energy>
    <i name="e_fr_energy">   -115.72923393 </i>
    <i name="e_wo_entrp">   -115.72923393 </i>
    <i name="e_0_energy">   -115.72923393 </i>
   </energy>
  </scstep>
  <scstep>
   <time name="diag">    0.18    0.18</time>
   <time name="diis">    0.47    0.47</time>
   <time name="orth">    0.03    0.03</time>
   <time name="total">    0.81    0.85</time>
   <energy>
    <i name="e_fr_energy">   -115.72791175 </i>
    <i name="e_wo_entrp">   -115.72791175 </i>
    <i name="e_0_energy">   -115.72791175 </i>
   </energy>
  </scstep>
  <scstep>
   <time name="diag">    0.18    0.18</time>
   <time name="diis">    0.46    0.46</time>
   <time name="orth">    0.03    0.03</time>
   <time name="total">    0.79    0.81</time>
   <energy>
    <i name="e_fr_energy">   -115.72769767 </i>
    <i name="e_wo_entrp">   -115.72769767 </i>
    <i name="e_0_energy">   -115.72769767 </i>
   </energy>
  </scstep>
  <scstep>
   <time name="diag">    0.18    0.18</time>
   <time name="diis">    0.49    0.49</time>
   <time name="orth">    0.03    0.03</time>
   <time name="total">    0.82    0.83</time>
   <energy>
    <i name="e_fr_energy">   -115.72768293 </i>
    <i name="e_wo_entrp">   -115.72768293 </i>
    <i name="e_0_energy">   -115.72768293 </i>
   </energy>
  </scstep>
  <scstep>
   <time name="diag">    0.18    0.18</time>
   <time name="diis">    0.45    0.45</time>
   <time name="orth">    0.03    0.03</time>
   <time name="total">    0.78    0.80</time>
   <energy>
    <i name="e_fr_energy">   -115.72768650 </i>
    <i name="e_wo_entrp">   -115.72768650 </i>
    <i name="e_0_energy">   -115.72768650 </i>
   </energy>
  </scstep>
  <scstep>
   <time name="diag">    0.18    0.18</time>
   <time name="diis">    0.46    0.46</time>
   <time name="orth">    0.03    0.03</time>
   <time name="total">    0.79    0.80</time>
   <energy>
    <i name="e_fr_energy">   -115.72768499 </i>
    <i name="e_wo_entrp">   -115.72768499 </i>
    <i name="e_0_energy">   -115.72768499 </i>
   </energy>
  </scstep>
  <scstep>
   <time name="diag">    0.18    0.18</time>
   <time name="diis">    0.32    0.32</time>
   <time name="orth">    0.03    0.03</time>
   <time name="total">    0.57    0.58</time>
   <energy>
    <i name="alphaZ">     63.62865935 </i>
    <i name="ewald">  -2263.52676880 </i>
    <i name="hartreedc">   -469.75028799 </i>
    <i name="XCdc">      3.78608343 </i>
    <i name="pawpsdc">   9991.13729366 </i>
    <i name="pawaedc">  -9804.04495494 </i>
    <i name="eentropy">      0.00000000 </i>
    <i name="bandstr">     89.83250525 </i>
    <i name="atom">   2273.20978491 </i>
    <i name="e_fr_energy">   -115.72768513 </i>
    <i name="e_wo_entrp">   -115.72768513 </i>
    <i name="e_0_energy">   -115.72768513 </i>
   </energy>
  </scstep>
  <structure>
   <crystal>
    <varray name="basis" >
     <v>       5.39305414       0.00019864       0.00453477 </v>
     <v>       0.00018551       5.94771185      -0.05579328 </v>
     <v>       0.00435425      -2.65660670       5.35404459 </v>
    </varray>
    <i name="volume">    170.93862930 </i>
    <varray name="rec_basis" >
     <v>       0.18542382      -0.00000723      -0.00015439 </v>
     <v>      -0.00007670       0.16891812       0.08381502 </v>
     <v>      -0.00015785       0.00176026       0.18764823 </v>
    </varray>
   </crystal>
   <varray name="positions" >
    <v>       0.83160580       0.75390010       0.73787497 </v>
    <v>       0.16949199       0.50074087       0.00940187 </v>
    <v>       0.16202974       0.99196396       0.49672732 </v>
    <v>       0.67424747       0.24846870       0.74416219 </v>
    <v>       0.33100446       0.00500062       0.99729340 </v>
    <v>       0.83569929       0.25355887       0.25404333 </v>
    <v>       0.32813086       0.49921427       0.49275930 </v>
    <v>       0.66684618       0.74877508       0.25865666 </v>
    <v>       0.32059701       0.80901691       0.18785875 </v>
    <v>       0.84353932       0.06843249       0.45687730 </v>
    <v>       0.16413918       0.31742129       0.17481485 </v>
    <v>       0.66735032       0.56769979       0.45916464 </v>
    <v>       0.33827930       0.30108004       0.69976316 </v>
    <v>       0.84163908       0.55874024       0.92231002 </v>
    <v>       0.15071163       0.81664483       0.68794659 </v>
    <v>       0.67468838       0.05934195       0.92034565 </v>
   </varray>
  </structure>
  <varray name="forces" >
   <v>      -0.00067413      -0.00677703      -0.00731369 </v>
   <v>       0.00124352       0.00061156      -0.00570063 </v>
   <v>      -0.00427000       0.00241026      -0.00318162 </v>
   <v>       0.00461012      -0.00180063       0.00023797 </v>
   <v>      -0.00812602      -0.00349439       0.00389127 </v>
   <v>      -0.00509584      -0.00238971      -0.00422148 </v>
   <v>      -0.00519573       0.00531863      -0.00356208 </v>
   <v>       0.00433829      -0.00186014       0.00169741 </v>
   <v>       0.00288503       0.00458494      -0.00010001 </v>
   <v>       0.00816456       0.00175715      -0.00204275 </v>
   <v>       0.00395419      -0.00543693       0.00328897 </v>
   <v>       0.00314939       0.00540000       0.00886905 </v>
   <v>       0.00079460      -0.00309128       0.00178668 </v>
   <v>       0.00169946       0.00102912      -0.00086477 </v>
   <v>      -0.00320163       0.00251630       0.00125980 </v>
   <v>      -0.00427581       0.00122215       0.00595589 </v>
  </varray>
  <varray name="stress" >
   <v>      -0.04078480       0.00839291      -0.08754612 </v>
   <v>       0.00839294       0.07267718      -0.02021359 </v>
   <v>      -0.08754600      -0.02021350       0.05819696 </v>
  </varray>
  <energy>
   <i name="e_fr_energy">   -115.72768513 </i>
   <i name="e_wo_entrp">   -115.72768513 </i>
   <i name="e_0_energy">      0.00000000 </i>
  </energy>
  <time name="totalsc">   14.62   14.90</time>
  <eigenvalues>
   <array>
    <dimension dim="1">band</dimension>
    <dimension dim="2">kpoint</dimension>
    <dimension dim="3">spin</dimension>
    <field>eigene</field>
    <field>occ</field>
    <set>
     <set comment="spin 1">
      <set comment="kpoint 1">
       <r>   -9.4264    1.0000 </r>
       <r>   -7.7377    1.0000 </r>
       <r>   -7.6954    1.0000 </r>
       <r>   -7.3495    1.0000 </r>
       <r>   -4.1881    1.0000 </r>
       <r>   -3.6081    1.0000 </r>
       <r>   -2.8901    1.0000 </r>
       <r>   -2.3983    1.0000 </r>
       <r>   -0.9331    1.0000 </r>
       <r>   -0.1384    1.0000 </r>
       <r>   -0.0208    1.0000 </r>
       <r>    0.9126    1.0000 </r>
       <r>    1.2585    1.0000 </r>
       <r>    1.5622    1.0000 </r>
       <r>    1.9313    1.0000 </r>
       <r>    2.1501    1.0000 </r>
       <r>    2.7031    1.0000 </r>
       <r>    3.0253    1.0000 </r>
       <r>    3.3390    1.0000 </r>
       <r>    3.8192    1.0000 </r>
       <r>    4.1184    1.0000 </r>
       <r>    4.4900    1.0000 </r>
       <r>    4.7230    1.0000 </r>
       <r>    5.3470    1.0000 </r>
       <r>    5.6644    1.0000 </r>
       <r>    5.9103    1.0000 </r>
       <r>    6.1676    1.0000 </r>
       <r>    6.3311    1.0000 </r>
       <r>    6.8134    1.0000 </r>
       <r>    7.2403    1.0000 </r>
       <r>    7.4061    1.0000 </r>
       <r>    7.9811    1.0000 </r>
       <r>   10.4326    0.0000 </r>
       <r>   10.9185    0.0000 </r>
       <r>   11.7829    0.0000 </r>
       <r>   12.0911    0.0000 </r>
       <r>   12.2665    0.0000 </r>
       <r>   12.5994    0.0000 </r>
       <r>   13.0040    0.0000 </r>
       <r>   13.3465    0.0000 </r>
       <r>   14.1806    0.0000 </r>
       <r>   14.3578    0.0000 </r>
       <r>   14.6735    0.0000 </r>
       <r>   15.1717    0.0000 </r>
      </set>
      <set comment="kpoint 2">
       <r>   -9.2477    1.0000 </r>
       <r>   -8.1076    1.0000 </r>
       <r>   -7.6299    1.0000 </r>
       <r>   -7.2713    1.0000 </r>
       <r>   -4.1563    1.0000 </r>
       <r>   -3.7589    1.0000 </r>
       <r>   -2.8275    1.0000 </r>
       <r>   -2.3623    1.0000 </r>
       <r>   -0.7603    1.0000 </r>
       <r>   -0.4882    1.0000 </r>
       <r>    0.1280    1.0000 </r>
       <r>    0.6446    1.0000 </r>
       <r>    1.0267    1.0000 </r>
       <r>    1.4346    1.0000 </r>
       <r>    1.8212    1.0000 </r>
       <r>    2.2598    1.0000 </r>
       <r>    2.9880    1.0000 </r>
       <r>    3.4275    1.0000 </r>
       <r>    3.8016    1.0000 </r>
       <r>    4.1276    1.0000 </r>
       <r>    4.4505    1.0000 </r>
       <r>    4.6356    1.0000 </r>
       <r>    4.9871    1.0000 </r>
       <r>    5.2958    1.0000 </r>
       <r>    5.4087    1.0000 </r>
       <r>    5.7913    1.0000 </r>
       <r>    6.0932    1.0000 </r>
       <r>    6.2253    1.0000 </r>
       <r>    6.7174    1.0000 </r>
       <r>    6.8549    1.0000 </r>
       <r>    7.3955    1.0000 </r>
       <r>    7.9149    1.0000 </r>
       <r>   10.7535    0.0000 </r>
       <r>   10.8968    0.0000 </r>
       <r>   11.5546    0.0000 </r>
       <r>   11.8040    0.0000 </r>
       <r>   12.0230    0.0000 </r>
       <r>   12.6742    0.0000 </r>
       <r>   12.7742    0.0000 </r>
       <r>   13.2392    0.0000 </r>
       <r>   13.7230    0.0000 </r>
       <r>   14.1763    0.0000 </r>
       <r>   14.6231    0.0000 </r>
       <r>   15.1149    0.0000 </r>
      </set>
      <set comment="kpoint 3">
       <r>   -8.8500    1.0000 </r>
       <r>   -8.6381    1.0000 </r>
       <r>   -7.5390    1.0000 </r>
       <r>   -7.2767    1.0000 </r>
       <r>   -4.1311    1.0000 </r>
       <r>   -3.8330    1.0000 </r>
       <r>   -2.7932    1.0000 </r>
       <r>   -2.3692    1.0000 </r>
       <r>   -0.7887    1.0000 </r>
       <r>   -0.6824    1.0000 </r>
       <r>    0.1072    1.0000 </r>
       <r>    0.6393    1.0000 </r>
       <r>    0.9877    1.0000 </r>
       <r>    1.2242    1.0000 </r>
       <r>    2.0726    1.0000 </r>
       <r>    2.4523    1.0000 </r>
       <r>    3.2135    1.0000 </r>
       <r>    3.7243    1.0000 </r>
       <r>    3.9428    1.0000 </r>
       <r>    3.9693    1.0000 </r>
       <r>    4.5632    1.0000 </r>
       <r>    4.7465    1.0000 </r>
       <r>    5.2141    1.0000 </r>
       <r>    5.2823    1.0000 </r>
       <r>    5.5142    1.0000 </r>
       <r>    5.5989    1.0000 </r>
       <r>    6.1505    1.0000 </r>
       <r>    6.2693    1.0000 </r>
       <r>    6.6108    1.0000 </r>
       <r>    6.9862    1.0000 </r>
       <r>    7.4965    1.0000 </r>
       <r>    7.7003    1.0000 </r>
       <r>   10.3362    0.0000 </r>
       <r>   10.7731    0.0000 </r>
       <r>   11.1742    0.0000 </r>
       <r>   11.3734    0.0000 </r>
       <r>   12.0223    0.0000 </r>
       <r>   12.5663    0.0000 </r>
       <r>   12.8225    0.0000 </r>
       <r>   13.5647    0.0000 </r>
       <r>   13.8018    0.0000 </r>
       <r>   14.0264    0.0000 </r>
       <r>   14.2783    0.0000 </r>
       <r>   14.4273    0.0000 </r>
      </set>
      <set comment="kpoint 4">
       <r>   -9.2572    1.0000 </r>
       <r>   -8.1514    1.0000 </r>
       <r>   -7.5760    1.0000 </r>
       <r>   -7.2943    1.0000 </r>
       <r>   -4.3470    1.0000 </r>
       <r>   -3.4325    1.0000 </r>
       <r>   -3.0942    1.0000 </r>
       <r>   -2.3981    1.0000 </r>
       <r>   -0.8623    1.0000 </r>
       <r>   -0.0162    1.0000 </r>
       <r>    0.5158    1.0000 </r>
       <r>    0.8835    1.0000 </r>
       <r>    1.4863    1.0000 </r>
       <r>    1.6731    1.0000 </r>
       <r>    1.9918    1.0000 </r>
       <r>    2.3176    1.0000 </r>
       <r>    2.6771    1.0000 </r>
       <r>    3.0014    1.0000 </r>
       <r>    3.2854    1.0000 </r>
       <r>    3.9019    1.0000 </r>
       <r>    4.1031    1.0000 </r>
       <r>    4.2008    1.0000 </r>
       <r>    4.8265    1.0000 </r>
       <r>    5.0309    1.0000 </r>
       <r>    5.4680    1.0000 </r>
       <r>    5.5526    1.0000 </r>
       <r>    5.9544    1.0000 </r>
       <r>    6.1605    1.0000 </r>
       <r>    6.5177    1.0000 </r>
       <r>    6.9283    1.0000 </r>
       <r>    7.3163    1.0000 </r>
       <r>    7.5061    1.0000 </r>
       <r>   11.0637    0.0000 </r>
       <r>   11.5898    0.0000 </r>
       <r>   12.1283    0.0000 </r>
       <r>   12.3690    0.0000 </r>
       <r>   12.5171    0.0000 </r>
       <r>   12.8949    0.0000 </r>
       <r>   13.0104    0.0000 </r>
       <r>   13.5708    0.0000 </r>
       <r>   13.8746    0.0000 </r>
       <r>   14.1502    0.0000 </r>
       <r>   14.6507    0.0000 </r>
       <r>   15.0344    0.0000 </r>
      </set>
      <set comment="kpoint 5">
       <r>   -9.0845    1.0000 </r>
       <r>   -8.2095    1.0000 </r>
       <r>   -7.7191    1.0000 </r>
       <r>   -7.3269    1.0000 </r>
       <r>   -4.2804    1.0000 </r>
       <r>   -3.6969    1.0000 </r>
       <r>   -3.0317    1.0000 </r>
       <r>   -2.4293    1.0000 </r>
       <r>   -0.7416    1.0000 </r>
       <r>    0.0371    1.0000 </r>
       <r>    0.4766    1.0000 </r>
       <r>    0.8683    1.0000 </r>
       <r>    1.4044    1.0000 </r>
       <r>    1.5897    1.0000 </r>
       <r>    1.9499    1.0000 </r>
       <r>    2.5013    1.0000 </r>
       <r>    2.8535    1.0000 </r>
       <r>    3.2601    1.0000 </r>
       <r>    3.3956    1.0000 </r>
       <r>    3.7041    1.0000 </r>
       <r>    4.2523    1.0000 </r>
       <r>    4.4284    1.0000 </r>
       <r>    4.8376    1.0000 </r>
       <r>    5.0749    1.0000 </r>
       <r>    5.4544    1.0000 </r>
       <r>    5.6145    1.0000 </r>
       <r>    5.9380    1.0000 </r>
       <r>    6.1868    1.0000 </r>
       <r>    6.4914    1.0000 </r>
       <r>    6.8680    1.0000 </r>
       <r>    7.0568    1.0000 </r>
       <r>    7.5966    1.0000 </r>
       <r>   11.0410    0.0000 </r>
       <r>   11.2531    0.0000 </r>
       <r>   11.9048    0.0000 </r>
       <r>   12.0202    0.0000 </r>
       <r>   12.6107    0.0000 </r>
       <r>   12.7951    0.0000 </r>
       <r>   13.1549    0.0000 </r>
       <r>   13.5155    0.0000 </r>
       <r>   13.8751    0.0000 </r>
       <r>   14.2092    0.0000 </r>
       <r>   14.4912    0.0000 </r>
       <r>   14.9417    0.0000 </r>
      </set>
      <set comment="kpoint 6">
       <r>   -8.7079    1.0000 </r>
       <r>   -8.5495    1.0000 </r>
       <r>   -7.7538    1.0000 </r>
       <r>   -7.3895    1.0000 </r>
       <r>   -4.2177    1.0000 </r>
       <r>   -3.8540    1.0000 </r>
       <r>   -2.9769    1.0000 </r>
       <r>   -2.5798    1.0000 </r>
       <r>   -0.5183    1.0000 </r>
       <r>   -0.1242    1.0000 </r>
       <r>    0.3875    1.0000 </r>
       <r>    0.9288    1.0000 </r>
       <r>    1.4872    1.0000 </r>
       <r>    1.6141    1.0000 </r>
       <r>    2.1473    1.0000 </r>
       <r>    2.6017    1.0000 </r>
       <r>    2.7531    1.0000 </r>
       <r>    3.2654    1.0000 </r>
       <r>    3.5389    1.0000 </r>
       <r>    3.8539    1.0000 </r>
       <r>    4.3089    1.0000 </r>
       <r>    4.3783    1.0000 </r>
       <r>    4.9888    1.0000 </r>
       <r>    5.2745    1.0000 </r>
       <r>    5.4152    1.0000 </r>
       <r>    5.5186    1.0000 </r>
       <r>    5.9495    1.0000 </r>
       <r>    6.1400    1.0000 </r>
       <r>    6.4987    1.0000 </r>
       <r>    6.8536    1.0000 </r>
       <r>    7.1426    1.0000 </r>
       <r>    7.4603    1.0000 </r>
       <r>   10.7269    0.0000 </r>
       <r>   10.9692    0.0000 </r>
       <r>   11.6454    0.0000 </r>
       <r>   11.8439    0.0000 </r>
       <r>   12.8183    0.0000 </r>
       <r>   13.1073    0.0000 </r>
       <r>   13.2130    0.0000 </r>
       <r>   13.4656    0.0000 </r>
       <r>   13.7030    0.0000 </r>
       <r>   14.1530    0.0000 </r>
       <r>   14.2842    0.0000 </r>
       <r>   14.5318    0.0000 </r>
      </set>
      <set comment="kpoint 7">
       <r>   -9.0899    1.0000 </r>
       <r>   -8.1584    1.0000 </r>
       <r>   -7.8026    1.0000 </r>
       <r>   -7.2864    1.0000 </r>
       <r>   -4.3512    1.0000 </r>
       <r>   -3.5884    1.0000 </r>
       <r>   -3.0248    1.0000 </r>
       <r>   -2.4835    1.0000 </r>
       <r>   -0.6524    1.0000 </r>
       <r>   -0.0822    1.0000 </r>
       <r>    0.5187    1.0000 </r>
       <r>    0.8807    1.0000 </r>
       <r>    1.2135    1.0000 </r>
       <r>    1.6479    1.0000 </r>
       <r>    2.0720    1.0000 </r>
       <r>    2.3740    1.0000 </r>
       <r>    2.9633    1.0000 </r>
       <r>    3.2273    1.0000 </r>
       <r>    3.6917    1.0000 </r>
       <r>    3.8314    1.0000 </r>
       <r>    3.9766    1.0000 </r>
       <r>    4.4176    1.0000 </r>
       <r>    4.6367    1.0000 </r>
       <r>    5.1404    1.0000 </r>
       <r>    5.3944    1.0000 </r>
       <r>    5.6227    1.0000 </r>
       <r>    5.8367    1.0000 </r>
       <r>    6.2293    1.0000 </r>
       <r>    6.6843    1.0000 </r>
       <r>    6.8886    1.0000 </r>
       <r>    7.0839    1.0000 </r>
       <r>    7.5213    1.0000 </r>
       <r>   11.0694    0.0000 </r>
       <r>   11.3653    0.0000 </r>
       <r>   11.7797    0.0000 </r>
       <r>   12.0153    0.0000 </r>
       <r>   12.4938    0.0000 </r>
       <r>   12.7602    0.0000 </r>
       <r>   13.0950    0.0000 </r>
       <r>   13.4929    0.0000 </r>
       <r>   13.9949    0.0000 </r>
       <r>   14.1732    0.0000 </r>
       <r>   14.4687    0.0000 </r>
       <r>   14.8009    0.0000 </r>
      </set>
      <set comment="kpoint 8">
       <r>   -8.8922    1.0000 </r>
       <r>   -8.6533    1.0000 </r>
       <r>   -7.4772    1.0000 </r>
       <r>   -7.3241    1.0000 </r>
       <r>   -4.4453    1.0000 </r>
       <r>   -3.5002    1.0000 </r>
       <r>   -2.9851    1.0000 </r>
       <r>   -2.5500    1.0000 </r>
       <r>   -0.6052    1.0000 </r>
       <r>    0.0289    1.0000 </r>
       <r>    0.9474    1.0000 </r>
       <r>    1.1540    1.0000 </r>
       <r>    1.5045    1.0000 </r>
       <r>    1.7920    1.0000 </r>
       <r>    1.8836    1.0000 </r>
       <r>    2.5150    1.0000 </r>
       <r>    2.7184    1.0000 </r>
       <r>    3.1397    1.0000 </r>
       <r>    3.3689    1.0000 </r>
       <r>    3.7019    1.0000 </r>
       <r>    3.8241    1.0000 </r>
       <r>    4.2889    1.0000 </r>
       <r>    4.7748    1.0000 </r>
       <r>    4.8424    1.0000 </r>
       <r>    5.0554    1.0000 </r>
       <r>    5.2555    1.0000 </r>
       <r>    5.7931    1.0000 </r>
       <r>    6.1994    1.0000 </r>
       <r>    6.3583    1.0000 </r>
       <r>    6.4917    1.0000 </r>
       <r>    6.9833    1.0000 </r>
       <r>    7.3090    1.0000 </r>
       <r>   11.5885    0.0000 </r>
       <r>   11.7035    0.0000 </r>
       <r>   12.2404    0.0000 </r>
       <r>   12.7404    0.0000 </r>
       <r>   12.9770    0.0000 </r>
       <r>   13.2657    0.0000 </r>
       <r>   13.6372    0.0000 </r>
       <r>   13.7412    0.0000 </r>
       <r>   13.9785    0.0000 </r>
       <r>   14.2298    0.0000 </r>
       <r>   14.5337    0.0000 </r>
       <r>   14.6114    0.0000 </r>
      </set>
      <set comment="kpoint 9">
       <r>   -8.7384    1.0000 </r>
       <r>   -8.5568    1.0000 </r>
       <r>   -7.7224    1.0000 </r>
       <r>   -7.4003    1.0000 </r>
       <r>   -4.4223    1.0000 </r>
       <r>   -3.6265    1.0000 </r>
       <r>   -3.1127    1.0000 </r>
       <r>   -2.6150    1.0000 </r>
       <r>   -0.3142    1.0000 </r>
       <r>    0.2285    1.0000 </r>
       <r>    0.9437    1.0000 </r>
       <r>    1.0983    1.0000 </r>
       <r>    1.5095    1.0000 </r>
       <r>    1.8217    1.0000 </r>
       <r>    2.2774    1.0000 </r>
       <r>    2.5098    1.0000 </r>
       <r>    2.7493    1.0000 </r>
       <r>    3.0479    1.0000 </r>
       <r>    3.2770    1.0000 </r>
       <r>    3.5039    1.0000 </r>
       <r>    4.0446    1.0000 </r>
       <r>    4.1169    1.0000 </r>
       <r>    4.5320    1.0000 </r>
       <r>    4.9833    1.0000 </r>
       <r>    5.0869    1.0000 </r>
       <r>    5.3463    1.0000 </r>
       <r>    5.7963    1.0000 </r>
       <r>    6.1689    1.0000 </r>
       <r>    6.4950    1.0000 </r>
       <r>    6.6604    1.0000 </r>
       <r>    6.9692    1.0000 </r>
       <r>    7.3303    1.0000 </r>
       <r>   11.4903    0.0000 </r>
       <r>   11.8813    0.0000 </r>
       <r>   11.9797    0.0000 </r>
       <r>   12.0500    0.0000 </r>
       <r>   12.6720    0.0000 </r>
       <r>   12.9122    0.0000 </r>
       <r>   13.3636    0.0000 </r>
       <r>   13.7961    0.0000 </r>
       <r>   13.9501    0.0000 </r>
       <r>   14.2076    0.0000 </r>
       <r>   14.5979    0.0000 </r>
       <r>   14.7836    0.0000 </r>
      </set>
      <set comment="kpoint 10">
       <r>   -8.4731    1.0000 </r>
       <r>   -8.4156    1.0000 </r>
       <r>   -8.0813    1.0000 </r>
       <r>   -7.5245    1.0000 </r>
       <r>   -4.2917    1.0000 </r>
       <r>   -3.8717    1.0000 </r>
       <r>   -3.1469    1.0000 </r>
       <r>   -2.7601    1.0000 </r>
       <r>    0.1341    1.0000 </r>
       <r>    0.4248    1.0000 </r>
       <r>    0.7475    1.0000 </r>
       <r>    1.2150    1.0000 </r>
       <r>    1.6256    1.0000 </r>
       <r>    1.8866    1.0000 </r>
       <r>    2.0295    1.0000 </r>
       <r>    2.5033    1.0000 </r>
       <r>    2.7972    1.0000 </r>
       <r>    2.9720    1.0000 </r>
       <r>    3.2567    1.0000 </r>
       <r>    3.8752    1.0000 </r>
       <r>    3.8894    1.0000 </r>
       <r>    4.1489    1.0000 </r>
       <r>    4.6231    1.0000 </r>
       <r>    4.9727    1.0000 </r>
       <r>    5.2416    1.0000 </r>
       <r>    5.4388    1.0000 </r>
       <r>    5.7314    1.0000 </r>
       <r>    6.1088    1.0000 </r>
       <r>    6.4187    1.0000 </r>
       <r>    6.5397    1.0000 </r>
       <r>    6.9293    1.0000 </r>
       <r>    7.2458    1.0000 </r>
       <r>   11.6488    0.0000 </r>
       <r>   11.8009    0.0000 </r>
       <r>   11.9541    0.0000 </r>
       <r>   12.3722    0.0000 </r>
       <r>   12.5878    0.0000 </r>
       <r>   12.8800    0.0000 </r>
       <r>   13.0881    0.0000 </r>
       <r>   13.4985    0.0000 </r>
       <r>   13.7867    0.0000 </r>
       <r>   14.2334    0.0000 </r>
       <r>   14.3444    0.0000 </r>
       <r>   14.5506    0.0000 </r>
      </set>
      <set comment="kpoint 11">
       <r>   -9.3509    1.0000 </r>
       <r>   -7.7681    1.0000 </r>
       <r>   -7.7346    1.0000 </r>
       <r>   -7.3406    1.0000 </r>
       <r>   -4.7062    1.0000 </r>
       <r>   -3.3166    1.0000 </r>
       <r>   -3.0846    1.0000 </r>
       <r>   -2.1712    1.0000 </r>
       <r>   -0.8323    1.0000 </r>
       <r>    0.0141    1.0000 </r>
       <r>    0.1819    1.0000 </r>
       <r>    1.0520    1.0000 </r>
       <r>    1.5200    1.0000 </r>
       <r>    1.6465    1.0000 </r>
       <r>    1.9656    1.0000 </r>
       <r>    2.4570    1.0000 </r>
       <r>    2.6153    1.0000 </r>
       <r>    3.1783    1.0000 </r>
       <r>    3.4326    1.0000 </r>
       <r>    3.7829    1.0000 </r>
       <r>    4.0870    1.0000 </r>
       <r>    4.3163    1.0000 </r>
       <r>    4.6774    1.0000 </r>
       <r>    4.8995    1.0000 </r>
       <r>    5.2905    1.0000 </r>
       <r>    5.5345    1.0000 </r>
       <r>    5.8656    1.0000 </r>
       <r>    6.2080    1.0000 </r>
       <r>    6.4111    1.0000 </r>
       <r>    6.9272    1.0000 </r>
       <r>    7.2837    1.0000 </r>
       <r>    7.8612    1.0000 </r>
       <r>   11.0742    0.0000 </r>
       <r>   11.4395    0.0000 </r>
       <r>   12.0615    0.0000 </r>
       <r>   12.3384    0.0000 </r>
       <r>   12.5627    0.0000 </r>
       <r>   12.8435    0.0000 </r>
       <r>   12.9646    0.0000 </r>
       <r>   13.5926    0.0000 </r>
       <r>   14.0608    0.0000 </r>
       <r>   14.4151    0.0000 </r>
       <r>   14.6013    0.0000 </r>
       <r>   15.0661    0.0000 </r>
      </set>
      <set comment="kpoint 12">
       <r>   -9.1766    1.0000 </r>
       <r>   -8.1012    1.0000 </r>
       <r>   -7.6656    1.0000 </r>
       <r>   -7.2791    1.0000 </r>
       <r>   -4.6085    1.0000 </r>
       <r>   -3.7008    1.0000 </r>
       <r>   -3.0415    1.0000 </r>
       <r>   -2.2484    1.0000 </r>
       <r>   -0.6478    1.0000 </r>
       <r>   -0.0127    1.0000 </r>
       <r>    0.3272    1.0000 </r>
       <r>    1.0398    1.0000 </r>
       <r>    1.4527    1.0000 </r>
       <r>    1.8762    1.0000 </r>
       <r>    1.9609    1.0000 </r>
       <r>    2.3062    1.0000 </r>
       <r>    2.9192    1.0000 </r>
       <r>    3.0736    1.0000 </r>
       <r>    3.4575    1.0000 </r>
       <r>    3.9541    1.0000 </r>
       <r>    4.2176    1.0000 </r>
       <r>    4.4671    1.0000 </r>
       <r>    4.7394    1.0000 </r>
       <r>    4.9819    1.0000 </r>
       <r>    5.2678    1.0000 </r>
       <r>    5.4492    1.0000 </r>
       <r>    5.6994    1.0000 </r>
       <r>    6.1371    1.0000 </r>
       <r>    6.3214    1.0000 </r>
       <r>    7.0906    1.0000 </r>
       <r>    7.3039    1.0000 </r>
       <r>    7.7929    1.0000 </r>
       <r>   10.8061    0.0000 </r>
       <r>   11.3987    0.0000 </r>
       <r>   11.8646    0.0000 </r>
       <r>   12.0968    0.0000 </r>
       <r>   12.4093    0.0000 </r>
       <r>   12.8238    0.0000 </r>
       <r>   13.1922    0.0000 </r>
       <r>   13.4971    0.0000 </r>
       <r>   13.8566    0.0000 </r>
       <r>   14.3679    0.0000 </r>
       <r>   14.6008    0.0000 </r>
       <r>   14.9719    0.0000 </r>
      </set>
      <set comment="kpoint 13">
       <r>   -8.7935    1.0000 </r>
       <r>   -8.5927    1.0000 </r>
       <r>   -7.5802    1.0000 </r>
       <r>   -7.2870    1.0000 </r>
       <r>   -4.4361    1.0000 </r>
       <r>   -4.0385    1.0000 </r>
       <r>   -3.0449    1.0000 </r>
       <r>   -2.3829    1.0000 </r>
       <r>   -0.4015    1.0000 </r>
       <r>   -0.2386    1.0000 </r>
       <r>    0.6013    1.0000 </r>
       <r>    1.1543    1.0000 </r>
       <r>    1.3737    1.0000 </r>
       <r>    1.6018    1.0000 </r>
       <r>    2.1064    1.0000 </r>
       <r>    2.5852    1.0000 </r>
       <r>    2.9679    1.0000 </r>
       <r>    3.4044    1.0000 </r>
       <r>    3.6149    1.0000 </r>
       <r>    3.9278    1.0000 </r>
       <r>    4.0655    1.0000 </r>
       <r>    4.5946    1.0000 </r>
       <r>    4.7252    1.0000 </r>
       <r>    4.8770    1.0000 </r>
       <r>    5.0773    1.0000 </r>
       <r>    5.3450    1.0000 </r>
       <r>    5.7709    1.0000 </r>
       <r>    6.1518    1.0000 </r>
       <r>    6.6860    1.0000 </r>
       <r>    6.9585    1.0000 </r>
       <r>    7.3323    1.0000 </r>
       <r>    7.7401    1.0000 </r>
       <r>   10.4892    0.0000 </r>
       <r>   11.0256    0.0000 </r>
       <r>   11.6867    0.0000 </r>
       <r>   12.0453    0.0000 </r>
       <r>   12.6480    0.0000 </r>
       <r>   12.8588    0.0000 </r>
       <r>   13.1776    0.0000 </r>
       <r>   13.7383    0.0000 </r>
       <r>   13.8370    0.0000 </r>
       <r>   14.1348    0.0000 </r>
       <r>   14.4340    0.0000 </r>
       <r>   14.5464    0.0000 </r>
      </set>
      <set comment="kpoint 14">
       <r>   -9.1788    1.0000 </r>
       <r>   -8.0864    1.0000 </r>
       <r>   -7.6727    1.0000 </r>
       <r>   -7.2865    1.0000 </r>
       <r>   -4.6578    1.0000 </r>
       <r>   -3.5641    1.0000 </r>
       <r>   -3.1095    1.0000 </r>
       <r>   -2.2526    1.0000 </r>
       <r>   -0.5879    1.0000 </r>
       <r>   -0.1685    1.0000 </r>
       <r>    0.3856    1.0000 </r>
       <r>    1.0440    1.0000 </r>
       <r>    1.3250    1.0000 </r>
       <r>    1.7984    1.0000 </r>
       <r>    2.1118    1.0000 </r>
       <r>    2.3749    1.0000 </r>
       <r>    2.8850    1.0000 </r>
       <r>    3.3105    1.0000 </r>
       <r>    3.6257    1.0000 </r>
       <r>    3.8653    1.0000 </r>
       <r>    4.0098    1.0000 </r>
       <r>    4.5011    1.0000 </r>
       <r>    4.6020    1.0000 </r>
       <r>    4.8368    1.0000 </r>
       <r>    5.1682    1.0000 </r>
       <r>    5.4879    1.0000 </r>
       <r>    5.8222    1.0000 </r>
       <r>    6.1597    1.0000 </r>
       <r>    6.5670    1.0000 </r>
       <r>    7.0635    1.0000 </r>
       <r>    7.1299    1.0000 </r>
       <r>    7.8504    1.0000 </r>
       <r>   10.8432    0.0000 </r>
       <r>   11.4106    0.0000 </r>
       <r>   11.8490    0.0000 </r>
       <r>   12.2004    0.0000 </r>
       <r>   12.4207    0.0000 </r>
       <r>   12.7196    0.0000 </r>
       <r>   13.0936    0.0000 </r>
       <r>   13.5422    0.0000 </r>
       <r>   13.9469    0.0000 </r>
       <r>   14.1936    0.0000 </r>
       <r>   14.6303    0.0000 </r>
       <r>   15.0890    0.0000 </r>
      </set>
      <set comment="kpoint 15">
       <r>   -9.1518    1.0000 </r>
       <r>   -8.2163    1.0000 </r>
       <r>   -7.6197    1.0000 </r>
       <r>   -7.2801    1.0000 </r>
       <r>   -4.7843    1.0000 </r>
       <r>   -3.3484    1.0000 </r>
       <r>   -3.0355    1.0000 </r>
       <r>   -2.2768    1.0000 </r>
       <r>   -0.7103    1.0000 </r>
       <r>   -0.0704    1.0000 </r>
       <r>    0.7529    1.0000 </r>
       <r>    1.2496    1.0000 </r>
       <r>    1.4235    1.0000 </r>
       <r>    2.0273    1.0000 </r>
       <r>    2.2099    1.0000 </r>
       <r>    2.5694    1.0000 </r>
       <r>    2.7974    1.0000 </r>
       <r>    3.0325    1.0000 </r>
       <r>    3.4093    1.0000 </r>
       <r>    3.5914    1.0000 </r>
       <r>    4.1056    1.0000 </r>
       <r>    4.1919    1.0000 </r>
       <r>    4.4136    1.0000 </r>
       <r>    4.6500    1.0000 </r>
       <r>    4.9348    1.0000 </r>
       <r>    5.2822    1.0000 </r>
       <r>    5.6906    1.0000 </r>
       <r>    5.9651    1.0000 </r>
       <r>    6.3677    1.0000 </r>
       <r>    6.6484    1.0000 </r>
       <r>    7.2399    1.0000 </r>
       <r>    7.6257    1.0000 </r>
       <r>   10.8126    0.0000 </r>
       <r>   11.8552    0.0000 </r>
       <r>   12.4669    0.0000 </r>
       <r>   12.8079    0.0000 </r>
       <r>   12.8653    0.0000 </r>
       <r>   13.1981    0.0000 </r>
       <r>   13.3686    0.0000 </r>
       <r>   13.8169    0.0000 </r>
       <r>   13.9908    0.0000 </r>
       <r>   14.2916    0.0000 </r>
       <r>   14.6066    0.0000 </r>
       <r>   14.7212    0.0000 </r>
      </set>
      <set comment="kpoint 16">
       <r>   -8.9879    1.0000 </r>
       <r>   -8.2388    1.0000 </r>
       <r>   -7.7261    1.0000 </r>
       <r>   -7.3543    1.0000 </r>
       <r>   -4.7386    1.0000 </r>
       <r>   -3.6231    1.0000 </r>
       <r>   -3.1147    1.0000 </r>
       <r>   -2.4039    1.0000 </r>
       <r>   -0.3982    1.0000 </r>
       <r>    0.1746    1.0000 </r>
       <r>    0.9877    1.0000 </r>
       <r>    1.2272    1.0000 </r>
       <r>    1.5975    1.0000 </r>
       <r>    1.8617    1.0000 </r>
       <r>    2.2865    1.0000 </r>
       <r>    2.5708    1.0000 </r>
       <r>    2.7634    1.0000 </r>
       <r>    3.1283    1.0000 </r>
       <r>    3.2225    1.0000 </r>
       <r>    3.6389    1.0000 </r>
       <r>    3.8322    1.0000 </r>
       <r>    4.2118    1.0000 </r>
       <r>    4.4997    1.0000 </r>
       <r>    4.7693    1.0000 </r>
       <r>    5.0147    1.0000 </r>
       <r>    5.2838    1.0000 </r>
       <r>    5.7077    1.0000 </r>
       <r>    6.0123    1.0000 </r>
       <r>    6.2443    1.0000 </r>
       <r>    6.8355    1.0000 </r>
       <r>    7.2511    1.0000 </r>
       <r>    7.4755    1.0000 </r>
       <r>   11.2621    0.0000 </r>
       <r>   11.5253    0.0000 </r>
       <r>   12.1061    0.0000 </r>
       <r>   12.2434    0.0000 </r>
       <r>   12.4982    0.0000 </r>
       <r>   12.7900    0.0000 </r>
       <r>   13.6101    0.0000 </r>
       <r>   13.8517    0.0000 </r>
       <r>   14.1019    0.0000 </r>
       <r>   14.4693    0.0000 </r>
       <r>   14.7183    0.0000 </r>
       <r>   14.9460    0.0000 </r>
      </set>
      <set comment="kpoint 17">
       <r>   -8.6337    1.0000 </r>
       <r>   -8.4946    1.0000 </r>
       <r>   -7.8140    1.0000 </r>
       <r>   -7.4055    1.0000 </r>
       <r>   -4.5366    1.0000 </r>
       <r>   -4.0895    1.0000 </r>
       <r>   -3.0986    1.0000 </r>
       <r>   -2.5649    1.0000 </r>
       <r>    0.0148    1.0000 </r>
       <r>    0.5734    1.0000 </r>
       <r>    0.8801    1.0000 </r>
       <r>    1.3821    1.0000 </r>
       <r>    1.6048    1.0000 </r>
       <r>    1.7582    1.0000 </r>
       <r>    2.2045    1.0000 </r>
       <r>    2.4641    1.0000 </r>
       <r>    2.7075    1.0000 </r>
       <r>    3.2013    1.0000 </r>
       <r>    3.3961    1.0000 </r>
       <r>    3.5705    1.0000 </r>
       <r>    3.9164    1.0000 </r>
       <r>    4.3518    1.0000 </r>
       <r>    4.4677    1.0000 </r>
       <r>    4.7575    1.0000 </r>
       <r>    5.1030    1.0000 </r>
       <r>    5.2809    1.0000 </r>
       <r>    5.7201    1.0000 </r>
       <r>    5.9206    1.0000 </r>
       <r>    6.4427    1.0000 </r>
       <r>    6.7315    1.0000 </r>
       <r>    7.0596    1.0000 </r>
       <r>    7.1927    1.0000 </r>
       <r>   11.5839    0.0000 </r>
       <r>   11.9031    0.0000 </r>
       <r>   12.0952    0.0000 </r>
       <r>   12.1925    0.0000 </r>
       <r>   12.4277    0.0000 </r>
       <r>   12.9396    0.0000 </r>
       <r>   13.0320    0.0000 </r>
       <r>   13.2753    0.0000 </r>
       <r>   14.1275    0.0000 </r>
       <r>   14.3480    0.0000 </r>
       <r>   14.6130    0.0000 </r>
       <r>   15.0279    0.0000 </r>
      </set>
      <set comment="kpoint 18">
       <r>   -8.9925    1.0000 </r>
       <r>   -8.1747    1.0000 </r>
       <r>   -7.8499    1.0000 </r>
       <r>   -7.2867    1.0000 </r>
       <r>   -4.7251    1.0000 </r>
       <r>   -3.6498    1.0000 </r>
       <r>   -3.1132    1.0000 </r>
       <r>   -2.4131    1.0000 </r>
       <r>   -0.3632    1.0000 </r>
       <r>    0.2044    1.0000 </r>
       <r>    0.8484    1.0000 </r>
       <r>    1.2363    1.0000 </r>
       <r>    1.6915    1.0000 </r>
       <r>    2.0479    1.0000 </r>
       <r>    2.1332    1.0000 </r>
       <r>    2.5715    1.0000 </r>
       <r>    2.8668    1.0000 </r>
       <r>    3.0711    1.0000 </r>
       <r>    3.2128    1.0000 </r>
       <r>    3.5547    1.0000 </r>
       <r>    3.8705    1.0000 </r>
       <r>    4.1255    1.0000 </r>
       <r>    4.3770    1.0000 </r>
       <r>    4.7468    1.0000 </r>
       <r>    5.0822    1.0000 </r>
       <r>    5.2482    1.0000 </r>
       <r>    5.7955    1.0000 </r>
       <r>    6.0415    1.0000 </r>
       <r>    6.4615    1.0000 </r>
       <r>    6.6959    1.0000 </r>
       <r>    7.2510    1.0000 </r>
       <r>    7.4692    1.0000 </r>
       <r>   11.2713    0.0000 </r>
       <r>   11.5544    0.0000 </r>
       <r>   12.0859    0.0000 </r>
       <r>   12.3113    0.0000 </r>
       <r>   12.4610    0.0000 </r>
       <r>   12.6635    0.0000 </r>
       <r>   13.5582    0.0000 </r>
       <r>   13.9119    0.0000 </r>
       <r>   14.1284    0.0000 </r>
       <r>   14.4652    0.0000 </r>
       <r>   14.7933    0.0000 </r>
       <r>   15.0202    0.0000 </r>
      </set>
      <set comment="kpoint 19">
       <r>   -8.9183    1.0000 </r>
       <r>   -8.5960    1.0000 </r>
       <r>   -7.4963    1.0000 </r>
       <r>   -7.3403    1.0000 </r>
       <r>   -4.4272    1.0000 </r>
       <r>   -3.5966    1.0000 </r>
       <r>   -2.8908    1.0000 </r>
       <r>   -2.4933    1.0000 </r>
       <r>   -0.7524    1.0000 </r>
       <r>   -0.1284    1.0000 </r>
       <r>    0.9477    1.0000 </r>
       <r>    1.1685    1.0000 </r>
       <r>    1.3291    1.0000 </r>
       <r>    1.7337    1.0000 </r>
       <r>    2.3310    1.0000 </r>
       <r>    2.4612    1.0000 </r>
       <r>    2.7212    1.0000 </r>
       <r>    3.1159    1.0000 </r>
       <r>    3.4390    1.0000 </r>
       <r>    3.6060    1.0000 </r>
       <r>    4.0872    1.0000 </r>
       <r>    4.1832    1.0000 </r>
       <r>    4.6000    1.0000 </r>
       <r>    5.0939    1.0000 </r>
       <r>    5.1776    1.0000 </r>
       <r>    5.5709    1.0000 </r>
       <r>    5.6009    1.0000 </r>
       <r>    6.1535    1.0000 </r>
       <r>    6.5184    1.0000 </r>
       <r>    6.7651    1.0000 </r>
       <r>    6.9040    1.0000 </r>
       <r>    7.2600    1.0000 </r>
       <r>   10.9202    0.0000 </r>
       <r>   11.1263    0.0000 </r>
       <r>   12.0079    0.0000 </r>
       <r>   12.4272    0.0000 </r>
       <r>   12.6958    0.0000 </r>
       <r>   13.3859    0.0000 </r>
       <r>   13.5076    0.0000 </r>
       <r>   13.8252    0.0000 </r>
       <r>   14.0343    0.0000 </r>
       <r>   14.5420    0.0000 </r>
       <r>   14.6876    0.0000 </r>
       <r>   15.0248    0.0000 </r>
      </set>
      <set comment="kpoint 20">
       <r>   -8.7661    1.0000 </r>
       <r>   -8.4991    1.0000 </r>
       <r>   -7.7295    1.0000 </r>
       <r>   -7.4240    1.0000 </r>
       <r>   -4.4309    1.0000 </r>
       <r>   -3.5999    1.0000 </r>
       <r>   -3.0412    1.0000 </r>
       <r>   -2.7072    1.0000 </r>
       <r>   -0.2570    1.0000 </r>
       <r>   -0.0216    1.0000 </r>
       <r>    0.7756    1.0000 </r>
       <r>    1.0615    1.0000 </r>
       <r>    1.4644    1.0000 </r>
       <r>    1.8038    1.0000 </r>
       <r>    2.2784    1.0000 </r>
       <r>    2.6493    1.0000 </r>
       <r>    2.8714    1.0000 </r>
       <r>    3.0039    1.0000 </r>
       <r>    3.2905    1.0000 </r>
       <r>    3.8572    1.0000 </r>
       <r>    4.2284    1.0000 </r>
       <r>    4.3124    1.0000 </r>
       <r>    4.7430    1.0000 </r>
       <r>    5.0175    1.0000 </r>
       <r>    5.2634    1.0000 </r>
       <r>    5.3495    1.0000 </r>
       <r>    5.5892    1.0000 </r>
       <r>    6.0389    1.0000 </r>
       <r>    6.3872    1.0000 </r>
       <r>    6.6568    1.0000 </r>
       <r>    7.0174    1.0000 </r>
       <r>    7.1586    1.0000 </r>
       <r>   11.1737    0.0000 </r>
       <r>   11.3799    0.0000 </r>
       <r>   11.6389    0.0000 </r>
       <r>   12.1206    0.0000 </r>
       <r>   12.5853    0.0000 </r>
       <r>   12.8856    0.0000 </r>
       <r>   13.2977    0.0000 </r>
       <r>   13.7013    0.0000 </r>
       <r>   13.8357    0.0000 </r>
       <r>   14.1354    0.0000 </r>
       <r>   14.6013    0.0000 </r>
       <r>   15.0659    0.0000 </r>
      </set>
      <set comment="kpoint 21">
       <r>   -8.4576    1.0000 </r>
       <r>   -8.3997    1.0000 </r>
       <r>   -8.1071    1.0000 </r>
       <r>   -7.5275    1.0000 </r>
       <r>   -4.2338    1.0000 </r>
       <r>   -3.8795    1.0000 </r>
       <r>   -3.1456    1.0000 </r>
       <r>   -2.8343    1.0000 </r>
       <r>   -0.1754    1.0000 </r>
       <r>    0.3904    1.0000 </r>
       <r>    0.7701    1.0000 </r>
       <r>    1.2259    1.0000 </r>
       <r>    1.4286    1.0000 </r>
       <r>    2.0278    1.0000 </r>
       <r>    2.2078    1.0000 </r>
       <r>    2.4934    1.0000 </r>
       <r>    2.7991    1.0000 </r>
       <r>    3.0429    1.0000 </r>
       <r>    3.5496    1.0000 </r>
       <r>    3.8676    1.0000 </r>
       <r>    4.0178    1.0000 </r>
       <r>    4.3648    1.0000 </r>
       <r>    4.7982    1.0000 </r>
       <r>    5.0572    1.0000 </r>
       <r>    5.2274    1.0000 </r>
       <r>    5.4449    1.0000 </r>
       <r>    5.7086    1.0000 </r>
       <r>    6.1240    1.0000 </r>
       <r>    6.2764    1.0000 </r>
       <r>    6.4936    1.0000 </r>
       <r>    6.8821    1.0000 </r>
       <r>    7.1959    1.0000 </r>
       <r>   10.9758    0.0000 </r>
       <r>   11.2879    0.0000 </r>
       <r>   11.7865    0.0000 </r>
       <r>   12.0532    0.0000 </r>
       <r>   12.4871    0.0000 </r>
       <r>   12.7097    0.0000 </r>
       <r>   12.9448    0.0000 </r>
       <r>   13.2667    0.0000 </r>
       <r>   13.8758    0.0000 </r>
       <r>   14.2068    0.0000 </r>
       <r>   14.5620    0.0000 </r>
       <r>   14.9124    0.0000 </r>
      </set>
      <set comment="kpoint 22">
       <r>   -8.7558    1.0000 </r>
       <r>   -8.5079    1.0000 </r>
       <r>   -7.7574    1.0000 </r>
       <r>   -7.3979    1.0000 </r>
       <r>   -4.3483    1.0000 </r>
       <r>   -3.7036    1.0000 </r>
       <r>   -3.1125    1.0000 </r>
       <r>   -2.6340    1.0000 </r>
       <r>   -0.4040    1.0000 </r>
       <r>    0.2446    1.0000 </r>
       <r>    0.7449    1.0000 </r>
       <r>    1.0842    1.0000 </r>
       <r>    1.5256    1.0000 </r>
       <r>    1.7192    1.0000 </r>
       <r>    2.3243    1.0000 </r>
       <r>    2.6202    1.0000 </r>
       <r>    2.8080    1.0000 </r>
       <r>    2.8998    1.0000 </r>
       <r>    3.2807    1.0000 </r>
       <r>    3.9274    1.0000 </r>
       <r>    4.1015    1.0000 </r>
       <r>    4.4140    1.0000 </r>
       <r>    4.7338    1.0000 </r>
       <r>    4.9122    1.0000 </r>
       <r>    5.1201    1.0000 </r>
       <r>    5.4884    1.0000 </r>
       <r>    5.8044    1.0000 </r>
       <r>    6.0917    1.0000 </r>
       <r>    6.4834    1.0000 </r>
       <r>    6.6435    1.0000 </r>
       <r>    6.8220    1.0000 </r>
       <r>    7.1833    1.0000 </r>
       <r>   11.0928    0.0000 </r>
       <r>   11.3932    0.0000 </r>
       <r>   11.5723    0.0000 </r>
       <r>   12.1838    0.0000 </r>
       <r>   12.6280    0.0000 </r>
       <r>   12.9748    0.0000 </r>
       <r>   13.3339    0.0000 </r>
       <r>   13.5376    0.0000 </r>
       <r>   13.9492    0.0000 </r>
       <r>   14.1561    0.0000 </r>
       <r>   14.6163    0.0000 </r>
       <r>   14.8906    0.0000 </r>
      </set>
      <set comment="kpoint 23">
       <r>   -9.2544    1.0000 </r>
       <r>   -8.1241    1.0000 </r>
       <r>   -7.5884    1.0000 </r>
       <r>   -7.3131    1.0000 </r>
       <r>   -4.2633    1.0000 </r>
       <r>   -3.6827    1.0000 </r>
       <r>   -2.8964    1.0000 </r>
       <r>   -2.4232    1.0000 </r>
       <r>   -0.8722    1.0000 </r>
       <r>   -0.1412    1.0000 </r>
       <r>    0.4342    1.0000 </r>
       <r>    0.9953    1.0000 </r>
       <r>    1.4283    1.0000 </r>
       <r>    1.5523    1.0000 </r>
       <r>    1.9417    1.0000 </r>
       <r>    2.3267    1.0000 </r>
       <r>    2.8253    1.0000 </r>
       <r>    3.1264    1.0000 </r>
       <r>    3.4368    1.0000 </r>
       <r>    3.8386    1.0000 </r>
       <r>    3.9854    1.0000 </r>
       <r>    4.4625    1.0000 </r>
       <r>    4.6809    1.0000 </r>
       <r>    4.7955    1.0000 </r>
       <r>    5.7690    1.0000 </r>
       <r>    6.0101    1.0000 </r>
       <r>    6.0954    1.0000 </r>
       <r>    6.1343    1.0000 </r>
       <r>    6.5351    1.0000 </r>
       <r>    7.0011    1.0000 </r>
       <r>    7.2473    1.0000 </r>
       <r>    7.5112    1.0000 </r>
       <r>   10.4829    0.0000 </r>
       <r>   11.2127    0.0000 </r>
       <r>   11.6756    0.0000 </r>
       <r>   11.9963    0.0000 </r>
       <r>   12.1097    0.0000 </r>
       <r>   12.5850    0.0000 </r>
       <r>   13.3519    0.0000 </r>
       <r>   13.7752    0.0000 </r>
       <r>   14.1802    0.0000 </r>
       <r>   14.4989    0.0000 </r>
       <r>   14.9065    0.0000 </r>
       <r>   15.4134    0.0000 </r>
      </set>
      <set comment="kpoint 24">
       <r>   -9.0842    1.0000 </r>
       <r>   -8.1375    1.0000 </r>
       <r>   -7.8219    1.0000 </r>
       <r>   -7.2948    1.0000 </r>
       <r>   -4.1655    1.0000 </r>
       <r>   -3.8219    1.0000 </r>
       <r>   -2.9899    1.0000 </r>
       <r>   -2.5212    1.0000 </r>
       <r>   -0.5981    1.0000 </r>
       <r>   -0.2650    1.0000 </r>
       <r>    0.3841    1.0000 </r>
       <r>    1.0441    1.0000 </r>
       <r>    1.2837    1.0000 </r>
       <r>    1.5386    1.0000 </r>
       <r>    1.9667    1.0000 </r>
       <r>    2.5020    1.0000 </r>
       <r>    3.0570    1.0000 </r>
       <r>    3.2356    1.0000 </r>
       <r>    3.6033    1.0000 </r>
       <r>    3.7717    1.0000 </r>
       <r>    4.2411    1.0000 </r>
       <r>    4.5900    1.0000 </r>
       <r>    4.8681    1.0000 </r>
       <r>    5.1686    1.0000 </r>
       <r>    5.5549    1.0000 </r>
       <r>    5.7522    1.0000 </r>
       <r>    5.8684    1.0000 </r>
       <r>    6.1242    1.0000 </r>
       <r>    6.4022    1.0000 </r>
       <r>    6.9325    1.0000 </r>
       <r>    7.1558    1.0000 </r>
       <r>    7.5055    1.0000 </r>
       <r>   10.5843    0.0000 </r>
       <r>   10.9922    0.0000 </r>
       <r>   11.5121    0.0000 </r>
       <r>   12.0125    0.0000 </r>
       <r>   12.3934    0.0000 </r>
       <r>   12.5687    0.0000 </r>
       <r>   12.7550    0.0000 </r>
       <r>   13.6009    0.0000 </r>
       <r>   13.9007    0.0000 </r>
       <r>   14.2291    0.0000 </r>
       <r>   14.5861    0.0000 </r>
       <r>   15.0398    0.0000 </r>
      </set>
      <set comment="kpoint 25">
       <r>   -8.6940    1.0000 </r>
       <r>   -8.5477    1.0000 </r>
       <r>   -7.7659    1.0000 </r>
       <r>   -7.3955    1.0000 </r>
       <r>   -4.0999    1.0000 </r>
       <r>   -3.8357    1.0000 </r>
       <r>   -3.0527    1.0000 </r>
       <r>   -2.7049    1.0000 </r>
       <r>   -0.7037    1.0000 </r>
       <r>   -0.2852    1.0000 </r>
       <r>    0.4986    1.0000 </r>
       <r>    1.0425    1.0000 </r>
       <r>    1.5164    1.0000 </r>
       <r>    1.6878    1.0000 </r>
       <r>    2.1842    1.0000 </r>
       <r>    2.6414    1.0000 </r>
       <r>    2.8082    1.0000 </r>
       <r>    3.1722    1.0000 </r>
       <r>    3.6501    1.0000 </r>
       <r>    4.0178    1.0000 </r>
       <r>    4.2683    1.0000 </r>
       <r>    4.7069    1.0000 </r>
       <r>    4.9158    1.0000 </r>
       <r>    5.1135    1.0000 </r>
       <r>    5.3705    1.0000 </r>
       <r>    5.5635    1.0000 </r>
       <r>    6.0138    1.0000 </r>
       <r>    6.1417    1.0000 </r>
       <r>    6.6235    1.0000 </r>
       <r>    6.9227    1.0000 </r>
       <r>    7.3305    1.0000 </r>
       <r>    7.4566    1.0000 </r>
       <r>   10.2829    0.0000 </r>
       <r>   10.7315    0.0000 </r>
       <r>   11.1866    0.0000 </r>
       <r>   11.6131    0.0000 </r>
       <r>   11.9476    0.0000 </r>
       <r>   12.3528    0.0000 </r>
       <r>   12.8736    0.0000 </r>
       <r>   13.6165    0.0000 </r>
       <r>   14.0024    0.0000 </r>
       <r>   14.3419    0.0000 </r>
       <r>   14.6036    0.0000 </r>
       <r>   14.9147    0.0000 </r>
      </set>
      <set comment="kpoint 26">
       <r>   -9.0819    1.0000 </r>
       <r>   -8.1794    1.0000 </r>
       <r>   -7.7374    1.0000 </r>
       <r>   -7.3446    1.0000 </r>
       <r>   -4.2342    1.0000 </r>
       <r>   -3.6680    1.0000 </r>
       <r>   -3.0570    1.0000 </r>
       <r>   -2.5436    1.0000 </r>
       <r>   -0.6549    1.0000 </r>
       <r>   -0.2028    1.0000 </r>
       <r>    0.5416    1.0000 </r>
       <r>    0.7447    1.0000 </r>
       <r>    1.4449    1.0000 </r>
       <r>    1.5847    1.0000 </r>
       <r>    1.9295    1.0000 </r>
       <r>    2.4783    1.0000 </r>
       <r>    2.9158    1.0000 </r>
       <r>    3.4157    1.0000 </r>
       <r>    3.4834    1.0000 </r>
       <r>    3.8615    1.0000 </r>
       <r>    4.3019    1.0000 </r>
       <r>    4.6369    1.0000 </r>
       <r>    4.8199    1.0000 </r>
       <r>    5.1029    1.0000 </r>
       <r>    5.4500    1.0000 </r>
       <r>    5.7221    1.0000 </r>
       <r>    5.9846    1.0000 </r>
       <r>    6.1259    1.0000 </r>
       <r>    6.4894    1.0000 </r>
       <r>    6.8895    1.0000 </r>
       <r>    7.1230    1.0000 </r>
       <r>    7.5036    1.0000 </r>
       <r>   10.6532    0.0000 </r>
       <r>   11.0103    0.0000 </r>
       <r>   11.4920    0.0000 </r>
       <r>   11.8759    0.0000 </r>
       <r>   12.1304    0.0000 </r>
       <r>   12.6319    0.0000 </r>
       <r>   12.9665    0.0000 </r>
       <r>   13.4959    0.0000 </r>
       <r>   14.0347    0.0000 </r>
       <r>   14.4672    0.0000 </r>
       <r>   14.7710    0.0000 </r>
       <r>   15.3421    0.0000 </r>
      </set>
      <set comment="kpoint 27">
       <r>   -9.2658    1.0000 </r>
       <r>   -7.8261    1.0000 </r>
       <r>   -7.7569    1.0000 </r>
       <r>   -7.3350    1.0000 </r>
       <r>   -4.9996    1.0000 </r>
       <r>   -3.3545    1.0000 </r>
       <r>   -3.1156    1.0000 </r>
       <r>   -2.0516    1.0000 </r>
       <r>   -0.7131    1.0000 </r>
       <r>    0.2164    1.0000 </r>
       <r>    0.5805    1.0000 </r>
       <r>    1.2215    1.0000 </r>
       <r>    1.3541    1.0000 </r>
       <r>    1.9597    1.0000 </r>
       <r>    2.0987    1.0000 </r>
       <r>    2.4537    1.0000 </r>
       <r>    2.8743    1.0000 </r>
       <r>    3.3988    1.0000 </r>
       <r>    3.6143    1.0000 </r>
       <r>    3.6752    1.0000 </r>
       <r>    3.9518    1.0000 </r>
       <r>    4.2133    1.0000 </r>
       <r>    4.3978    1.0000 </r>
       <r>    4.6141    1.0000 </r>
       <r>    4.8559    1.0000 </r>
       <r>    5.2880    1.0000 </r>
       <r>    5.4354    1.0000 </r>
       <r>    5.7201    1.0000 </r>
       <r>    6.2031    1.0000 </r>
       <r>    6.9264    1.0000 </r>
       <r>    7.2456    1.0000 </r>
       <r>    7.7237    1.0000 </r>
       <r>   11.3965    0.0000 </r>
       <r>   11.6506    0.0000 </r>
       <r>   11.9370    0.0000 </r>
       <r>   12.7532    0.0000 </r>
       <r>   12.8160    0.0000 </r>
       <r>   13.3948    0.0000 </r>
       <r>   13.7315    0.0000 </r>
       <r>   13.9521    0.0000 </r>
       <r>   14.1209    0.0000 </r>
       <r>   14.3525    0.0000 </r>
       <r>   14.4526    0.0000 </r>
       <r>   14.7976    0.0000 </r>
      </set>
      <set comment="kpoint 28">
       <r>   -9.0993    1.0000 </r>
       <r>   -8.0839    1.0000 </r>
       <r>   -7.7118    1.0000 </r>
       <r>   -7.2964    1.0000 </r>
       <r>   -4.9236    1.0000 </r>
       <r>   -3.6829    1.0000 </r>
       <r>   -3.2476    1.0000 </r>
       <r>   -2.2292    1.0000 </r>
       <r>   -0.3772    1.0000 </r>
       <r>    0.4271    1.0000 </r>
       <r>    0.6544    1.0000 </r>
       <r>    1.3680    1.0000 </r>
       <r>    1.7029    1.0000 </r>
       <r>    2.1175    1.0000 </r>
       <r>    2.3207    1.0000 </r>
       <r>    2.4848    1.0000 </r>
       <r>    2.8616    1.0000 </r>
       <r>    3.3476    1.0000 </r>
       <r>    3.4565    1.0000 </r>
       <r>    3.5034    1.0000 </r>
       <r>    3.7443    1.0000 </r>
       <r>    3.9845    1.0000 </r>
       <r>    4.2339    1.0000 </r>
       <r>    4.4919    1.0000 </r>
       <r>    4.8203    1.0000 </r>
       <r>    5.1747    1.0000 </r>
       <r>    5.3969    1.0000 </r>
       <r>    6.0911    1.0000 </r>
       <r>    6.3988    1.0000 </r>
       <r>    7.1540    1.0000 </r>
       <r>    7.2882    1.0000 </r>
       <r>    7.7187    1.0000 </r>
       <r>   11.1201    0.0000 </r>
       <r>   11.7389    0.0000 </r>
       <r>   11.8208    0.0000 </r>
       <r>   12.3076    0.0000 </r>
       <r>   12.7154    0.0000 </r>
       <r>   13.0170    0.0000 </r>
       <r>   13.4719    0.0000 </r>
       <r>   13.7897    0.0000 </r>
       <r>   14.0477    0.0000 </r>
       <r>   14.4102    0.0000 </r>
       <r>   14.6139    0.0000 </r>
       <r>   14.9507    0.0000 </r>
      </set>
      <set comment="kpoint 29">
       <r>   -8.7326    1.0000 </r>
       <r>   -8.5428    1.0000 </r>
       <r>   -7.6269    1.0000 </r>
       <r>   -7.2977    1.0000 </r>
       <r>   -4.6836    1.0000 </r>
       <r>   -4.2441    1.0000 </r>
       <r>   -3.2020    1.0000 </r>
       <r>   -2.4607    1.0000 </r>
       <r>   -0.0052    1.0000 </r>
       <r>    0.6380    1.0000 </r>
       <r>    0.8087    1.0000 </r>
       <r>    1.5729    1.0000 </r>
       <r>    1.8668    1.0000 </r>
       <r>    2.1348    1.0000 </r>
       <r>    2.3854    1.0000 </r>
       <r>    2.4939    1.0000 </r>
       <r>    2.8349    1.0000 </r>
       <r>    3.1284    1.0000 </r>
       <r>    3.2926    1.0000 </r>
       <r>    3.6659    1.0000 </r>
       <r>    3.7928    1.0000 </r>
       <r>    3.9065    1.0000 </r>
       <r>    4.2469    1.0000 </r>
       <r>    4.4398    1.0000 </r>
       <r>    4.7970    1.0000 </r>
       <r>    5.0319    1.0000 </r>
       <r>    5.3886    1.0000 </r>
       <r>    5.9921    1.0000 </r>
       <r>    6.6660    1.0000 </r>
       <r>    6.9452    1.0000 </r>
       <r>    7.2819    1.0000 </r>
       <r>    7.7674    1.0000 </r>
       <r>   11.0676    0.0000 </r>
       <r>   11.6494    0.0000 </r>
       <r>   12.1305    0.0000 </r>
       <r>   12.4516    0.0000 </r>
       <r>   12.7427    0.0000 </r>
       <r>   12.9858    0.0000 </r>
       <r>   13.1314    0.0000 </r>
       <r>   13.4136    0.0000 </r>
       <r>   13.9020    0.0000 </r>
       <r>   14.2079    0.0000 </r>
       <r>   14.6455    0.0000 </r>
       <r>   14.9726    0.0000 </r>
      </set>
      <set comment="kpoint 30">
       <r>   -9.1491    1.0000 </r>
       <r>   -8.1880    1.0000 </r>
       <r>   -7.6360    1.0000 </r>
       <r>   -7.2967    1.0000 </r>
       <r>   -4.7599    1.0000 </r>
       <r>   -3.4552    1.0000 </r>
       <r>   -2.9439    1.0000 </r>
       <r>   -2.2889    1.0000 </r>
       <r>   -0.7827    1.0000 </r>
       <r>   -0.0726    1.0000 </r>
       <r>    0.7395    1.0000 </r>
       <r>    1.1289    1.0000 </r>
       <r>    1.3791    1.0000 </r>
       <r>    1.9898    1.0000 </r>
       <r>    2.2851    1.0000 </r>
       <r>    2.6058    1.0000 </r>
       <r>    2.7608    1.0000 </r>
       <r>    3.1081    1.0000 </r>
       <r>    3.4340    1.0000 </r>
       <r>    3.5517    1.0000 </r>
       <r>    4.0534    1.0000 </r>
       <r>    4.3035    1.0000 </r>
       <r>    4.5355    1.0000 </r>
       <r>    4.9009    1.0000 </r>
       <r>    5.2178    1.0000 </r>
       <r>    5.2686    1.0000 </r>
       <r>    5.7341    1.0000 </r>
       <r>    5.8716    1.0000 </r>
       <r>    6.3558    1.0000 </r>
       <r>    6.8426    1.0000 </r>
       <r>    7.2190    1.0000 </r>
       <r>    7.4874    1.0000 </r>
       <r>   10.7452    0.0000 </r>
       <r>   11.2100    0.0000 </r>
       <r>   11.9861    0.0000 </r>
       <r>   12.3048    0.0000 </r>
       <r>   12.6963    0.0000 </r>
       <r>   13.1629    0.0000 </r>
       <r>   13.6317    0.0000 </r>
       <r>   13.9529    0.0000 </r>
       <r>   14.1138    0.0000 </r>
       <r>   14.4487    0.0000 </r>
       <r>   14.7144    0.0000 </r>
       <r>   15.1966    0.0000 </r>
      </set>
      <set comment="kpoint 31">
       <r>   -8.9859    1.0000 </r>
       <r>   -8.2062    1.0000 </r>
       <r>   -7.7446    1.0000 </r>
       <r>   -7.3753    1.0000 </r>
       <r>   -4.7102    1.0000 </r>
       <r>   -3.5662    1.0000 </r>
       <r>   -3.1502    1.0000 </r>
       <r>   -2.5120    1.0000 </r>
       <r>   -0.2928    1.0000 </r>
       <r>    0.0122    1.0000 </r>
       <r>    0.7284    1.0000 </r>
       <r>    1.1522    1.0000 </r>
       <r>    1.6264    1.0000 </r>
       <r>    1.8595    1.0000 </r>
       <r>    2.3744    1.0000 </r>
       <r>    2.6656    1.0000 </r>
       <r>    2.9406    1.0000 </r>
       <r>    3.1058    1.0000 </r>
       <r>    3.4291    1.0000 </r>
       <r>    3.6854    1.0000 </r>
       <r>    4.0101    1.0000 </r>
       <r>    4.2796    1.0000 </r>
       <r>    4.5711    1.0000 </r>
       <r>    4.8832    1.0000 </r>
       <r>    5.0158    1.0000 </r>
       <r>    5.2092    1.0000 </r>
       <r>    5.6004    1.0000 </r>
       <r>    6.0609    1.0000 </r>
       <r>    6.2508    1.0000 </r>
       <r>    7.0067    1.0000 </r>
       <r>    7.1305    1.0000 </r>
[...]
       <r>   -3.9365    1.0000 </r>
       <r>   -3.0149    1.0000 </r>
       <r>   -2.6961    1.0000 </r>
       <r>   -0.2808    1.0000 </r>
       <r>   -0.1138    1.0000 </r>
       <r>    0.5912    1.0000 </r>
       <r>    1.1517    1.0000 </r>
       <r>    1.6561    1.0000 </r>
       <r>    1.8892    1.0000 </r>
       <r>    2.0910    1.0000 </r>
       <r>    2.5381    1.0000 </r>
       <r>    2.9345    1.0000 </r>
       <r>    3.0263    1.0000 </r>
       <r>    3.5689    1.0000 </r>
       <r>    3.7498    1.0000 </r>
       <r>    4.2978    1.0000 </r>
       <r>    4.5214    1.0000 </r>
       <r>    4.7367    1.0000 </r>
       <r>    4.9141    1.0000 </r>
       <r>    5.2961    1.0000 </r>
       <r>    5.5496    1.0000 </r>
       <r>    5.8386    1.0000 </r>
       <r>    6.0326    1.0000 </r>
       <r>    6.4518    1.0000 </r>
       <r>    6.5959    1.0000 </r>
       <r>    6.9368    1.0000 </r>
       <r>    7.1481    1.0000 </r>
       <r>   10.7980    0.0000 </r>
       <r>   11.1351    0.0000 </r>
       <r>   11.5697    0.0000 </r>
       <r>   11.8601    0.0000 </r>
       <r>   12.1842    0.0000 </r>
       <r>   12.6294    0.0000 </r>
       <r>   13.0951    0.0000 </r>
       <r>   13.5816    0.0000 </r>
       <r>   13.7883    0.0000 </r>
       <r>   14.4154    0.0000 </r>
       <r>   14.6083    0.0000 </r>
       <r>   14.9543    0.0000 </r>
      </set>
      <set comment="kpoint 36">
       <r>   -8.4433    1.0000 </r>
       <r>   -8.3650    1.0000 </r>
       <r>   -8.1524    1.0000 </r>
       <r>   -7.5334    1.0000 </r>
       <r>   -4.0953    1.0000 </r>
       <r>   -3.8446    1.0000 </r>
       <r>   -3.2582    1.0000 </r>
       <r>   -2.9748    1.0000 </r>
       <r>   -0.3510    1.0000 </r>
       <r>    0.2842    1.0000 </r>
       <r>    0.7434    1.0000 </r>
       <r>    1.2399    1.0000 </r>
       <r>    1.7616    1.0000 </r>
       <r>    1.9852    1.0000 </r>
       <r>    2.3520    1.0000 </r>
       <r>    2.5525    1.0000 </r>
       <r>    2.7357    1.0000 </r>
       <r>    2.9968    1.0000 </r>
       <r>    3.6664    1.0000 </r>
       <r>    3.9286    1.0000 </r>
       <r>    4.0763    1.0000 </r>
       <r>    4.3718    1.0000 </r>
       <r>    4.8810    1.0000 </r>
       <r>    5.0760    1.0000 </r>
       <r>    5.2228    1.0000 </r>
       <r>    5.3401    1.0000 </r>
       <r>    5.8301    1.0000 </r>
       <r>    6.2038    1.0000 </r>
       <r>    6.3197    1.0000 </r>
       <r>    6.4620    1.0000 </r>
       <r>    6.9810    1.0000 </r>
       <r>    7.2829    1.0000 </r>
       <r>   10.6339    0.0000 </r>
       <r>   11.0748    0.0000 </r>
       <r>   11.5023    0.0000 </r>
       <r>   11.6944    0.0000 </r>
       <r>   11.8566    0.0000 </r>
       <r>   12.3895    0.0000 </r>
       <r>   12.7731    0.0000 </r>
       <r>   13.1189    0.0000 </r>
       <r>   13.8296    0.0000 </r>
       <r>   14.0782    0.0000 </r>
       <r>   14.8420    0.0000 </r>
       <r>   15.3086    0.0000 </r>
      </set>
     </set>
    </set>
   </array>
  </eigenvalues>
  <separator name="orbital magnetization" >
   <v name="MAGDIPOLOUT">      0.00000000      0.00000000      0.00000000</v>
  </separator>
  <dos>
   <i name="efermi">      8.45969501 </i>
   <total>
    <array>
     <dimension dim="1">gridpoints</dimension>
     <dimension dim="2">spin</dimension>
     <field>energy</field>
     <field>total</field>
     <field>integrated</field>
     <set>
      <set comment="spin 1">
       <r>   -10.6683     0.0000     0.0000 </r>
       <r>   -10.5773     0.0000     0.0000 </r>
       <r>   -10.4862     0.0000     0.0000 </r>
       <r>   -10.3951     0.0000     0.0000 </r>
       <r>   -10.3040     0.0000     0.0000 </r>
       <r>   -10.2129     0.0000     0.0000 </r>
       <r>   -10.1219     0.0000     0.0000 </r>
       <r>   -10.0308     0.0000     0.0000 </r>
       <r>    -9.9397     0.0000     0.0000 </r>
       <r>    -9.8486     0.0000     0.0000 </r>
       <r>    -9.7575     0.0000     0.0000 </r>
       <r>    -9.6665     0.0001     0.0000 </r>
       <r>    -9.5754     0.0064     0.0006 </r>
       <r>    -9.4843     0.0860     0.0084 </r>
       <r>    -9.3932     0.3930     0.0442 </r>
       <r>    -9.3022     1.0491     0.1398 </r>
       <r>    -9.2111     2.0848     0.3297 </r>
       <r>    -9.1200     2.9508     0.5984 </r>
       <r>    -9.0289     3.1041     0.8811 </r>
       <r>    -8.9378     2.5265     1.1112 </r>
       <r>    -8.8468     1.8742     1.2819 </r>
       <r>    -8.7557     2.3363     1.4947 </r>
       <r>    -8.6646     3.1036     1.7774 </r>
       <r>    -8.5735     3.7013     2.1145 </r>
       <r>    -8.4824     4.2138     2.4983 </r>
       <r>    -8.3914     2.9698     2.7688 </r>
       <r>    -8.3003     1.5048     2.9059 </r>
       <r>    -8.2092     2.7786     3.1589 </r>
       <r>    -8.1181     4.9406     3.6089 </r>
       <r>    -8.0270     3.4497     3.9231 </r>
       <r>    -7.9360     1.1824     4.0308 </r>
       <r>    -7.8449     2.3318     4.2432 </r>
       <r>    -7.7538     5.6268     4.7557 </r>
       <r>    -7.6627     6.4208     5.3405 </r>
       <r>    -7.5716     4.6021     5.7596 </r>
       <r>    -7.4806     3.8112     6.1068 </r>
       <r>    -7.3895     5.5532     6.6125 </r>
       <r>    -7.2984     8.1743     7.3570 </r>
       <r>    -7.2073     5.6946     7.8757 </r>
       <r>    -7.1163     1.2875     7.9930 </r>
       <r>    -7.0252     0.0760     7.9999 </r>
       <r>    -6.9341     0.0010     8.0000 </r>
       <r>    -6.8430     0.0000     8.0000 </r>
       <r>    -6.7519     0.0000     8.0000 </r>
       <r>    -6.6609     0.0000     8.0000 </r>
       <r>    -6.5698     0.0000     8.0000 </r>
       <r>    -6.4787     0.0000     8.0000 </r>
       <r>    -6.3876     0.0000     8.0000 </r>
       <r>    -6.2965     0.0000     8.0000 </r>
       <r>    -6.2055     0.0000     8.0000 </r>
       <r>    -6.1144     0.0000     8.0000 </r>
       <r>    -6.0233     0.0000     8.0000 </r>
       <r>    -5.9322     0.0000     8.0000 </r>
       <r>    -5.8411     0.0000     8.0000 </r>
       <r>    -5.7501     0.0000     8.0000 </r>
       <r>    -5.6590     0.0000     8.0000 </r>
       <r>    -5.5679     0.0000     8.0000 </r>
       <r>    -5.4768     0.0000     8.0000 </r>
       <r>    -5.3858     0.0000     8.0000 </r>
       <r>    -5.2947     0.0000     8.0000 </r>
       <r>    -5.2036     0.0007     8.0001 </r>
       <r>    -5.1125     0.0208     8.0020 </r>
       <r>    -5.0214     0.1660     8.0171 </r>
       <r>    -4.9304     0.4402     8.0572 </r>
       <r>    -4.8393     0.7034     8.1212 </r>
       <r>    -4.7482     1.7372     8.2795 </r>
       <r>    -4.6571     2.6122     8.5174 </r>
       <r>    -4.5660     1.8627     8.6870 </r>
       <r>    -4.4750     1.7385     8.8454 </r>
       <r>    -4.3839     2.6370     9.0856 </r>
       <r>    -4.2928     2.9374     9.3531 </r>
       <r>    -4.2017     3.3742     9.6604 </r>
       <r>    -4.1106     3.2635     9.9576 </r>
       <r>    -4.0196     2.3201    10.1690 </r>
       <r>    -3.9285     1.6322    10.3176 </r>
       <r>    -3.8374     2.1763    10.5158 </r>
       <r>    -3.7463     2.8131    10.7720 </r>
       <r>    -3.6552     4.0531    11.1412 </r>
       <r>    -3.5642     4.1313    11.5175 </r>
       <r>    -3.4731     2.3488    11.7314 </r>
       <r>    -3.3820     1.4371    11.8623 </r>
       <r>    -3.2909     1.4646    11.9957 </r>
       <r>    -3.1999     2.2953    12.2047 </r>
       <r>    -3.1088     5.1574    12.6745 </r>
       <r>    -3.0177     6.7369    13.2881 </r>
       <r>    -2.9266     4.6198    13.7088 </r>
       <r>    -2.8355     2.5979    13.9454 </r>
       <r>    -2.7445     2.0714    14.1341 </r>
       <r>    -2.6534     2.4503    14.3573 </r>
       <r>    -2.5623     3.0886    14.6386 </r>
       <r>    -2.4712     3.9202    14.9956 </r>
       <r>    -2.3801     4.2059    15.3787 </r>
       <r>    -2.2891     3.1723    15.6676 </r>
       <r>    -2.1980     2.1507    15.8635 </r>
       <r>    -2.1069     1.0383    15.9581 </r>
       <r>    -2.0158     0.3439    15.9894 </r>
       <r>    -1.9247     0.1037    15.9988 </r>
       <r>    -1.8337     0.0123    16.0000 </r>
       <r>    -1.7426     0.0004    16.0000 </r>
       <r>    -1.6515     0.0000    16.0000 </r>
       <r>    -1.5604     0.0000    16.0000 </r>
       <r>    -1.4693     0.0000    16.0000 </r>
       <r>    -1.3783     0.0000    16.0000 </r>
       <r>    -1.2872     0.0000    16.0000 </r>
       <r>    -1.1961     0.0000    16.0000 </r>
       <r>    -1.1050     0.0032    16.0003 </r>
       <r>    -1.0140     0.0736    16.0070 </r>
       <r>    -0.9229     0.5694    16.0589 </r>
       <r>    -0.8318     1.7722    16.2203 </r>
       <r>    -0.7407     2.9638    16.4902 </r>
       <r>    -0.6496     3.3221    16.7928 </r>
       <r>    -0.5586     2.5376    17.0239 </r>
       <r>    -0.4675     1.8389    17.1914 </r>
       <r>    -0.3764     2.6507    17.4328 </r>
       <r>    -0.2853     3.8639    17.7847 </r>
       <r>    -0.1942     3.9990    18.1490 </r>
       <r>    -0.1032     4.2902    18.5397 </r>
       <r>    -0.0121     4.6300    18.9614 </r>
       <r>     0.0790     4.0071    19.3264 </r>
       <r>     0.1701     3.0991    19.6086 </r>
       <r>     0.2612     2.6652    19.8514 </r>
       <r>     0.3522     2.3721    20.0674 </r>
       <r>     0.4433     3.0746    20.3475 </r>
       <r>     0.5344     3.4929    20.6656 </r>
       <r>     0.6255     3.6065    20.9941 </r>
       <r>     0.7165     3.5368    21.3162 </r>
       <r>     0.8076     3.8348    21.6655 </r>
       <r>     0.8987     3.9220    22.0227 </r>
       <r>     0.9898     4.4623    22.4291 </r>
       <r>     1.0809     5.1596    22.8990 </r>
       <r>     1.1719     5.1478    23.3679 </r>
       <r>     1.2630     4.9597    23.8196 </r>
       <r>     1.3541     5.1573    24.2893 </r>
       <r>     1.4452     6.2076    24.8547 </r>
       <r>     1.5363     6.5735    25.4534 </r>
       <r>     1.6273     6.5501    26.0500 </r>
       <r>     1.7184     6.0118    26.5975 </r>
       <r>     1.8095     5.1379    27.0655 </r>
       <r>     1.9006     5.4705    27.5637 </r>
       <r>     1.9917     6.0001    28.1102 </r>
       <r>     2.0827     5.6707    28.6267 </r>
       <r>     2.1738     5.0472    29.0864 </r>
       <r>     2.2649     4.9263    29.5351 </r>
       <r>     2.3560     5.8629    30.0691 </r>
       <r>     2.4471     5.8235    30.5995 </r>
       <r>     2.5381     6.3435    31.1772 </r>
       <r>     2.6292     6.4664    31.7662 </r>
       <r>     2.7203     6.0061    32.3132 </r>
       <r>     2.8114     6.3481    32.8914 </r>
       <r>     2.9024     6.6622    33.4982 </r>
       <r>     2.9935     6.6180    34.1009 </r>
       <r>     3.0846     6.6160    34.7035 </r>
       <r>     3.1757     5.9488    35.2453 </r>
       <r>     3.2668     5.8533    35.7784 </r>
       <r>     3.3578     5.9779    36.3229 </r>
       <r>     3.4489     6.6605    36.9295 </r>
       <r>     3.5400     6.7225    37.5418 </r>
       <r>     3.6311     6.1757    38.1043 </r>
       <r>     3.7222     5.8015    38.6327 </r>
       <r>     3.8132     6.3367    39.2098 </r>
       <r>     3.9043     7.6474    39.9063 </r>
       <r>     3.9954     7.2726    40.5687 </r>
       <r>     4.0865     6.5108    41.1617 </r>
       <r>     4.1776     6.2225    41.7285 </r>
       <r>     4.2686     6.8088    42.3486 </r>
       <r>     4.3597     7.2385    43.0079 </r>
       <r>     4.4508     7.1393    43.6581 </r>
       <r>     4.5419     6.7590    44.2737 </r>
       <r>     4.6329     6.1085    44.8301 </r>
       <r>     4.7240     6.3788    45.4111 </r>
       <r>     4.8151     7.3778    46.0830 </r>
       <r>     4.9062     7.3970    46.7567 </r>
       <r>     4.9973     7.1271    47.4059 </r>
       <r>     5.0883     7.5929    48.0974 </r>
       <r>     5.1794     7.1836    48.7517 </r>
       <r>     5.2705     7.5846    49.4425 </r>
       <r>     5.3616     7.5806    50.1329 </r>
       <r>     5.4527     6.6254    50.7364 </r>
       <r>     5.5437     6.5983    51.3373 </r>
       <r>     5.6348     6.3612    51.9167 </r>
       <r>     5.7259     5.9724    52.4607 </r>
       <r>     5.8170     6.1872    53.0242 </r>
       <r>     5.9081     5.5455    53.5293 </r>
       <r>     5.9991     5.8436    54.0615 </r>
       <r>     6.0902     7.2333    54.7203 </r>
       <r>     6.1813     8.2131    55.4683 </r>
       <r>     6.2724     6.4719    56.0578 </r>
       <r>     6.3635     4.8463    56.4992 </r>
       <r>     6.4545     5.5831    57.0077 </r>
       <r>     6.5456     6.1789    57.5704 </r>
       <r>     6.6367     5.2216    58.0460 </r>
       <r>     6.7278     4.6928    58.4734 </r>
       <r>     6.8188     4.7952    58.9102 </r>
       <r>     6.9099     6.1999    59.4749 </r>
       <r>     7.0010     6.3512    60.0533 </r>
       <r>     7.0921     5.7114    60.5735 </r>
       <r>     7.1832     6.9229    61.2040 </r>
       <r>     7.2742     7.6667    61.9023 </r>
       <r>     7.3653     6.0937    62.4573 </r>
       <r>     7.4564     4.4893    62.8662 </r>
       <r>     7.5475     4.1917    63.2480 </r>
       <r>     7.6386     2.3895    63.4656 </r>
       <r>     7.7296     1.6858    63.6192 </r>
       <r>     7.8207     1.7716    63.7805 </r>
       <r>     7.9118     1.4247    63.9103 </r>
       <r>     8.0029     0.7544    63.9790 </r>
       <r>     8.0940     0.2074    63.9979 </r>
       <r>     8.1850     0.0227    63.9999 </r>
       <r>     8.2761     0.0007    64.0000 </r>
       <r>     8.3672     0.0000    64.0000 </r>
       <r>     8.4583     0.0000    64.0000 </r>
       <r>     8.5494     0.0000    64.0000 </r>
       <r>     8.6404     0.0000    64.0000 </r>
       <r>     8.7315     0.0000    64.0000 </r>
       <r>     8.8226     0.0000    64.0000 </r>
       <r>     8.9137     0.0000    64.0000 </r>
       <r>     9.0047     0.0000    64.0000 </r>
       <r>     9.0958     0.0000    64.0000 </r>
       <r>     9.1869     0.0000    64.0000 </r>
       <r>     9.2780     0.0000    64.0000 </r>
       <r>     9.3691     0.0000    64.0000 </r>
       <r>     9.4601     0.0000    64.0000 </r>
       <r>     9.5512     0.0000    64.0000 </r>
       <r>     9.6423     0.0000    64.0000 </r>
       <r>     9.7334     0.0000    64.0000 </r>
       <r>     9.8245     0.0000    64.0000 </r>
       <r>     9.9155     0.0000    64.0000 </r>
       <r>    10.0066     0.0000    64.0000 </r>
       <r>    10.0977     0.0031    64.0003 </r>
       <r>    10.1888     0.0661    64.0063 </r>
       <r>    10.2799     0.3431    64.0376 </r>
       <r>    10.3709     0.5904    64.0913 </r>
       <r>    10.4620     0.8927    64.1726 </r>
       <r>    10.5531     1.2138    64.2832 </r>
       <r>    10.6442     1.3004    64.4016 </r>
       <r>    10.7352     2.1768    64.5999 </r>
       <r>    10.8263     3.2499    64.8959 </r>
       <r>    10.9174     3.4163    65.2070 </r>
       <r>    11.0085     3.9579    65.5675 </r>
       <r>    11.0996     4.4556    65.9733 </r>
       <r>    11.1906     4.0365    66.3410 </r>
       <r>    11.2817     3.5318    66.6627 </r>
       <r>    11.3728     3.6930    66.9990 </r>
       <r>    11.4639     4.3241    67.3928 </r>
       <r>    11.5550     4.7921    67.8293 </r>
       <r>    11.6460     5.3776    68.3191 </r>
       <r>    11.7371     4.9056    68.7659 </r>
       <r>    11.8282     4.8886    69.2111 </r>
       <r>    11.9193     5.3763    69.7008 </r>
       <r>    12.0104     5.9334    70.2412 </r>
       <r>    12.1014     7.1823    70.8954 </r>
       <r>    12.1925     6.1942    71.4595 </r>
       <r>    12.2836     4.2323    71.8450 </r>
       <r>    12.3747     4.5305    72.2576 </r>
       <r>    12.4658     5.4376    72.7529 </r>
       <r>    12.5568     5.5742    73.2606 </r>
       <r>    12.6479     6.0542    73.8120 </r>
       <r>    12.7390     6.5603    74.4095 </r>
       <r>    12.8301     6.4699    74.9988 </r>
       <r>    12.9211     6.3086    75.5733 </r>
       <r>    13.0122     5.7253    76.0948 </r>
       <r>    13.1033     4.5204    76.5065 </r>
       <r>    13.1944     4.2712    76.8955 </r>
       <r>    13.2855     4.2731    77.2847 </r>
       <r>    13.3765     4.2836    77.6749 </r>
       <r>    13.4676     4.5248    78.0870 </r>
       <r>    13.5587     5.5014    78.5880 </r>
       <r>    13.6498     5.3066    79.0714 </r>
       <r>    13.7409     4.6180    79.4920 </r>
       <r>    13.8319     6.1174    80.0491 </r>
       <r>    13.9230     6.9450    80.6817 </r>
       <r>    14.0141     6.2188    81.2481 </r>
       <r>    14.1052     6.3088    81.8227 </r>
       <r>    14.1963     7.3201    82.4894 </r>
       <r>    14.2873     5.8166    83.0192 </r>
       <r>    14.3784     4.9449    83.4695 </r>
       <r>    14.4695     6.0665    84.0221 </r>
       <r>    14.5606     7.1518    84.6735 </r>
       <r>    14.6517     7.9736    85.3997 </r>
       <r>    14.7427     5.9472    85.9413 </r>
       <r>    14.8338     3.9517    86.3013 </r>
       <r>    14.9249     4.0037    86.6659 </r>
       <r>    15.0160     5.0516    87.1260 </r>
       <r>    15.1070     4.4219    87.5288 </r>
       <r>    15.1981     2.3287    87.7409 </r>
       <r>    15.2892     1.2093    87.8510 </r>
       <r>    15.3803     0.8967    87.9327 </r>
       <r>    15.4714     0.5705    87.9846 </r>
       <r>    15.5624     0.1560    87.9988 </r>
       <r>    15.6535     0.0125    88.0000 </r>
       <r>    15.7446     0.0002    88.0000 </r>
       <r>    15.8357     0.0000    88.0000 </r>
       <r>    15.9268     0.0000    88.0000 </r>
       <r>    16.0178     0.0000    88.0000 </r>
       <r>    16.1089     0.0000    88.0000 </r>
       <r>    16.2000     0.0000    88.0000 </r>
       <r>    16.2911     0.0000    88.0000 </r>
       <r>    16.3822     0.0000    88.0000 </r>
       <r>    16.4732     0.0000    88.0000 </r>
       <r>    16.5643     0.0000    88.0000 </r>
       <r>    16.6554     0.0000    88.0000 </r>
      </set>
     </set>
    </array>
   </total>
  </dos>
 </calculation>
 <structure name="finalpos" >
  <crystal>
   <varray name="basis" >
    <v>       5.39305414       0.00019864       0.00453477 </v>
    <v>       0.00018551       5.94771185      -0.05579328 </v>
    <v>       0.00435425      -2.65660670       5.35404459 </v>
   </varray>
   <i name="volume">    170.93862930 </i>
   <varray name="rec_basis" >
    <v>       0.18542382      -0.00000723      -0.00015439 </v>
    <v>      -0.00007670       0.16891812       0.08381502 </v>
    <v>      -0.00015785       0.00176026       0.18764823 </v>
   </varray>
  </crystal>
  <varray name="positions" >
   <v>       0.83160580       0.75390010       0.73787497 </v>
   <v>       0.16949199       0.50074087       0.00940187 </v>
   <v>       0.16202974       0.99196396       0.49672732 </v>
   <v>       0.67424747       0.24846870       0.74416219 </v>
   <v>       0.33100446       0.00500062       0.99729340 </v>
   <v>       0.83569929       0.25355887       0.25404333 </v>
   <v>       0.32813086       0.49921427       0.49275930 </v>
   <v>       0.66684618       0.74877508       0.25865666 </v>
   <v>       0.32059701       0.80901691       0.18785875 </v>
   <v>       0.84353932       0.06843249       0.45687730 </v>
   <v>       0.16413918       0.31742129       0.17481485 </v>
   <v>       0.66735032       0.56769979       0.45916464 </v>
   <v>       0.33827930       0.30108004       0.69976316 </v>
   <v>       0.84163908       0.55874024       0.92231002 </v>
   <v>       0.15071163       0.81664483       0.68794659 </v>
   <v>       0.67468838       0.05934195       0.92034565 </v>
  </varray>
 </structure>
</modeling>
