<?xml version="1.0" encoding="ISO-8859-1"?>
<modeling>
 <generator>
  <i name="program" type="string">vasp </i>
  <i name="version" type="string">5.3.5  </i>
  <i name="subversion" type="string">31Mar14 (build Jun 20 2014 13:15:13) complex                          parallel </i>
  <i name="platform" type="string">LinuxIFC </i>
  <i name="date" type="string">2025 11 28 </i>
  <i name="time" type="string">04:39:02 </i>
 </generator>
 <incar>
  <i type="string" name="PREC">accurate</i>
  <i type="int" name="IALGO">    68</i>
  <i type="logical" name="ADDGRID"> T  </i>
  <i type="int" name="NELM">   200</i>
  <i type="int" name="NELMIN">     4</i>
  <i type="int" name="IBRION">     2</i>
  <i name="EDIFF">      0.00000100</i>
  <i name="EDIFFG">     -0.02000000</i>
  <i type="int" name="NSW">    30</i>
  <i type="int" name="ISIF">     3</i>
  <i name="ENCUT">    500.00000000</i>
  <i type="logical" name="LREAL"> F  </i>
  <i type="int" name="ISMEAR">     1</i>
  <i name="SIGMA">      0.30000000</i>
  <i type="logical" name="LWAVE"> F  </i>
  <i type="logical" name="LCHARG"> F  </i>
  <i type="int" name="NELM">   200</i>
 </incar>
 <kpoints>
  <generation param="Auto">
   <i name="subdivisionlength">     70.00000000 </i>
   <v type="int" name="divisions">      26       15       10 </v>
   <v name="usershift">      0.00000000       0.00000000       0.00000000 </v>
   <v name="genvec1">      0.03846154       0.00000000       0.00000000 </v>
   <v name="genvec2">      0.00000000       0.06666667       0.00000000 </v>
   <v name="genvec3">      0.00000000       0.00000000       0.10000000 </v>
   <v name="shift">      0.00000000       0.00000000       0.00000000 </v>
  </generation>
  <varray name="kpointlist" >
   <v>       0.00000000       0.00000000       0.00000000 </v>
   <v>       0.03846154       0.00000000       0.00000000 </v>
   <v>       0.07692308       0.00000000       0.00000000 </v>
   <v>       0.11538462       0.00000000       0.00000000 </v>
   <v>       0.15384615       0.00000000       0.00000000 </v>
   <v>       0.19230769       0.00000000       0.00000000 </v>
   <v>       0.23076923       0.00000000       0.00000000 </v>
   <v>       0.26923077       0.00000000       0.00000000 </v>
   <v>       0.30769231       0.00000000       0.00000000 </v>
   <v>       0.34615385       0.00000000       0.00000000 </v>
   <v>       0.38461538       0.00000000       0.00000000 </v>
   <v>       0.42307692       0.00000000       0.00000000 </v>
   <v>       0.46153846       0.00000000       0.00000000 </v>
   <v>       0.50000000       0.00000000       0.00000000 </v>
   <v>       0.00000000       0.06666667       0.00000000 </v>
   <v>       0.03846154       0.06666667       0.00000000 </v>
   <v>       0.07692308       0.06666667       0.00000000 </v>
   <v>       0.11538462       0.06666667       0.00000000 </v>
   <v>       0.15384615       0.06666667       0.00000000 </v>
   <v>       0.19230769       0.06666667       0.00000000 </v>
   <v>       0.23076923       0.06666667       0.00000000 </v>
   <v>       0.26923077       0.06666667       0.00000000 </v>
   <v>       0.30769231       0.06666667       0.00000000 </v>
   <v>       0.34615385       0.06666667       0.00000000 </v>
   <v>       0.38461538       0.06666667       0.00000000 </v>
   <v>       0.42307692       0.06666667       0.00000000 </v>
   <v>       0.46153846       0.06666667       0.00000000 </v>
   <v>       0.50000000       0.06666667       0.00000000 </v>
   <v>      -0.46153846       0.06666667       0.00000000 </v>
   <v>      -0.42307692       0.06666667       0.00000000 </v>
   <v>      -0.38461538       0.06666667       0.00000000 </v>
   <v>      -0.34615385       0.06666667       0.00000000 </v>
   <v>      -0.30769231       0.06666667       0.00000000 </v>
   <v>      -0.26923077       0.06666667       0.00000000 </v>
   <v>      -0.23076923       0.06666667       0.00000000 </v>
   <v>      -0.19230769       0.06666667       0.00000000 </v>
   <v>      -0.15384615       0.06666667       0.00000000 </v>
   <v>      -0.11538462       0.06666667       0.00000000 </v>
   <v>      -0.07692308       0.06666667       0.00000000 </v>
   <v>      -0.03846154       0.06666667       0.00000000 </v>
   <v>       0.00000000       0.13333333       0.00000000 </v>
   <v>       0.03846154       0.13333333       0.00000000 </v>
   <v>       0.07692308       0.13333333       0.00000000 </v>
   <v>       0.11538462       0.13333333       0.00000000 </v>
   <v>       0.15384615       0.13333333       0.00000000 </v>
   <v>       0.19230769       0.13333333       0.00000000 </v>
   <v>       0.23076923       0.13333333       0.00000000 </v>
   <v>       0.26923077       0.13333333       0.00000000 </v>
   <v>       0.30769231       0.13333333       0.00000000 </v>
   <v>       0.34615385       0.13333333       0.00000000 </v>
   <v>       0.38461538       0.13333333       0.00000000 </v>
   <v>       0.42307692       0.13333333       0.00000000 </v>
   <v>       0.46153846       0.13333333       0.00000000 </v>
   <v>       0.50000000       0.13333333       0.00000000 </v>
   <v>      -0.46153846       0.13333333       0.00000000 </v>
   <v>      -0.42307692       0.13333333       0.00000000 </v>
   <v>      -0.38461538       0.13333333       0.00000000 </v>
   <v>      -0.34615385       0.13333333       0.00000000 </v>
   <v>      -0.30769231       0.13333333       0.00000000 </v>
   <v>      -0.26923077       0.13333333       0.00000000 </v>
   <v>      -0.23076923       0.13333333       0.00000000 </v>
   <v>      -0.19230769       0.13333333       0.00000000 </v>
   <v>      -0.15384615       0.13333333       0.00000000 </v>
   <v>      -0.11538462       0.13333333       0.00000000 </v>
   <v>      -0.07692308       0.13333333       0.00000000 </v>
   <v>      -0.03846154       0.13333333       0.00000000 </v>
   <v>       0.00000000       0.20000000       0.00000000 </v>
   <v>       0.03846154       0.20000000       0.00000000 </v>
   <v>       0.07692308       0.20000000       0.00000000 </v>
   <v>       0.11538462       0.20000000       0.00000000 </v>
   <v>       0.15384615       0.20000000       0.00000000 </v>
   <v>       0.19230769       0.20000000       0.00000000 </v>
   <v>       0.23076923       0.20000000       0.00000000 </v>
   <v>       0.26923077       0.20000000       0.00000000 </v>
   <v>       0.30769231       0.20000000       0.00000000 </v>
   <v>       0.34615385       0.20000000       0.00000000 </v>
   <v>       0.38461538       0.20000000       0.00000000 </v>
   <v>       0.42307692       0.20000000       0.00000000 </v>
   <v>       0.46153846       0.20000000       0.00000000 </v>
   <v>       0.50000000       0.20000000       0.00000000 </v>
   <v>      -0.46153846       0.20000000       0.00000000 </v>
   <v>      -0.42307692       0.20000000       0.00000000 </v>
   <v>      -0.38461538       0.20000000       0.00000000 </v>
   <v>      -0.34615385       0.20000000       0.00000000 </v>
   <v>      -0.30769231       0.20000000       0.00000000 </v>
   <v>      -0.26923077       0.20000000       0.00000000 </v>
   <v>      -0.23076923       0.20000000       0.00000000 </v>
   <v>      -0.19230769       0.20000000       0.00000000 </v>
   <v>      -0.15384615       0.20000000       0.00000000 </v>
   <v>      -0.11538462       0.20000000       0.00000000 </v>
   <v>      -0.07692308       0.20000000       0.00000000 </v>
   <v>      -0.03846154       0.20000000       0.00000000 </v>
   <v>       0.00000000       0.26666667       0.00000000 </v>
   <v>       0.03846154       0.26666667       0.00000000 </v>
   <v>       0.07692308       0.26666667       0.00000000 </v>
   <v>       0.11538462       0.26666667       0.00000000 </v>
   <v>       0.15384615       0.26666667       0.00000000 </v>
   <v>       0.19230769       0.26666667       0.00000000 </v>
   <v>       0.23076923       0.26666667       0.00000000 </v>
   <v>       0.26923077       0.26666667       0.00000000 </v>
   <v>       0.30769231       0.26666667       0.00000000 </v>
   <v>       0.34615385       0.26666667       0.00000000 </v>
   <v>       0.38461538       0.26666667       0.00000000 </v>
   <v>       0.42307692       0.26666667       0.00000000 </v>
   <v>       0.46153846       0.26666667       0.00000000 </v>
   <v>       0.50000000       0.26666667       0.00000000 </v>
   <v>      -0.46153846       0.26666667       0.00000000 </v>
   <v>      -0.42307692       0.26666667       0.00000000 </v>
   <v>      -0.38461538       0.26666667       0.00000000 </v>
   <v>      -0.34615385       0.26666667       0.00000000 </v>
   <v>      -0.30769231       0.26666667       0.00000000 </v>
   <v>      -0.26923077       0.26666667       0.00000000 </v>
   <v>      -0.23076923       0.26666667       0.00000000 </v>
   <v>      -0.19230769       0.26666667       0.00000000 </v>
   <v>      -0.15384615       0.26666667       0.00000000 </v>
   <v>      -0.11538462       0.26666667       0.00000000 </v>
   <v>      -0.07692308       0.26666667       0.00000000 </v>
   <v>      -0.03846154       0.26666667       0.00000000 </v>
   <v>       0.00000000       0.33333333       0.00000000 </v>
   <v>       0.03846154       0.33333333       0.00000000 </v>
   <v>       0.07692308       0.33333333       0.00000000 </v>
   <v>       0.11538462       0.33333333       0.00000000 </v>
   <v>       0.15384615       0.33333333       0.00000000 </v>
   <v>       0.19230769       0.33333333       0.00000000 </v>
   <v>       0.23076923       0.33333333       0.00000000 </v>
   <v>       0.26923077       0.33333333       0.00000000 </v>
   <v>       0.30769231       0.33333333       0.00000000 </v>
   <v>       0.34615385       0.33333333       0.00000000 </v>
   <v>       0.38461538       0.33333333       0.00000000 </v>
   <v>       0.42307692       0.33333333       0.00000000 </v>
   <v>       0.46153846       0.33333333       0.00000000 </v>
   <v>       0.50000000       0.33333333       0.00000000 </v>
   <v>      -0.46153846       0.33333333       0.00000000 </v>
   <v>      -0.42307692       0.33333333       0.00000000 </v>
   <v>      -0.38461538       0.33333333       0.00000000 </v>
   <v>      -0.34615385       0.33333333       0.00000000 </v>
   <v>      -0.30769231       0.33333333       0.00000000 </v>
   <v>      -0.26923077       0.33333333       0.00000000 </v>
   <v>      -0.23076923       0.33333333       0.00000000 </v>
   <v>      -0.19230769       0.33333333       0.00000000 </v>
   <v>      -0.15384615       0.33333333       0.00000000 </v>
   <v>      -0.11538462       0.33333333       0.00000000 </v>
   <v>      -0.07692308       0.33333333       0.00000000 </v>
   <v>      -0.03846154       0.33333333       0.00000000 </v>
   <v>       0.00000000       0.40000000       0.00000000 </v>
   <v>       0.03846154       0.40000000       0.00000000 </v>
   <v>       0.07692308       0.40000000       0.00000000 </v>
   <v>       0.11538462       0.40000000       0.00000000 </v>
   <v>       0.15384615       0.40000000       0.00000000 </v>
   <v>       0.19230769       0.40000000       0.00000000 </v>
   <v>       0.23076923       0.40000000       0.00000000 </v>
   <v>       0.26923077       0.40000000       0.00000000 </v>
   <v>       0.30769231       0.40000000       0.00000000 </v>
   <v>       0.34615385       0.40000000       0.00000000 </v>
   <v>       0.38461538       0.40000000       0.00000000 </v>
   <v>       0.42307692       0.40000000       0.00000000 </v>
   <v>       0.46153846       0.40000000       0.00000000 </v>
   <v>       0.50000000       0.40000000       0.00000000 </v>
   <v>      -0.46153846       0.40000000       0.00000000 </v>
   <v>      -0.42307692       0.40000000       0.00000000 </v>
   <v>      -0.38461538       0.40000000       0.00000000 </v>
   <v>      -0.34615385       0.40000000       0.00000000 </v>
   <v>      -0.30769231       0.40000000       0.00000000 </v>
   <v>      -0.26923077       0.40000000       0.00000000 </v>
   <v>      -0.23076923       0.40000000       0.00000000 </v>
   <v>      -0.19230769       0.40000000       0.00000000 </v>
   <v>      -0.15384615       0.40000000       0.00000000 </v>
   <v>      -0.11538462       0.40000000       0.00000000 </v>
   <v>      -0.07692308       0.40000000       0.00000000 </v>
   <v>      -0.03846154       0.40000000       0.00000000 </v>
   <v>       0.00000000       0.46666667       0.00000000 </v>
   <v>       0.03846154       0.46666667       0.00000000 </v>
   <v>       0.07692308       0.46666667       0.00000000 </v>
   <v>       0.11538462       0.46666667       0.00000000 </v>
   <v>       0.15384615       0.46666667       0.00000000 </v>
   <v>       0.19230769       0.46666667       0.00000000 </v>
   <v>       0.23076923       0.46666667       0.00000000 </v>
   <v>       0.26923077       0.46666667       0.00000000 </v>
   <v>       0.30769231       0.46666667       0.00000000 </v>
   <v>       0.34615385       0.46666667       0.00000000 </v>
   <v>       0.38461538       0.46666667       0.00000000 </v>
   <v>       0.42307692       0.46666667       0.00000000 </v>
   <v>       0.46153846       0.46666667       0.00000000 </v>
   <v>       0.50000000       0.46666667       0.00000000 </v>
   <v>      -0.46153846       0.46666667       0.00000000 </v>
   <v>      -0.42307692       0.46666667       0.00000000 </v>
   <v>      -0.38461538       0.46666667       0.00000000 </v>
   <v>      -0.34615385       0.46666667       0.00000000 </v>
   <v>      -0.30769231       0.46666667       0.00000000 </v>
   <v>      -0.26923077       0.46666667       0.00000000 </v>
   <v>      -0.23076923       0.46666667       0.00000000 </v>
   <v>      -0.19230769       0.46666667       0.00000000 </v>
   <v>      -0.15384615       0.46666667       0.00000000 </v>
   <v>      -0.11538462       0.46666667       0.00000000 </v>
   <v>      -0.07692308       0.46666667       0.00000000 </v>
   <v>      -0.03846154       0.46666667       0.00000000 </v>
   <v>       0.00000000       0.00000000       0.10000000 </v>
   <v>       0.03846154       0.00000000       0.10000000 </v>
   <v>       0.07692308       0.00000000       0.10000000 </v>
   <v>       0.11538462       0.00000000       0.10000000 </v>
   <v>       0.15384615       0.00000000       0.10000000 </v>
   <v>       0.19230769       0.00000000       0.10000000 </v>
   <v>       0.23076923       0.00000000       0.10000000 </v>
   <v>       0.26923077       0.00000000       0.10000000 </v>
   <v>       0.30769231       0.00000000       0.10000000 </v>
   <v>       0.34615385       0.00000000       0.10000000 </v>
   <v>       0.38461538       0.00000000       0.10000000 </v>
   <v>       0.42307692       0.00000000       0.10000000 </v>
   <v>       0.46153846       0.00000000       0.10000000 </v>
   <v>       0.50000000       0.00000000       0.10000000 </v>
   <v>      -0.46153846       0.00000000       0.10000000 </v>
   <v>      -0.42307692       0.00000000       0.10000000 </v>
   <v>      -0.38461538       0.00000000       0.10000000 </v>
   <v>      -0.34615385       0.00000000       0.10000000 </v>
   <v>      -0.30769231       0.00000000       0.10000000 </v>
   <v>      -0.26923077       0.00000000       0.10000000 </v>
   <v>      -0.23076923       0.00000000       0.10000000 </v>
   <v>      -0.19230769       0.00000000       0.10000000 </v>
   <v>      -0.15384615       0.00000000       0.10000000 </v>
   <v>      -0.11538462       0.00000000       0.10000000 </v>
   <v>      -0.07692308       0.00000000       0.10000000 </v>
   <v>      -0.03846154       0.00000000       0.10000000 </v>
   <v>       0.00000000       0.06666667       0.10000000 </v>
   <v>       0.03846154       0.06666667       0.10000000 </v>
   <v>       0.07692308       0.06666667       0.10000000 </v>
   <v>       0.11538462       0.06666667       0.10000000 </v>
   <v>       0.15384615       0.06666667       0.10000000 </v>
   <v>       0.19230769       0.06666667       0.10000000 </v>
   <v>       0.23076923       0.06666667       0.10000000 </v>
   <v>       0.26923077       0.06666667       0.10000000 </v>
   <v>       0.30769231       0.06666667       0.10000000 </v>
   <v>       0.34615385       0.06666667       0.10000000 </v>
   <v>       0.38461538       0.06666667       0.10000000 </v>
   <v>       0.42307692       0.06666667       0.10000000 </v>
   <v>       0.46153846       0.06666667       0.10000000 </v>
   <v>       0.50000000       0.06666667       0.10000000 </v>
   <v>      -0.46153846       0.06666667       0.10000000 </v>
   <v>      -0.42307692       0.06666667       0.10000000 </v>
   <v>      -0.38461538       0.06666667       0.10000000 </v>
   <v>      -0.34615385       0.06666667       0.10000000 </v>
   <v>      -0.30769231       0.06666667       0.10000000 </v>
   <v>      -0.26923077       0.06666667       0.10000000 </v>
   <v>      -0.23076923       0.06666667       0.10000000 </v>
   <v>      -0.19230769       0.06666667       0.10000000 </v>
   <v>      -0.15384615       0.06666667       0.10000000 </v>
   <v>      -0.11538462       0.06666667       0.10000000 </v>
   <v>      -0.07692308       0.06666667       0.10000000 </v>
   <v>      -0.03846154       0.06666667       0.10000000 </v>
   <v>       0.00000000       0.13333333       0.10000000 </v>
   <v>       0.03846154       0.13333333       0.10000000 </v>
   <v>       0.07692308       0.13333333       0.10000000 </v>
   <v>       0.11538462       0.13333333       0.10000000 </v>
   <v>       0.15384615       0.13333333       0.10000000 </v>
   <v>       0.19230769       0.13333333       0.10000000 </v>
   <v>       0.23076923       0.13333333       0.10000000 </v>
   <v>       0.26923077       0.13333333       0.10000000 </v>
   <v>       0.30769231       0.13333333       0.10000000 </v>
   <v>       0.34615385       0.13333333       0.10000000 </v>
   <v>       0.38461538       0.13333333       0.10000000 </v>
   <v>       0.42307692       0.13333333       0.10000000 </v>
   <v>       0.46153846       0.13333333       0.10000000 </v>
   <v>       0.50000000       0.13333333       0.10000000 </v>
   <v>      -0.46153846       0.13333333       0.10000000 </v>
   <v>      -0.42307692       0.13333333       0.10000000 </v>
   <v>      -0.38461538       0.13333333       0.10000000 </v>
   <v>      -0.34615385       0.13333333       0.10000000 </v>
   <v>      -0.30769231       0.13333333       0.10000000 </v>
   <v>      -0.26923077       0.13333333       0.10000000 </v>
   <v>      -0.23076923       0.13333333       0.10000000 </v>
   <v>      -0.19230769       0.13333333       0.10000000 </v>
   <v>      -0.15384615       0.13333333       0.10000000 </v>
   <v>      -0.11538462       0.13333333       0.10000000 </v>
   <v>      -0.07692308       0.13333333       0.10000000 </v>
   <v>      -0.03846154       0.13333333       0.10000000 </v>
   <v>       0.00000000       0.20000000       0.10000000 </v>
   <v>       0.03846154       0.20000000       0.10000000 </v>
   <v>       0.07692308       0.20000000       0.10000000 </v>
   <v>       0.11538462       0.20000000       0.10000000 </v>
   <v>       0.15384615       0.20000000       0.10000000 </v>
   <v>       0.19230769       0.20000000       0.10000000 </v>
   <v>       0.23076923       0.20000000       0.10000000 </v>
   <v>       0.26923077       0.20000000       0.10000000 </v>
   <v>       0.30769231       0.20000000       0.10000000 </v>
   <v>       0.34615385       0.20000000       0.10000000 </v>
   <v>       0.38461538       0.20000000       0.10000000 </v>
   <v>       0.42307692       0.20000000       0.10000000 </v>
   <v>       0.46153846       0.20000000       0.10000000 </v>
   <v>       0.50000000       0.20000000       0.10000000 </v>
   <v>      -0.46153846       0.20000000       0.10000000 </v>
   <v>      -0.42307692       0.20000000       0.10000000 </v>
   <v>      -0.38461538       0.20000000       0.10000000 </v>
   <v>      -0.34615385       0.20000000       0.10000000 </v>
   <v>      -0.30769231       0.20000000       0.10000000 </v>
   <v>      -0.26923077       0.20000000       0.10000000 </v>
   <v>      -0.23076923       0.20000000       0.10000000 </v>
   <v>      -0.19230769       0.20000000       0.10000000 </v>
   <v>      -0.15384615       0.20000000       0.10000000 </v>
   <v>      -0.11538462       0.20000000       0.10000000 </v>
   <v>      -0.07692308       0.20000000       0.10000000 </v>
   <v>      -0.03846154       0.20000000       0.10000000 </v>
   <v>       0.00000000       0.26666667       0.10000000 </v>
   <v>       0.03846154       0.26666667       0.10000000 </v>
   <v>       0.07692308       0.26666667       0.10000000 </v>
   <v>       0.11538462       0.26666667       0.10000000 </v>
   <v>       0.15384615       0.26666667       0.10000000 </v>
   <v>       0.19230769       0.26666667       0.10000000 </v>
   <v>       0.23076923       0.26666667       0.10000000 </v>
   <v>       0.26923077       0.26666667       0.10000000 </v>
   <v>       0.30769231       0.26666667       0.10000000 </v>
   <v>       0.34615385       0.26666667       0.10000000 </v>
   <v>       0.38461538       0.26666667       0.10000000 </v>
   <v>       0.42307692       0.26666667       0.10000000 </v>
   <v>       0.46153846       0.26666667       0.10000000 </v>
   <v>       0.50000000       0.26666667       0.10000000 </v>
   <v>      -0.46153846       0.26666667       0.10000000 </v>
   <v>      -0.42307692       0.26666667       0.10000000 </v>
   <v>      -0.38461538       0.26666667       0.10000000 </v>
   <v>      -0.34615385       0.26666667       0.10000000 </v>
   <v>      -0.30769231       0.26666667       0.10000000 </v>
   <v>      -0.26923077       0.26666667       0.10000000 </v>
   <v>      -0.23076923       0.26666667       0.10000000 </v>
   <v>      -0.19230769       0.26666667       0.10000000 </v>
   <v>      -0.15384615       0.26666667       0.10000000 </v>
   <v>      -0.11538462       0.26666667       0.10000000 </v>
   <v>      -0.07692308       0.26666667       0.10000000 </v>
   <v>      -0.03846154       0.26666667       0.10000000 </v>
   <v>       0.00000000       0.33333333       0.10000000 </v>
   <v>       0.03846154       0.33333333       0.10000000 </v>
   <v>       0.07692308       0.33333333       0.10000000 </v>
   <v>       0.11538462       0.33333333       0.10000000 </v>
   <v>       0.15384615       0.33333333       0.10000000 </v>
   <v>       0.19230769       0.33333333       0.10000000 </v>
   <v>       0.23076923       0.33333333       0.10000000 </v>
   <v>       0.26923077       0.33333333       0.10000000 </v>
   <v>       0.30769231       0.33333333       0.10000000 </v>
   <v>       0.34615385       0.33333333       0.10000000 </v>
   <v>       0.38461538       0.33333333       0.10000000 </v>
   <v>       0.42307692       0.33333333       0.10000000 </v>
   <v>       0.46153846       0.33333333       0.10000000 </v>
   <v>       0.50000000       0.33333333       0.10000000 </v>
   <v>      -0.46153846       0.33333333       0.10000000 </v>
   <v>      -0.42307692       0.33333333       0.10000000 </v>
   <v>      -0.38461538       0.33333333       0.10000000 </v>
   <v>      -0.34615385       0.33333333       0.10000000 </v>
   <v>      -0.30769231       0.33333333       0.10000000 </v>
   <v>      -0.26923077       0.33333333       0.10000000 </v>
   <v>      -0.23076923       0.33333333       0.10000000 </v>
   <v>      -0.19230769       0.33333333       0.10000000 </v>
   <v>      -0.15384615       0.33333333       0.10000000 </v>
   <v>      -0.11538462       0.33333333       0.10000000 </v>
   <v>      -0.07692308       0.33333333       0.10000000 </v>
   <v>      -0.03846154       0.33333333       0.10000000 </v>
   <v>       0.00000000       0.40000000       0.10000000 </v>
   <v>       0.03846154       0.40000000       0.10000000 </v>
   <v>       0.07692308       0.40000000       0.10000000 </v>
   <v>       0.11538462       0.40000000       0.10000000 </v>
   <v>       0.15384615       0.40000000       0.10000000 </v>
   <v>       0.19230769       0.40000000       0.10000000 </v>
   <v>       0.23076923       0.40000000       0.10000000 </v>
   <v>       0.26923077       0.40000000       0.10000000 </v>
   <v>       0.30769231       0.40000000       0.10000000 </v>
   <v>       0.34615385       0.40000000       0.10000000 </v>
   <v>       0.38461538       0.40000000       0.10000000 </v>
   <v>       0.42307692       0.40000000       0.10000000 </v>
   <v>       0.46153846       0.40000000       0.10000000 </v>
   <v>       0.50000000       0.40000000       0.10000000 </v>
   <v>      -0.46153846       0.40000000       0.10000000 </v>
   <v>      -0.42307692       0.40000000       0.10000000 </v>
   <v>      -0.38461538       0.40000000       0.10000000 </v>
   <v>      -0.34615385       0.40000000       0.10000000 </v>
   <v>      -0.30769231       0.40000000       0.10000000 </v>
   <v>      -0.26923077       0.40000000       0.10000000 </v>
   <v>      -0.23076923       0.40000000       0.10000000 </v>
   <v>      -0.19230769       0.40000000       0.10000000 </v>
   <v>      -0.15384615       0.40000000       0.10000000 </v>
   <v>      -0.11538462       0.40000000       0.10000000 </v>
   <v>      -0.07692308       0.40000000       0.10000000 </v>
   <v>      -0.03846154       0.40000000       0.10000000 </v>
   <v>       0.00000000       0.46666667       0.10000000 </v>
   <v>       0.03846154       0.46666667       0.10000000 </v>
   <v>       0.07692308       0.46666667       0.10000000 </v>
   <v>       0.11538462       0.46666667       0.10000000 </v>
   <v>       0.15384615       0.46666667       0.10000000 </v>
   <v>       0.19230769       0.46666667       0.10000000 </v>
   <v>       0.23076923       0.46666667       0.10000000 </v>
   <v>       0.26923077       0.46666667       0.10000000 </v>
   <v>       0.30769231       0.46666667       0.10000000 </v>
   <v>       0.34615385       0.46666667       0.10000000 </v>
   <v>       0.38461538       0.46666667       0.10000000 </v>
   <v>       0.42307692       0.46666667       0.10000000 </v>
   <v>       0.46153846       0.46666667       0.10000000 </v>
   <v>       0.50000000       0.46666667       0.10000000 </v>
   <v>      -0.46153846       0.46666667       0.10000000 </v>
   <v>      -0.42307692       0.46666667       0.10000000 </v>
   <v>      -0.38461538       0.46666667       0.10000000 </v>
   <v>      -0.34615385       0.46666667       0.10000000 </v>
   <v>      -0.30769231       0.46666667       0.10000000 </v>
   <v>      -0.26923077       0.46666667       0.10000000 </v>
   <v>      -0.23076923       0.46666667       0.10000000 </v>
   <v>      -0.19230769       0.46666667       0.10000000 </v>
   <v>      -0.15384615       0.46666667       0.10000000 </v>
   <v>      -0.11538462       0.46666667       0.10000000 </v>
   <v>      -0.07692308       0.46666667       0.10000000 </v>
   <v>      -0.03846154       0.46666667       0.10000000 </v>
   <v>       0.00000000      -0.46666667       0.10000000 </v>
   <v>       0.03846154      -0.46666667       0.10000000 </v>
   <v>       0.07692308      -0.46666667       0.10000000 </v>
   <v>       0.11538462      -0.46666667       0.10000000 </v>
   <v>       0.15384615      -0.46666667       0.10000000 </v>
   <v>       0.19230769      -0.46666667       0.10000000 </v>
   <v>       0.23076923      -0.46666667       0.10000000 </v>
   <v>       0.26923077      -0.46666667       0.10000000 </v>
   <v>       0.30769231      -0.46666667       0.10000000 </v>
   <v>       0.34615385      -0.46666667       0.10000000 </v>
   <v>       0.38461538      -0.46666667       0.10000000 </v>
   <v>       0.42307692      -0.46666667       0.10000000 </v>
   <v>       0.46153846      -0.46666667       0.10000000 </v>
   <v>       0.50000000      -0.46666667       0.10000000 </v>
   <v>      -0.46153846      -0.46666667       0.10000000 </v>
   <v>      -0.42307692      -0.46666667       0.10000000 </v>
   <v>      -0.38461538      -0.46666667       0.10000000 </v>
   <v>      -0.34615385      -0.46666667       0.10000000 </v>
   <v>      -0.30769231      -0.46666667       0.10000000 </v>
   <v>      -0.26923077      -0.46666667       0.10000000 </v>
   <v>      -0.23076923      -0.46666667       0.10000000 </v>
   <v>      -0.19230769      -0.46666667       0.10000000 </v>
   <v>      -0.15384615      -0.46666667       0.10000000 </v>
   <v>      -0.11538462      -0.46666667       0.10000000 </v>
   <v>      -0.07692308      -0.46666667       0.10000000 </v>
   <v>      -0.03846154      -0.46666667       0.10000000 </v>
   <v>       0.00000000      -0.40000000       0.10000000 </v>
   <v>       0.03846154      -0.40000000       0.10000000 </v>
   <v>       0.07692308      -0.40000000       0.10000000 </v>
   <v>       0.11538462      -0.40000000       0.10000000 </v>
   <v>       0.15384615      -0.40000000       0.10000000 </v>
   <v>       0.19230769      -0.40000000       0.10000000 </v>
   <v>       0.23076923      -0.40000000       0.10000000 </v>
   <v>       0.26923077      -0.40000000       0.10000000 </v>
   <v>       0.30769231      -0.40000000       0.10000000 </v>
   <v>       0.34615385      -0.40000000       0.10000000 </v>
   <v>       0.38461538      -0.40000000       0.10000000 </v>
   <v>       0.42307692      -0.40000000       0.10000000 </v>
   <v>       0.46153846      -0.40000000       0.10000000 </v>
   <v>       0.50000000      -0.40000000       0.10000000 </v>
   <v>      -0.46153846      -0.40000000       0.10000000 </v>
   <v>      -0.42307692      -0.40000000       0.10000000 </v>
   <v>      -0.38461538      -0.40000000       0.10000000 </v>
   <v>      -0.34615385      -0.40000000       0.10000000 </v>
   <v>      -0.30769231      -0.40000000       0.10000000 </v>
   <v>      -0.26923077      -0.40000000       0.10000000 </v>
   <v>      -0.23076923      -0.40000000       0.10000000 </v>
   <v>      -0.19230769      -0.40000000       0.10000000 </v>
   <v>      -0.15384615      -0.40000000       0.10000000 </v>
   <v>      -0.11538462      -0.40000000       0.10000000 </v>
   <v>      -0.07692308      -0.40000000       0.10000000 </v>
   <v>      -0.03846154      -0.40000000       0.10000000 </v>
   <v>       0.00000000      -0.33333333       0.10000000 </v>
   <v>       0.03846154      -0.33333333       0.10000000 </v>
   <v>       0.07692308      -0.33333333       0.10000000 </v>
   <v>       0.11538462      -0.33333333       0.10000000 </v>
   <v>       0.15384615      -0.33333333       0.10000000 </v>
   <v>       0.19230769      -0.33333333       0.10000000 </v>
   <v>       0.23076923      -0.33333333       0.10000000 </v>
   <v>       0.26923077      -0.33333333       0.10000000 </v>
   <v>       0.30769231      -0.33333333       0.10000000 </v>
   <v>       0.34615385      -0.33333333       0.10000000 </v>
   <v>       0.38461538      -0.33333333       0.10000000 </v>
   <v>       0.42307692      -0.33333333       0.10000000 </v>
   <v>       0.46153846      -0.33333333       0.10000000 </v>
   <v>       0.50000000      -0.33333333       0.10000000 </v>
   <v>      -0.46153846      -0.33333333       0.10000000 </v>
   <v>      -0.42307692      -0.33333333       0.10000000 </v>
   <v>      -0.38461538      -0.33333333       0.10000000 </v>
   <v>      -0.34615385      -0.33333333       0.10000000 </v>
   <v>      -0.30769231      -0.33333333       0.10000000 </v>
   <v>      -0.26923077      -0.33333333       0.10000000 </v>
   <v>      -0.23076923      -0.33333333       0.10000000 </v>
   <v>      -0.19230769      -0.33333333       0.10000000 </v>
   <v>      -0.15384615      -0.33333333       0.10000000 </v>
   <v>      -0.11538462      -0.33333333       0.10000000 </v>
   <v>      -0.07692308      -0.33333333       0.10000000 </v>
   <v>      -0.03846154      -0.33333333       0.10000000 </v>
   <v>       0.00000000      -0.26666667       0.10000000 </v>
   <v>       0.03846154      -0.26666667       0.10000000 </v>
   <v>       0.07692308      -0.26666667       0.10000000 </v>
   <v>       0.11538462      -0.26666667       0.10000000 </v>
   <v>       0.15384615      -0.26666667       0.10000000 </v>
   <v>       0.19230769      -0.26666667       0.10000000 </v>
   <v>       0.23076923      -0.26666667       0.10000000 </v>
   <v>       0.26923077      -0.26666667       0.10000000 </v>
   <v>       0.30769231      -0.26666667       0.10000000 </v>
   <v>       0.34615385      -0.26666667       0.10000000 </v>
   <v>       0.38461538      -0.26666667       0.10000000 </v>
   <v>       0.42307692      -0.26666667       0.10000000 </v>
   <v>       0.46153846      -0.26666667       0.10000000 </v>
   <v>       0.50000000      -0.26666667       0.10000000 </v>
   <v>      -0.46153846      -0.26666667       0.10000000 </v>
   <v>      -0.42307692      -0.26666667       0.10000000 </v>
   <v>      -0.38461538      -0.26666667       0.10000000 </v>
   <v>      -0.34615385      -0.26666667       0.10000000 </v>
   <v>      -0.30769231      -0.26666667       0.10000000 </v>
   <v>      -0.26923077      -0.26666667       0.10000000 </v>
   <v>      -0.23076923      -0.26666667       0.10000000 </v>
   <v>      -0.19230769      -0.26666667       0.10000000 </v>
   <v>      -0.15384615      -0.26666667       0.10000000 </v>
   <v>      -0.11538462      -0.26666667       0.10000000 </v>
   <v>      -0.07692308      -0.26666667       0.10000000 </v>
   <v>      -0.03846154      -0.26666667       0.10000000 </v>
   <v>       0.00000000      -0.20000000       0.10000000 </v>
   <v>       0.03846154      -0.20000000       0.10000000 </v>
   <v>       0.07692308      -0.20000000       0.10000000 </v>
   <v>       0.11538462      -0.20000000       0.10000000 </v>
   <v>       0.15384615      -0.20000000       0.10000000 </v>
   <v>       0.19230769      -0.20000000       0.10000000 </v>
   <v>       0.23076923      -0.20000000       0.10000000 </v>
   <v>       0.26923077      -0.20000000       0.10000000 </v>
   <v>       0.30769231      -0.20000000       0.10000000 </v>
   <v>       0.34615385      -0.20000000       0.10000000 </v>
   <v>       0.38461538      -0.20000000       0.10000000 </v>
   <v>       0.42307692      -0.20000000       0.10000000 </v>
   <v>       0.46153846      -0.20000000       0.10000000 </v>
   <v>       0.50000000      -0.20000000       0.10000000 </v>
   <v>      -0.46153846      -0.20000000       0.10000000 </v>
   <v>      -0.42307692      -0.20000000       0.10000000 </v>
   <v>      -0.38461538      -0.20000000       0.10000000 </v>
   <v>      -0.34615385      -0.20000000       0.10000000 </v>
   <v>      -0.30769231      -0.20000000       0.10000000 </v>
   <v>      -0.26923077      -0.20000000       0.10000000 </v>
   <v>      -0.23076923      -0.20000000       0.10000000 </v>
   <v>      -0.19230769      -0.20000000       0.10000000 </v>
   <v>      -0.15384615      -0.20000000       0.10000000 </v>
   <v>      -0.11538462      -0.20000000       0.10000000 </v>
   <v>      -0.07692308      -0.20000000       0.10000000 </v>
   <v>      -0.03846154      -0.20000000       0.10000000 </v>
   <v>       0.00000000      -0.13333333       0.10000000 </v>
   <v>       0.03846154      -0.13333333       0.10000000 </v>
   <v>       0.07692308      -0.13333333       0.10000000 </v>
   <v>       0.11538462      -0.13333333       0.10000000 </v>
   <v>       0.15384615      -0.13333333       0.10000000 </v>
   <v>       0.19230769      -0.13333333       0.10000000 </v>
   <v>       0.23076923      -0.13333333       0.10000000 </v>
   <v>       0.26923077      -0.13333333       0.10000000 </v>
   <v>       0.30769231      -0.13333333       0.10000000 </v>
   <v>       0.34615385      -0.13333333       0.10000000 </v>
   <v>       0.38461538      -0.13333333       0.10000000 </v>
   <v>       0.42307692      -0.13333333       0.10000000 </v>
   <v>       0.46153846      -0.13333333       0.10000000 </v>
   <v>       0.50000000      -0.13333333       0.10000000 </v>
   <v>      -0.46153846      -0.13333333       0.10000000 </v>
   <v>      -0.42307692      -0.13333333       0.10000000 </v>
   <v>      -0.38461538      -0.13333333       0.10000000 </v>
   <v>      -0.34615385      -0.13333333       0.10000000 </v>
   <v>      -0.30769231      -0.13333333       0.10000000 </v>
   <v>      -0.26923077      -0.13333333       0.10000000 </v>
   <v>      -0.23076923      -0.13333333       0.10000000 </v>
   <v>      -0.19230769      -0.13333333       0.10000000 </v>
   <v>      -0.15384615      -0.13333333       0.10000000 </v>
   <v>      -0.11538462      -0.13333333       0.10000000 </v>
   <v>      -0.07692308      -0.13333333       0.10000000 </v>
   <v>      -0.03846154      -0.13333333       0.10000000 </v>
   <v>       0.00000000      -0.06666667       0.10000000 </v>
   <v>       0.03846154      -0.06666667       0.10000000 </v>
   <v>       0.07692308      -0.06666667       0.10000000 </v>
   <v>       0.11538462      -0.06666667       0.10000000 </v>
   <v>       0.15384615      -0.06666667       0.10000000 </v>
   <v>       0.19230769      -0.06666667       0.10000000 </v>
   <v>       0.23076923      -0.06666667       0.10000000 </v>
   <v>       0.26923077      -0.06666667       0.10000000 </v>
   <v>       0.30769231      -0.06666667       0.10000000 </v>
   <v>       0.34615385      -0.06666667       0.10000000 </v>
   <v>       0.38461538      -0.06666667       0.10000000 </v>
   <v>       0.42307692      -0.06666667       0.10000000 </v>
   <v>       0.46153846      -0.06666667       0.10000000 </v>
   <v>       0.50000000      -0.06666667       0.10000000 </v>
   <v>      -0.46153846      -0.06666667       0.10000000 </v>
   <v>      -0.42307692      -0.06666667       0.10000000 </v>
   <v>      -0.38461538      -0.06666667       0.10000000 </v>
   <v>      -0.34615385      -0.06666667       0.10000000 </v>
   <v>      -0.30769231      -0.06666667       0.10000000 </v>
   <v>      -0.26923077      -0.06666667       0.10000000 </v>
   <v>      -0.23076923      -0.06666667       0.10000000 </v>
   <v>      -0.19230769      -0.06666667       0.10000000 </v>
   <v>      -0.15384615      -0.06666667       0.10000000 </v>
   <v>      -0.11538462      -0.06666667       0.10000000 </v>
   <v>      -0.07692308      -0.06666667       0.10000000 </v>
   <v>      -0.03846154      -0.06666667       0.10000000 </v>
   <v>       0.00000000       0.00000000       0.20000000 </v>
   <v>       0.03846154       0.00000000       0.20000000 </v>
   <v>       0.07692308       0.00000000       0.20000000 </v>
   <v>       0.11538462       0.00000000       0.20000000 </v>
   <v>       0.15384615       0.00000000       0.20000000 </v>
   <v>       0.19230769       0.00000000       0.20000000 </v>
   <v>       0.23076923       0.00000000       0.20000000 </v>
   <v>       0.26923077       0.00000000       0.20000000 </v>
   <v>       0.30769231       0.00000000       0.20000000 </v>
   <v>       0.34615385       0.00000000       0.20000000 </v>
   <v>       0.38461538       0.00000000       0.20000000 </v>
   <v>       0.42307692       0.00000000       0.20000000 </v>
   <v>       0.46153846       0.00000000       0.20000000 </v>
   <v>       0.50000000       0.00000000       0.20000000 </v>
   <v>      -0.46153846       0.00000000       0.20000000 </v>
   <v>      -0.42307692       0.00000000       0.20000000 </v>
   <v>      -0.38461538       0.00000000       0.20000000 </v>
   <v>      -0.34615385       0.00000000       0.20000000 </v>
   <v>      -0.30769231       0.00000000       0.20000000 </v>
   <v>      -0.26923077       0.00000000       0.20000000 </v>
   <v>      -0.23076923       0.00000000       0.20000000 </v>
   <v>      -0.19230769       0.00000000       0.20000000 </v>
   <v>      -0.15384615       0.00000000       0.20000000 </v>
   <v>      -0.11538462       0.00000000       0.20000000 </v>
   <v>      -0.07692308       0.00000000       0.20000000 </v>
   <v>      -0.03846154       0.00000000       0.20000000 </v>
   <v>       0.00000000       0.06666667       0.20000000 </v>
   <v>       0.03846154       0.06666667       0.20000000 </v>
   <v>       0.07692308       0.06666667       0.20000000 </v>
   <v>       0.11538462       0.06666667       0.20000000 </v>
   <v>       0.15384615       0.06666667       0.20000000 </v>
   <v>       0.19230769       0.06666667       0.20000000 </v>
   <v>       0.23076923       0.06666667       0.20000000 </v>
   <v>       0.26923077       0.06666667       0.20000000 </v>
   <v>       0.30769231       0.06666667       0.20000000 </v>
   <v>       0.34615385       0.06666667       0.20000000 </v>
   <v>       0.38461538       0.06666667       0.20000000 </v>
   <v>       0.42307692       0.06666667       0.20000000 </v>
   <v>       0.46153846       0.06666667       0.20000000 </v>
   <v>       0.50000000       0.06666667       0.20000000 </v>
   <v>      -0.46153846       0.06666667       0.20000000 </v>
   <v>      -0.42307692       0.06666667       0.20000000 </v>
   <v>      -0.38461538       0.06666667       0.20000000 </v>
   <v>      -0.34615385       0.06666667       0.20000000 </v>
   <v>      -0.30769231       0.06666667       0.20000000 </v>
   <v>      -0.26923077       0.06666667       0.20000000 </v>
   <v>      -0.23076923       0.06666667       0.20000000 </v>
   <v>      -0.19230769       0.06666667       0.20000000 </v>
   <v>      -0.15384615       0.06666667       0.20000000 </v>
   <v>      -0.11538462       0.06666667       0.20000000 </v>
   <v>      -0.07692308       0.06666667       0.20000000 </v>
   <v>      -0.03846154       0.06666667       0.20000000 </v>
   <v>       0.00000000       0.13333333       0.20000000 </v>
   <v>       0.03846154       0.13333333       0.20000000 </v>
   <v>       0.07692308       0.13333333       0.20000000 </v>
   <v>       0.11538462       0.13333333       0.20000000 </v>
   <v>       0.15384615       0.13333333       0.20000000 </v>
   <v>       0.19230769       0.13333333       0.20000000 </v>
   <v>       0.23076923       0.13333333       0.20000000 </v>
   <v>       0.26923077       0.13333333       0.20000000 </v>
   <v>       0.30769231       0.13333333       0.20000000 </v>
   <v>       0.34615385       0.13333333       0.20000000 </v>
   <v>       0.38461538       0.13333333       0.20000000 </v>
   <v>       0.42307692       0.13333333       0.20000000 </v>
   <v>       0.46153846       0.13333333       0.20000000 </v>
   <v>       0.50000000       0.13333333       0.20000000 </v>
   <v>      -0.46153846       0.13333333       0.20000000 </v>
   <v>      -0.42307692       0.13333333       0.20000000 </v>
   <v>      -0.38461538       0.13333333       0.20000000 </v>
   <v>      -0.34615385       0.13333333       0.20000000 </v>
   <v>      -0.30769231       0.13333333       0.20000000 </v>
   <v>      -0.26923077       0.13333333       0.20000000 </v>
   <v>      -0.23076923       0.13333333       0.20000000 </v>
   <v>      -0.19230769       0.13333333       0.20000000 </v>
   <v>      -0.15384615       0.13333333       0.20000000 </v>
   <v>      -0.11538462       0.13333333       0.20000000 </v>
   <v>      -0.07692308       0.13333333       0.20000000 </v>
   <v>      -0.03846154       0.13333333       0.20000000 </v>
   <v>       0.00000000       0.20000000       0.20000000 </v>
   <v>       0.03846154       0.20000000       0.20000000 </v>
   <v>       0.07692308       0.20000000       0.20000000 </v>
   <v>       0.11538462       0.20000000       0.20000000 </v>
   <v>       0.15384615       0.20000000       0.20000000 </v>
   <v>       0.19230769       0.20000000       0.20000000 </v>
   <v>       0.23076923       0.20000000       0.20000000 </v>
   <v>       0.26923077       0.20000000       0.20000000 </v>
   <v>       0.30769231       0.20000000       0.20000000 </v>
   <v>       0.34615385       0.20000000       0.20000000 </v>
   <v>       0.38461538       0.20000000       0.20000000 </v>
   <v>       0.42307692       0.20000000       0.20000000 </v>
   <v>       0.46153846       0.20000000       0.20000000 </v>
   <v>       0.50000000       0.20000000       0.20000000 </v>
   <v>      -0.46153846       0.20000000       0.20000000 </v>
   <v>      -0.42307692       0.20000000       0.20000000 </v>
   <v>      -0.38461538       0.20000000       0.20000000 </v>
   <v>      -0.34615385       0.20000000       0.20000000 </v>
   <v>      -0.30769231       0.20000000       0.20000000 </v>
   <v>      -0.26923077       0.20000000       0.20000000 </v>
   <v>      -0.23076923       0.20000000       0.20000000 </v>
   <v>      -0.19230769       0.20000000       0.20000000 </v>
   <v>      -0.15384615       0.20000000       0.20000000 </v>
   <v>      -0.11538462       0.20000000       0.20000000 </v>
   <v>      -0.07692308       0.20000000       0.20000000 </v>
   <v>      -0.03846154       0.20000000       0.20000000 </v>
   <v>       0.00000000       0.26666667       0.20000000 </v>
   <v>       0.03846154       0.26666667       0.20000000 </v>
   <v>       0.07692308       0.26666667       0.20000000 </v>
   <v>       0.11538462       0.26666667       0.20000000 </v>
   <v>       0.15384615       0.26666667       0.20000000 </v>
   <v>       0.19230769       0.26666667       0.20000000 </v>
   <v>       0.23076923       0.26666667       0.20000000 </v>
   <v>       0.26923077       0.26666667       0.20000000 </v>
   <v>       0.30769231       0.26666667       0.20000000 </v>
   <v>       0.34615385       0.26666667       0.20000000 </v>
   <v>       0.38461538       0.26666667       0.20000000 </v>
   <v>       0.42307692       0.26666667       0.20000000 </v>
   <v>       0.46153846       0.26666667       0.20000000 </v>
   <v>       0.50000000       0.26666667       0.20000000 </v>
   <v>      -0.46153846       0.26666667       0.20000000 </v>
   <v>      -0.42307692       0.26666667       0.20000000 </v>
   <v>      -0.38461538       0.26666667       0.20000000 </v>
   <v>      -0.34615385       0.26666667       0.20000000 </v>
   <v>      -0.30769231       0.26666667       0.20000000 </v>
   <v>      -0.26923077       0.26666667       0.20000000 </v>
   <v>      -0.23076923       0.26666667       0.20000000 </v>
   <v>      -0.19230769       0.26666667       0.20000000 </v>
   <v>      -0.15384615       0.26666667       0.20000000 </v>
   <v>      -0.11538462       0.26666667       0.20000000 </v>
   <v>      -0.07692308       0.26666667       0.20000000 </v>
   <v>      -0.03846154       0.26666667       0.20000000 </v>
   <v>       0.00000000       0.33333333       0.20000000 </v>
   <v>       0.03846154       0.33333333       0.20000000 </v>
   <v>       0.07692308       0.33333333       0.20000000 </v>
   <v>       0.11538462       0.33333333       0.20000000 </v>
   <v>       0.15384615       0.33333333       0.20000000 </v>
   <v>       0.19230769       0.33333333       0.20000000 </v>
   <v>       0.23076923       0.33333333       0.20000000 </v>
   <v>       0.26923077       0.33333333       0.20000000 </v>
   <v>       0.30769231       0.33333333       0.20000000 </v>
   <v>       0.34615385       0.33333333       0.20000000 </v>
   <v>       0.38461538       0.33333333       0.20000000 </v>
   <v>       0.42307692       0.33333333       0.20000000 </v>
   <v>       0.46153846       0.33333333       0.20000000 </v>
   <v>       0.50000000       0.33333333       0.20000000 </v>
   <v>      -0.46153846       0.33333333       0.20000000 </v>
   <v>      -0.42307692       0.33333333       0.20000000 </v>
   <v>      -0.38461538       0.33333333       0.20000000 </v>
   <v>      -0.34615385       0.33333333       0.20000000 </v>
   <v>      -0.30769231       0.33333333       0.20000000 </v>
   <v>      -0.26923077       0.33333333       0.20000000 </v>
   <v>      -0.23076923       0.33333333       0.20000000 </v>
   <v>      -0.19230769       0.33333333       0.20000000 </v>
   <v>      -0.15384615       0.33333333       0.20000000 </v>
   <v>      -0.11538462       0.33333333       0.20000000 </v>
   <v>      -0.07692308       0.33333333       0.20000000 </v>
   <v>      -0.03846154       0.33333333       0.20000000 </v>
   <v>       0.00000000       0.40000000       0.20000000 </v>
   <v>       0.03846154       0.40000000       0.20000000 </v>
   <v>       0.07692308       0.40000000       0.20000000 </v>
   <v>       0.11538462       0.40000000       0.20000000 </v>
   <v>       0.15384615       0.40000000       0.20000000 </v>
   <v>       0.19230769       0.40000000       0.20000000 </v>
   <v>       0.23076923       0.40000000       0.20000000 </v>
   <v>       0.26923077       0.40000000       0.20000000 </v>
   <v>       0.30769231       0.40000000       0.20000000 </v>
   <v>       0.34615385       0.40000000       0.20000000 </v>
   <v>       0.38461538       0.40000000       0.20000000 </v>
   <v>       0.42307692       0.40000000       0.20000000 </v>
   <v>       0.46153846       0.40000000       0.20000000 </v>
   <v>       0.50000000       0.40000000       0.20000000 </v>
   <v>      -0.46153846       0.40000000       0.20000000 </v>
   <v>      -0.42307692       0.40000000       0.20000000 </v>
   <v>      -0.38461538       0.40000000       0.20000000 </v>
   <v>      -0.34615385       0.40000000       0.20000000 </v>
   <v>      -0.30769231       0.40000000       0.20000000 </v>
   <v>      -0.26923077       0.40000000       0.20000000 </v>
   <v>      -0.23076923       0.40000000       0.20000000 </v>
   <v>      -0.19230769       0.40000000       0.20000000 </v>
   <v>      -0.15384615       0.40000000       0.20000000 </v>
   <v>      -0.11538462       0.40000000       0.20000000 </v>
   <v>      -0.07692308       0.40000000       0.20000000 </v>
   <v>      -0.03846154       0.40000000       0.20000000 </v>
   <v>       0.00000000       0.46666667       0.20000000 </v>
   <v>       0.03846154       0.46666667       0.20000000 </v>
   <v>       0.07692308       0.46666667       0.20000000 </v>
   <v>       0.11538462       0.46666667       0.20000000 </v>
   <v>       0.15384615       0.46666667       0.20000000 </v>
   <v>       0.19230769       0.46666667       0.20000000 </v>
   <v>       0.23076923       0.46666667       0.20000000 </v>
   <v>       0.26923077       0.46666667       0.20000000 </v>
   <v>       0.30769231       0.46666667       0.20000000 </v>
   <v>       0.34615385       0.46666667       0.20000000 </v>
   <v>       0.38461538       0.46666667       0.20000000 </v>
   <v>       0.42307692       0.46666667       0.20000000 </v>
   <v>       0.46153846       0.46666667       0.20000000 </v>
   <v>       0.50000000       0.46666667       0.20000000 </v>
   <v>      -0.46153846       0.46666667       0.20000000 </v>
   <v>      -0.42307692       0.46666667       0.20000000 </v>
   <v>      -0.38461538       0.46666667       0.20000000 </v>
   <v>      -0.34615385       0.46666667       0.20000000 </v>
   <v>      -0.30769231       0.46666667       0.20000000 </v>
   <v>      -0.26923077       0.46666667       0.20000000 </v>
   <v>      -0.23076923       0.46666667       0.20000000 </v>
   <v>      -0.19230769       0.46666667       0.20000000 </v>
   <v>      -0.15384615       0.46666667       0.20000000 </v>
   <v>      -0.11538462       0.46666667       0.20000000 </v>
   <v>      -0.07692308       0.46666667       0.20000000 </v>
   <v>      -0.03846154       0.46666667       0.20000000 </v>
   <v>       0.00000000      -0.46666667       0.20000000 </v>
   <v>       0.03846154      -0.46666667       0.20000000 </v>
   <v>       0.07692308      -0.46666667       0.20000000 </v>
   <v>       0.11538462      -0.46666667       0.20000000 </v>
   <v>       0.15384615      -0.46666667       0.20000000 </v>
   <v>       0.19230769      -0.46666667       0.20000000 </v>
   <v>       0.23076923      -0.46666667       0.20000000 </v>
   <v>       0.26923077      -0.46666667       0.20000000 </v>
   <v>       0.30769231      -0.46666667       0.20000000 </v>
   <v>       0.34615385      -0.46666667       0.20000000 </v>
   <v>       0.38461538      -0.46666667       0.20000000 </v>
   <v>       0.42307692      -0.46666667       0.20000000 </v>
   <v>       0.46153846      -0.46666667       0.20000000 </v>
   <v>       0.50000000      -0.46666667       0.20000000 </v>
   <v>      -0.46153846      -0.46666667       0.20000000 </v>
   <v>      -0.42307692      -0.46666667       0.20000000 </v>
   <v>      -0.38461538      -0.46666667       0.20000000 </v>
   <v>      -0.34615385      -0.46666667       0.20000000 </v>
   <v>      -0.30769231      -0.46666667       0.20000000 </v>
   <v>      -0.26923077      -0.46666667       0.20000000 </v>
   <v>      -0.23076923      -0.46666667       0.20000000 </v>
   <v>      -0.19230769      -0.46666667       0.20000000 </v>
   <v>      -0.15384615      -0.46666667       0.20000000 </v>
   <v>      -0.11538462      -0.46666667       0.20000000 </v>
   <v>      -0.07692308      -0.46666667       0.20000000 </v>
   <v>      -0.03846154      -0.46666667       0.20000000 </v>
   <v>       0.00000000      -0.40000000       0.20000000 </v>
   <v>       0.03846154      -0.40000000       0.20000000 </v>
   <v>       0.07692308      -0.40000000       0.20000000 </v>
   <v>       0.11538462      -0.40000000       0.20000000 </v>
   <v>       0.15384615      -0.40000000       0.20000000 </v>
   <v>       0.19230769      -0.40000000       0.20000000 </v>
   <v>       0.23076923      -0.40000000       0.20000000 </v>
   <v>       0.26923077      -0.40000000       0.20000000 </v>
   <v>       0.30769231      -0.40000000       0.20000000 </v>
   <v>       0.34615385      -0.40000000       0.20000000 </v>
   <v>       0.38461538      -0.40000000       0.20000000 </v>
   <v>       0.42307692      -0.40000000       0.20000000 </v>
   <v>       0.46153846      -0.40000000       0.20000000 </v>
   <v>       0.50000000      -0.40000000       0.20000000 </v>
   <v>      -0.46153846      -0.40000000       0.20000000 </v>
   <v>      -0.42307692      -0.40000000       0.20000000 </v>
   <v>      -0.38461538      -0.40000000       0.20000000 </v>
   <v>      -0.34615385      -0.40000000       0.20000000 </v>
   <v>      -0.30769231      -0.40000000       0.20000000 </v>
   <v>      -0.26923077      -0.40000000       0.20000000 </v>
   <v>      -0.23076923      -0.40000000       0.20000000 </v>
   <v>      -0.19230769      -0.40000000       0.20000000 </v>
   <v>      -0.15384615      -0.40000000       0.20000000 </v>
   <v>      -0.11538462      -0.40000000       0.20000000 </v>
   <v>      -0.07692308      -0.40000000       0.20000000 </v>
   <v>      -0.03846154      -0.40000000       0.20000000 </v>
   <v>       0.00000000      -0.33333333       0.20000000 </v>
   <v>       0.03846154      -0.33333333       0.20000000 </v>
   <v>       0.07692308      -0.33333333       0.20000000 </v>
   <v>       0.11538462      -0.33333333       0.20000000 </v>
   <v>       0.15384615      -0.33333333       0.20000000 </v>
   <v>       0.19230769      -0.33333333       0.20000000 </v>
   <v>       0.23076923      -0.33333333       0.20000000 </v>
   <v>       0.26923077      -0.33333333       0.20000000 </v>
   <v>       0.30769231      -0.33333333       0.20000000 </v>
   <v>       0.34615385      -0.33333333       0.20000000 </v>
   <v>       0.38461538      -0.33333333       0.20000000 </v>
   <v>       0.42307692      -0.33333333       0.20000000 </v>
   <v>       0.46153846      -0.33333333       0.20000000 </v>
   <v>       0.50000000      -0.33333333       0.20000000 </v>
   <v>      -0.46153846      -0.33333333       0.20000000 </v>
   <v>      -0.42307692      -0.33333333       0.20000000 </v>
   <v>      -0.38461538      -0.33333333       0.20000000 </v>
   <v>      -0.34615385      -0.33333333       0.20000000 </v>
   <v>      -0.30769231      -0.33333333       0.20000000 </v>
   <v>      -0.26923077      -0.33333333       0.20000000 </v>
   <v>      -0.23076923      -0.33333333       0.20000000 </v>
   <v>      -0.19230769      -0.33333333       0.20000000 </v>
   <v>      -0.15384615      -0.33333333       0.20000000 </v>
   <v>      -0.11538462      -0.33333333       0.20000000 </v>
   <v>      -0.07692308      -0.33333333       0.20000000 </v>
   <v>      -0.03846154      -0.33333333       0.20000000 </v>
   <v>       0.00000000      -0.26666667       0.20000000 </v>
   <v>       0.03846154      -0.26666667       0.20000000 </v>
   <v>       0.07692308      -0.26666667       0.20000000 </v>
   <v>       0.11538462      -0.26666667       0.20000000 </v>
   <v>       0.15384615      -0.26666667       0.20000000 </v>
   <v>       0.19230769      -0.26666667       0.20000000 </v>
   <v>       0.23076923      -0.26666667       0.20000000 </v>
   <v>       0.26923077      -0.26666667       0.20000000 </v>
   <v>       0.30769231      -0.26666667       0.20000000 </v>
   <v>       0.34615385      -0.26666667       0.20000000 </v>
   <v>       0.38461538      -0.26666667       0.20000000 </v>
   <v>       0.42307692      -0.26666667       0.20000000 </v>
   <v>       0.46153846      -0.26666667       0.20000000 </v>
   <v>       0.50000000      -0.26666667       0.20000000 </v>
   <v>      -0.46153846      -0.26666667       0.20000000 </v>
   <v>      -0.42307692      -0.26666667       0.20000000 </v>
   <v>      -0.38461538      -0.26666667       0.20000000 </v>
   <v>      -0.34615385      -0.26666667       0.20000000 </v>
   <v>      -0.30769231      -0.26666667       0.20000000 </v>
   <v>      -0.26923077      -0.26666667       0.20000000 </v>
   <v>      -0.23076923      -0.26666667       0.20000000 </v>
   <v>      -0.19230769      -0.26666667       0.20000000 </v>
   <v>      -0.15384615      -0.26666667       0.20000000 </v>
   <v>      -0.11538462      -0.26666667       0.20000000 </v>
   <v>      -0.07692308      -0.26666667       0.20000000 </v>
   <v>      -0.03846154      -0.26666667       0.20000000 </v>
   <v>       0.00000000      -0.20000000       0.20000000 </v>
   <v>       0.03846154      -0.20000000       0.20000000 </v>
   <v>       0.07692308      -0.20000000       0.20000000 </v>
   <v>       0.11538462      -0.20000000       0.20000000 </v>
   <v>       0.15384615      -0.20000000       0.20000000 </v>
   <v>       0.19230769      -0.20000000       0.20000000 </v>
   <v>       0.23076923      -0.20000000       0.20000000 </v>
   <v>       0.26923077      -0.20000000       0.20000000 </v>
   <v>       0.30769231      -0.20000000       0.20000000 </v>
   <v>       0.34615385      -0.20000000       0.20000000 </v>
   <v>       0.38461538      -0.20000000       0.20000000 </v>
   <v>       0.42307692      -0.20000000       0.20000000 </v>
   <v>       0.46153846      -0.20000000       0.20000000 </v>
   <v>       0.50000000      -0.20000000       0.20000000 </v>
   <v>      -0.46153846      -0.20000000       0.20000000 </v>
   <v>      -0.42307692      -0.20000000       0.20000000 </v>
   <v>      -0.38461538      -0.20000000       0.20000000 </v>
   <v>      -0.34615385      -0.20000000       0.20000000 </v>
   <v>      -0.30769231      -0.20000000       0.20000000 </v>
   <v>      -0.26923077      -0.20000000       0.20000000 </v>
   <v>      -0.23076923      -0.20000000       0.20000000 </v>
   <v>      -0.19230769      -0.20000000       0.20000000 </v>
   <v>      -0.15384615      -0.20000000       0.20000000 </v>
   <v>      -0.11538462      -0.20000000       0.20000000 </v>
   <v>      -0.07692308      -0.20000000       0.20000000 </v>
   <v>      -0.03846154      -0.20000000       0.20000000 </v>
   <v>       0.00000000      -0.13333333       0.20000000 </v>
   <v>       0.03846154      -0.13333333       0.20000000 </v>
   <v>       0.07692308      -0.13333333       0.20000000 </v>
   <v>       0.11538462      -0.13333333       0.20000000 </v>
   <v>       0.15384615      -0.13333333       0.20000000 </v>
   <v>       0.19230769      -0.13333333       0.20000000 </v>
   <v>       0.23076923      -0.13333333       0.20000000 </v>
   <v>       0.26923077      -0.13333333       0.20000000 </v>
   <v>       0.30769231      -0.13333333       0.20000000 </v>
   <v>       0.34615385      -0.13333333       0.20000000 </v>
   <v>       0.38461538      -0.13333333       0.20000000 </v>
   <v>       0.42307692      -0.13333333       0.20000000 </v>
   <v>       0.46153846      -0.13333333       0.20000000 </v>
   <v>       0.50000000      -0.13333333       0.20000000 </v>
   <v>      -0.46153846      -0.13333333       0.20000000 </v>
   <v>      -0.42307692      -0.13333333       0.20000000 </v>
   <v>      -0.38461538      -0.13333333       0.20000000 </v>
   <v>      -0.34615385      -0.13333333       0.20000000 </v>
   <v>      -0.30769231      -0.13333333       0.20000000 </v>
   <v>      -0.26923077      -0.13333333       0.20000000 </v>
   <v>      -0.23076923      -0.13333333       0.20000000 </v>
   <v>      -0.19230769      -0.13333333       0.20000000 </v>
   <v>      -0.15384615      -0.13333333       0.20000000 </v>
   <v>      -0.11538462      -0.13333333       0.20000000 </v>
   <v>      -0.07692308      -0.13333333       0.20000000 </v>
   <v>      -0.03846154      -0.13333333       0.20000000 </v>
   <v>       0.00000000      -0.06666667       0.20000000 </v>
   <v>       0.03846154      -0.06666667       0.20000000 </v>
   <v>       0.07692308      -0.06666667       0.20000000 </v>
   <v>       0.11538462      -0.06666667       0.20000000 </v>
   <v>       0.15384615      -0.06666667       0.20000000 </v>
   <v>       0.19230769      -0.06666667       0.20000000 </v>
   <v>       0.23076923      -0.06666667       0.20000000 </v>
   <v>       0.26923077      -0.06666667       0.20000000 </v>
   <v>       0.30769231      -0.06666667       0.20000000 </v>
   <v>       0.34615385      -0.06666667       0.20000000 </v>
   <v>       0.38461538      -0.06666667       0.20000000 </v>
   <v>       0.42307692      -0.06666667       0.20000000 </v>
   <v>       0.46153846      -0.06666667       0.20000000 </v>
   <v>       0.50000000      -0.06666667       0.20000000 </v>
   <v>      -0.46153846      -0.06666667       0.20000000 </v>
   <v>      -0.42307692      -0.06666667       0.20000000 </v>
   <v>      -0.38461538      -0.06666667       0.20000000 </v>
   <v>      -0.34615385      -0.06666667       0.20000000 </v>
   <v>      -0.30769231      -0.06666667       0.20000000 </v>
   <v>      -0.26923077      -0.06666667       0.20000000 </v>
   <v>      -0.23076923      -0.06666667       0.20000000 </v>
   <v>      -0.19230769      -0.06666667       0.20000000 </v>
   <v>      -0.15384615      -0.06666667       0.20000000 </v>
   <v>      -0.11538462      -0.06666667       0.20000000 </v>
   <v>      -0.07692308      -0.06666667       0.20000000 </v>
   <v>      -0.03846154      -0.06666667       0.20000000 </v>
   <v>       0.00000000       0.00000000       0.30000000 </v>
   <v>       0.03846154       0.00000000       0.30000000 </v>
   <v>       0.07692308       0.00000000       0.30000000 </v>
   <v>       0.11538462       0.00000000       0.30000000 </v>
   <v>       0.15384615       0.00000000       0.30000000 </v>
   <v>       0.19230769       0.00000000       0.30000000 </v>
   <v>       0.23076923       0.00000000       0.30000000 </v>
   <v>       0.26923077       0.00000000       0.30000000 </v>
   <v>       0.30769231       0.00000000       0.30000000 </v>
   <v>       0.34615385       0.00000000       0.30000000 </v>
   <v>       0.38461538       0.00000000       0.30000000 </v>
   <v>       0.42307692       0.00000000       0.30000000 </v>
   <v>       0.46153846       0.00000000       0.30000000 </v>
   <v>       0.50000000       0.00000000       0.30000000 </v>
   <v>      -0.46153846       0.00000000       0.30000000 </v>
   <v>      -0.42307692       0.00000000       0.30000000 </v>
   <v>      -0.38461538       0.00000000       0.30000000 </v>
   <v>      -0.34615385       0.00000000       0.30000000 </v>
   <v>      -0.30769231       0.00000000       0.30000000 </v>
   <v>      -0.26923077       0.00000000       0.30000000 </v>
   <v>      -0.23076923       0.00000000       0.30000000 </v>
   <v>      -0.19230769       0.00000000       0.30000000 </v>
   <v>      -0.15384615       0.00000000       0.30000000 </v>
   <v>      -0.11538462       0.00000000       0.30000000 </v>
   <v>      -0.07692308       0.00000000       0.30000000 </v>
   <v>      -0.03846154       0.00000000       0.30000000 </v>
   <v>       0.00000000       0.06666667       0.30000000 </v>
   <v>       0.03846154       0.06666667       0.30000000 </v>
   <v>       0.07692308       0.06666667       0.30000000 </v>
   <v>       0.11538462       0.06666667       0.30000000 </v>
   <v>       0.15384615       0.06666667       0.30000000 </v>
   <v>       0.19230769       0.06666667       0.30000000 </v>
   <v>       0.23076923       0.06666667       0.30000000 </v>
   <v>       0.26923077       0.06666667       0.30000000 </v>
   <v>       0.30769231       0.06666667       0.30000000 </v>
   <v>       0.34615385       0.06666667       0.30000000 </v>
   <v>       0.38461538       0.06666667       0.30000000 </v>
   <v>       0.42307692       0.06666667       0.30000000 </v>
   <v>       0.46153846       0.06666667       0.30000000 </v>
   <v>       0.50000000       0.06666667       0.30000000 </v>
   <v>      -0.46153846       0.06666667       0.30000000 </v>
   <v>      -0.42307692       0.06666667       0.30000000 </v>
   <v>      -0.38461538       0.06666667       0.30000000 </v>
   <v>      -0.34615385       0.06666667       0.30000000 </v>
   <v>      -0.30769231       0.06666667       0.30000000 </v>
   <v>      -0.26923077       0.06666667       0.30000000 </v>
   <v>      -0.23076923       0.06666667       0.30000000 </v>
   <v>      -0.19230769       0.06666667       0.30000000 </v>
   <v>      -0.15384615       0.06666667       0.30000000 </v>
   <v>      -0.11538462       0.06666667       0.30000000 </v>
   <v>      -0.07692308       0.06666667       0.30000000 </v>
   <v>      -0.03846154       0.06666667       0.30000000 </v>
   <v>       0.00000000       0.13333333       0.30000000 </v>
   <v>       0.03846154       0.13333333       0.30000000 </v>
   <v>       0.07692308       0.13333333       0.30000000 </v>
   <v>       0.11538462       0.13333333       0.30000000 </v>
   <v>       0.15384615       0.13333333       0.30000000 </v>
   <v>       0.19230769       0.13333333       0.30000000 </v>
   <v>       0.23076923       0.13333333       0.30000000 </v>
   <v>       0.26923077       0.13333333       0.30000000 </v>
   <v>       0.30769231       0.13333333       0.30000000 </v>
   <v>       0.34615385       0.13333333       0.30000000 </v>
   <v>       0.38461538       0.13333333       0.30000000 </v>
   <v>       0.42307692       0.13333333       0.30000000 </v>
   <v>       0.46153846       0.13333333       0.30000000 </v>
   <v>       0.50000000       0.13333333       0.30000000 </v>
   <v>      -0.46153846       0.13333333       0.30000000 </v>
   <v>      -0.42307692       0.13333333       0.30000000 </v>
   <v>      -0.38461538       0.13333333       0.30000000 </v>
   <v>      -0.34615385       0.13333333       0.30000000 </v>
   <v>      -0.30769231       0.13333333       0.30000000 </v>
   <v>      -0.26923077       0.13333333       0.30000000 </v>
   <v>      -0.23076923       0.13333333       0.30000000 </v>
   <v>      -0.19230769       0.13333333       0.30000000 </v>
   <v>      -0.15384615       0.13333333       0.30000000 </v>
   <v>      -0.11538462       0.13333333       0.30000000 </v>
   <v>      -0.07692308       0.13333333       0.30000000 </v>
   <v>      -0.03846154       0.13333333       0.30000000 </v>
   <v>       0.00000000       0.20000000       0.30000000 </v>
   <v>       0.03846154       0.20000000       0.30000000 </v>
   <v>       0.07692308       0.20000000       0.30000000 </v>
   <v>       0.11538462       0.20000000       0.30000000 </v>
   <v>       0.15384615       0.20000000       0.30000000 </v>
   <v>       0.19230769       0.20000000       0.30000000 </v>
   <v>       0.23076923       0.20000000       0.30000000 </v>
   <v>       0.26923077       0.20000000       0.30000000 </v>
   <v>       0.30769231       0.20000000       0.30000000 </v>
   <v>       0.34615385       0.20000000       0.30000000 </v>
   <v>       0.38461538       0.20000000       0.30000000 </v>
   <v>       0.42307692       0.20000000       0.30000000 </v>
   <v>       0.46153846       0.20000000       0.30000000 </v>
   <v>       0.50000000       0.20000000       0.30000000 </v>
   <v>      -0.46153846       0.20000000       0.30000000 </v>
   <v>      -0.42307692       0.20000000       0.30000000 </v>
   <v>      -0.38461538       0.20000000       0.30000000 </v>
   <v>      -0.34615385       0.20000000       0.30000000 </v>
   <v>      -0.30769231       0.20000000       0.30000000 </v>
   <v>      -0.26923077       0.20000000       0.30000000 </v>
   <v>      -0.23076923       0.20000000       0.30000000 </v>
   <v>      -0.19230769       0.20000000       0.30000000 </v>
   <v>      -0.15384615       0.20000000       0.30000000 </v>
   <v>      -0.11538462       0.20000000       0.30000000 </v>
   <v>      -0.07692308       0.20000000       0.30000000 </v>
   <v>      -0.03846154       0.20000000       0.30000000 </v>
   <v>       0.00000000       0.26666667       0.30000000 </v>
   <v>       0.03846154       0.26666667       0.30000000 </v>
   <v>       0.07692308       0.26666667       0.30000000 </v>
   <v>       0.11538462       0.26666667       0.30000000 </v>
   <v>       0.15384615       0.26666667       0.30000000 </v>
   <v>       0.19230769       0.26666667       0.30000000 </v>
   <v>       0.23076923       0.26666667       0.30000000 </v>
   <v>       0.26923077       0.26666667       0.30000000 </v>
   <v>       0.30769231       0.26666667       0.30000000 </v>
   <v>       0.34615385       0.26666667       0.30000000 </v>
   <v>       0.38461538       0.26666667       0.30000000 </v>
   <v>       0.42307692       0.26666667       0.30000000 </v>
   <v>       0.46153846       0.26666667       0.30000000 </v>
   <v>       0.50000000       0.26666667       0.30000000 </v>
   <v>      -0.46153846       0.26666667       0.30000000 </v>
   <v>      -0.42307692       0.26666667       0.30000000 </v>
   <v>      -0.38461538       0.26666667       0.30000000 </v>
   <v>      -0.34615385       0.26666667       0.30000000 </v>
   <v>      -0.30769231       0.26666667       0.30000000 </v>
   <v>      -0.26923077       0.26666667       0.30000000 </v>
   <v>      -0.23076923       0.26666667       0.30000000 </v>
   <v>      -0.19230769       0.26666667       0.30000000 </v>
   <v>      -0.15384615       0.26666667       0.30000000 </v>
   <v>      -0.11538462       0.26666667       0.30000000 </v>
   <v>      -0.07692308       0.26666667       0.30000000 </v>
   <v>      -0.03846154       0.26666667       0.30000000 </v>
   <v>       0.00000000       0.33333333       0.30000000 </v>
   <v>       0.03846154       0.33333333       0.30000000 </v>
   <v>       0.07692308       0.33333333       0.30000000 </v>
   <v>       0.11538462       0.33333333       0.30000000 </v>
   <v>       0.15384615       0.33333333       0.30000000 </v>
   <v>       0.19230769       0.33333333       0.30000000 </v>
   <v>       0.23076923       0.33333333       0.30000000 </v>
   <v>       0.26923077       0.33333333       0.30000000 </v>
   <v>       0.30769231       0.33333333       0.30000000 </v>
   <v>       0.34615385       0.33333333       0.30000000 </v>
   <v>       0.38461538       0.33333333       0.30000000 </v>
   <v>       0.42307692       0.33333333       0.30000000 </v>
   <v>       0.46153846       0.33333333       0.30000000 </v>
   <v>       0.50000000       0.33333333       0.30000000 </v>
   <v>      -0.46153846       0.33333333       0.30000000 </v>
   <v>      -0.42307692       0.33333333       0.30000000 </v>
   <v>      -0.38461538       0.33333333       0.30000000 </v>
   <v>      -0.34615385       0.33333333       0.30000000 </v>
   <v>      -0.30769231       0.33333333       0.30000000 </v>
   <v>      -0.26923077       0.33333333       0.30000000 </v>
   <v>      -0.23076923       0.33333333       0.30000000 </v>
   <v>      -0.19230769       0.33333333       0.30000000 </v>
   <v>      -0.15384615       0.33333333       0.30000000 </v>
   <v>      -0.11538462       0.33333333       0.30000000 </v>
   <v>      -0.07692308       0.33333333       0.30000000 </v>
   <v>      -0.03846154       0.33333333       0.30000000 </v>
   <v>       0.00000000       0.40000000       0.30000000 </v>
   <v>       0.03846154       0.40000000       0.30000000 </v>
   <v>       0.07692308       0.40000000       0.30000000 </v>
   <v>       0.11538462       0.40000000       0.30000000 </v>
   <v>       0.15384615       0.40000000       0.30000000 </v>
   <v>       0.19230769       0.40000000       0.30000000 </v>
   <v>       0.23076923       0.40000000       0.30000000 </v>
   <v>       0.26923077       0.40000000       0.30000000 </v>
   <v>       0.30769231       0.40000000       0.30000000 </v>
   <v>       0.34615385       0.40000000       0.30000000 </v>
   <v>       0.38461538       0.40000000       0.30000000 </v>
   <v>       0.42307692       0.40000000       0.30000000 </v>
   <v>       0.46153846       0.40000000       0.30000000 </v>
   <v>       0.50000000       0.40000000       0.30000000 </v>
   <v>      -0.46153846       0.40000000       0.30000000 </v>
   <v>      -0.42307692       0.40000000       0.30000000 </v>
   <v>      -0.38461538       0.40000000       0.30000000 </v>
   <v>      -0.34615385       0.40000000       0.30000000 </v>
   <v>      -0.30769231       0.40000000       0.30000000 </v>
   <v>      -0.26923077       0.40000000       0.30000000 </v>
   <v>      -0.23076923       0.40000000       0.30000000 </v>
   <v>      -0.19230769       0.40000000       0.30000000 </v>
   <v>      -0.15384615       0.40000000       0.30000000 </v>
   <v>      -0.11538462       0.40000000       0.30000000 </v>
   <v>      -0.07692308       0.40000000       0.30000000 </v>
   <v>      -0.03846154       0.40000000       0.30000000 </v>
   <v>       0.00000000       0.46666667       0.30000000 </v>
   <v>       0.03846154       0.46666667       0.30000000 </v>
   <v>       0.07692308       0.46666667       0.30000000 </v>
   <v>       0.11538462       0.46666667       0.30000000 </v>
   <v>       0.15384615       0.46666667       0.30000000 </v>
   <v>       0.19230769       0.46666667       0.30000000 </v>
   <v>       0.23076923       0.46666667       0.30000000 </v>
   <v>       0.26923077       0.46666667       0.30000000 </v>
   <v>       0.30769231       0.46666667       0.30000000 </v>
   <v>       0.34615385       0.46666667       0.30000000 </v>
   <v>       0.38461538       0.46666667       0.30000000 </v>
   <v>       0.42307692       0.46666667       0.30000000 </v>
   <v>       0.46153846       0.46666667       0.30000000 </v>
   <v>       0.50000000       0.46666667       0.30000000 </v>
   <v>      -0.46153846       0.46666667       0.30000000 </v>
   <v>      -0.42307692       0.46666667       0.30000000 </v>
   <v>      -0.38461538       0.46666667       0.30000000 </v>
   <v>      -0.34615385       0.46666667       0.30000000 </v>
   <v>      -0.30769231       0.46666667       0.30000000 </v>
   <v>      -0.26923077       0.46666667       0.30000000 </v>
   <v>      -0.23076923       0.46666667       0.30000000 </v>
   <v>      -0.19230769       0.46666667       0.30000000 </v>
   <v>      -0.15384615       0.46666667       0.30000000 </v>
   <v>      -0.11538462       0.46666667       0.30000000 </v>
   <v>      -0.07692308       0.46666667       0.30000000 </v>
   <v>      -0.03846154       0.46666667       0.30000000 </v>
   <v>       0.00000000      -0.46666667       0.30000000 </v>
   <v>       0.03846154      -0.46666667       0.30000000 </v>
   <v>       0.07692308      -0.46666667       0.30000000 </v>
   <v>       0.11538462      -0.46666667       0.30000000 </v>
   <v>       0.15384615      -0.46666667       0.30000000 </v>
   <v>       0.19230769      -0.46666667       0.30000000 </v>
   <v>       0.23076923      -0.46666667       0.30000000 </v>
   <v>       0.26923077      -0.46666667       0.30000000 </v>
   <v>       0.30769231      -0.46666667       0.30000000 </v>
   <v>       0.34615385      -0.46666667       0.30000000 </v>
   <v>       0.38461538      -0.46666667       0.30000000 </v>
   <v>       0.42307692      -0.46666667       0.30000000 </v>
   <v>       0.46153846      -0.46666667       0.30000000 </v>
   <v>       0.50000000      -0.46666667       0.30000000 </v>
   <v>      -0.46153846      -0.46666667       0.30000000 </v>
   <v>      -0.42307692      -0.46666667       0.30000000 </v>
   <v>      -0.38461538      -0.46666667       0.30000000 </v>
   <v>      -0.34615385      -0.46666667       0.30000000 </v>
   <v>      -0.30769231      -0.46666667       0.30000000 </v>
   <v>      -0.26923077      -0.46666667       0.30000000 </v>
   <v>      -0.23076923      -0.46666667       0.30000000 </v>
   <v>      -0.19230769      -0.46666667       0.30000000 </v>
   <v>      -0.15384615      -0.46666667       0.30000000 </v>
   <v>      -0.11538462      -0.46666667       0.30000000 </v>
   <v>      -0.07692308      -0.46666667       0.30000000 </v>
   <v>      -0.03846154      -0.46666667       0.30000000 </v>
   <v>       0.00000000      -0.40000000       0.30000000 </v>
   <v>       0.03846154      -0.40000000       0.30000000 </v>
   <v>       0.07692308      -0.40000000       0.30000000 </v>
   <v>       0.11538462      -0.40000000       0.30000000 </v>
   <v>       0.15384615      -0.40000000       0.30000000 </v>
   <v>       0.19230769      -0.40000000       0.30000000 </v>
   <v>       0.23076923      -0.40000000       0.30000000 </v>
   <v>       0.26923077      -0.40000000       0.30000000 </v>
   <v>       0.30769231      -0.40000000       0.30000000 </v>
   <v>       0.34615385      -0.40000000       0.30000000 </v>
   <v>       0.38461538      -0.40000000       0.30000000 </v>
   <v>       0.42307692      -0.40000000       0.30000000 </v>
   <v>       0.46153846      -0.40000000       0.30000000 </v>
   <v>       0.50000000      -0.40000000       0.30000000 </v>
   <v>      -0.46153846      -0.40000000       0.30000000 </v>
   <v>      -0.42307692      -0.40000000       0.30000000 </v>
   <v>      -0.38461538      -0.40000000       0.30000000 </v>
   <v>      -0.34615385      -0.40000000       0.30000000 </v>
   <v>      -0.30769231      -0.40000000       0.30000000 </v>
   <v>      -0.26923077      -0.40000000       0.30000000 </v>
   <v>      -0.23076923      -0.40000000       0.30000000 </v>
   <v>      -0.19230769      -0.40000000       0.30000000 </v>
   <v>      -0.15384615      -0.40000000       0.30000000 </v>
   <v>      -0.11538462      -0.40000000       0.30000000 </v>
   <v>      -0.07692308      -0.40000000       0.30000000 </v>
   <v>      -0.03846154      -0.40000000       0.30000000 </v>
   <v>       0.00000000      -0.33333333       0.30000000 </v>
   <v>       0.03846154      -0.33333333       0.30000000 </v>
   <v>       0.07692308      -0.33333333       0.30000000 </v>
   <v>       0.11538462      -0.33333333       0.30000000 </v>
   <v>       0.15384615      -0.33333333       0.30000000 </v>
   <v>       0.19230769      -0.33333333       0.30000000 </v>
[...]
       <r>    5.2431    1.0000 </r>
       <r>    5.3528    1.0000 </r>
       <r>    5.4173    1.0000 </r>
       <r>    5.6118    1.0000 </r>
       <r>    5.6690    1.0000 </r>
       <r>    5.8088    1.0000 </r>
       <r>    6.0942    1.0000 </r>
       <r>    6.1508    1.0000 </r>
       <r>    6.1913    1.0000 </r>
       <r>    6.2355    1.0000 </r>
       <r>    6.2773    1.0000 </r>
       <r>    6.3788    1.0000 </r>
       <r>    7.2649    1.0006 </r>
       <r>    8.5403   -0.0233 </r>
       <r>   11.1194    0.0000 </r>
       <r>   11.2759    0.0000 </r>
       <r>   15.6871    0.0000 </r>
       <r>   16.2665    0.0000 </r>
       <r>   16.5441    0.0000 </r>
      </set>
      <set comment="kpoint 1951">
       <r>    0.7808    1.0000 </r>
       <r>    1.2588    1.0000 </r>
       <r>    1.7594    1.0000 </r>
       <r>    1.9295    1.0000 </r>
       <r>    2.0213    1.0000 </r>
       <r>    2.2901    1.0000 </r>
       <r>    2.4657    1.0000 </r>
       <r>    2.7475    1.0000 </r>
       <r>    2.8719    1.0000 </r>
       <r>    3.4592    1.0000 </r>
       <r>    3.4987    1.0000 </r>
       <r>    3.5591    1.0000 </r>
       <r>    3.7281    1.0000 </r>
       <r>    3.8099    1.0000 </r>
       <r>    3.9027    1.0000 </r>
       <r>    3.9420    1.0000 </r>
       <r>    4.3158    1.0000 </r>
       <r>    4.4971    1.0000 </r>
       <r>    4.6656    1.0000 </r>
       <r>    4.6857    1.0000 </r>
       <r>    4.9516    1.0000 </r>
       <r>    5.2818    1.0000 </r>
       <r>    5.3389    1.0000 </r>
       <r>    5.4232    1.0000 </r>
       <r>    5.5448    1.0000 </r>
       <r>    5.6096    1.0000 </r>
       <r>    5.9265    1.0000 </r>
       <r>    6.1832    1.0000 </r>
       <r>    6.1949    1.0000 </r>
       <r>    6.2393    1.0000 </r>
       <r>    6.2493    1.0000 </r>
       <r>    6.2824    1.0000 </r>
       <r>    6.3858    1.0000 </r>
       <r>    6.8596    1.0000 </r>
       <r>    8.0318    0.5844 </r>
       <r>   10.9956    0.0000 </r>
       <r>   11.2093    0.0000 </r>
       <r>   15.9522    0.0000 </r>
       <r>   16.5298    0.0000 </r>
       <r>   16.6892    0.0000 </r>
      </set>
      <set comment="kpoint 1952">
       <r>    0.7417    1.0000 </r>
       <r>    1.1186    1.0000 </r>
       <r>    1.7257    1.0000 </r>
       <r>    1.8617    1.0000 </r>
       <r>    1.9553    1.0000 </r>
       <r>    2.2632    1.0000 </r>
       <r>    2.4558    1.0000 </r>
       <r>    2.7298    1.0000 </r>
       <r>    2.8215    1.0000 </r>
       <r>    3.4712    1.0000 </r>
       <r>    3.5160    1.0000 </r>
       <r>    3.6904    1.0000 </r>
       <r>    3.7614    1.0000 </r>
       <r>    3.8880    1.0000 </r>
       <r>    3.9009    1.0000 </r>
       <r>    4.0181    1.0000 </r>
       <r>    4.3268    1.0000 </r>
       <r>    4.4231    1.0000 </r>
       <r>    4.6539    1.0000 </r>
       <r>    4.7036    1.0000 </r>
       <r>    4.9315    1.0000 </r>
       <r>    5.3116    1.0000 </r>
       <r>    5.3359    1.0000 </r>
       <r>    5.4301    1.0000 </r>
       <r>    5.5021    1.0000 </r>
       <r>    5.5754    1.0000 </r>
       <r>    6.0462    1.0000 </r>
       <r>    6.2288    1.0000 </r>
       <r>    6.2343    1.0000 </r>
       <r>    6.2572    1.0000 </r>
       <r>    6.2933    1.0000 </r>
       <r>    6.3338    1.0000 </r>
       <r>    6.4046    1.0000 </r>
       <r>    6.5600    1.0000 </r>
       <r>    7.6104    1.0274 </r>
       <r>   10.9189    0.0000 </r>
       <r>   11.1806    0.0000 </r>
       <r>   16.0975    0.0000 </r>
       <r>   16.6945    0.0000 </r>
       <r>   16.4853    0.0000 </r>
      </set>
     </set>
    </set>
   </array>
  </eigenvalues>
  <separator name="orbital magnetization" >
   <v name="MAGDIPOLOUT">      0.00000000      0.00000000      0.00000000</v>
  </separator>
  <dos>
   <i name="efermi">      8.06191035 </i>
   <total>
    <array>
     <dimension dim="1">gridpoints</dimension>
     <dimension dim="2">spin</dimension>
     <field>energy</field>
     <field>total</field>
     <field>integrated</field>
     <set>
      <set comment="spin 1">
       <r>    -3.7971     0.0000     0.0000 </r>
       <r>    -3.7176     0.0000     0.0000 </r>
       <r>    -3.6382     0.0000     0.0000 </r>
       <r>    -3.5587     0.0000     0.0000 </r>
       <r>    -3.4793     0.0000     0.0000 </r>
       <r>    -3.3998     0.0000     0.0000 </r>
       <r>    -3.3203     0.0000     0.0000 </r>
       <r>    -3.2409     0.0000     0.0000 </r>
       <r>    -3.1614     0.0000     0.0000 </r>
       <r>    -3.0820     0.0000     0.0000 </r>
       <r>    -3.0025     0.0000     0.0000 </r>
       <r>    -2.9230     0.0000     0.0000 </r>
       <r>    -2.8436     0.0000     0.0000 </r>
       <r>    -2.7641     0.0000     0.0000 </r>
       <r>    -2.6847     0.0000     0.0000 </r>
       <r>    -2.6052     0.0000     0.0000 </r>
       <r>    -2.5258     0.0000     0.0000 </r>
       <r>    -2.4463     0.0000     0.0000 </r>
       <r>    -2.3668     0.0000     0.0000 </r>
       <r>    -2.2874     0.0000     0.0000 </r>
       <r>    -2.2079     0.0000     0.0000 </r>
       <r>    -2.1285     0.0000     0.0000 </r>
       <r>    -2.0490     0.0000     0.0000 </r>
       <r>    -1.9696     0.0000     0.0000 </r>
       <r>    -1.8901     0.0000     0.0000 </r>
       <r>    -1.8106     0.0000     0.0000 </r>
       <r>    -1.7312     0.0000     0.0000 </r>
       <r>    -1.6517     0.0000     0.0000 </r>
       <r>    -1.5723    -0.0001     0.0000 </r>
       <r>    -1.4928    -0.0002     0.0000 </r>
       <r>    -1.4134    -0.0006    -0.0001 </r>
       <r>    -1.3339    -0.0016    -0.0002 </r>
       <r>    -1.2544    -0.0035    -0.0005 </r>
       <r>    -1.1750    -0.0064    -0.0010 </r>
       <r>    -1.0955    -0.0090    -0.0017 </r>
       <r>    -1.0161    -0.0082    -0.0023 </r>
       <r>    -0.9366     0.0013    -0.0022 </r>
       <r>    -0.8571     0.0254    -0.0002 </r>
       <r>    -0.7777     0.0676     0.0051 </r>
       <r>    -0.6982     0.1271     0.0152 </r>
       <r>    -0.6188     0.1987     0.0310 </r>
       <r>    -0.5393     0.2749     0.0529 </r>
       <r>    -0.4599     0.3485     0.0806 </r>
       <r>    -0.3804     0.4135     0.1134 </r>
       <r>    -0.3009     0.4658     0.1504 </r>
       <r>    -0.2215     0.5032     0.1904 </r>
       <r>    -0.1420     0.5268     0.2323 </r>
       <r>    -0.0626     0.5401     0.2752 </r>
       <r>     0.0169     0.5476     0.3187 </r>
       <r>     0.0963     0.5533     0.3627 </r>
       <r>     0.1758     0.5597     0.4071 </r>
       <r>     0.2553     0.5677     0.4522 </r>
       <r>     0.3347     0.5771     0.4981 </r>
       <r>     0.4142     0.5873     0.5448 </r>
       <r>     0.4936     0.5987     0.5923 </r>
       <r>     0.5731     0.6128     0.6410 </r>
       <r>     0.6526     0.6325     0.6913 </r>
       <r>     0.7320     0.6614     0.7438 </r>
       <r>     0.8115     0.7037     0.7998 </r>
       <r>     0.8909     0.7623     0.8603 </r>
       <r>     0.9704     0.8368     0.9268 </r>
       <r>     1.0498     0.9234     1.0002 </r>
       <r>     1.1293     1.0210     1.0813 </r>
       <r>     1.2088     1.1422     1.1721 </r>
       <r>     1.2882     1.3239     1.2773 </r>
       <r>     1.3677     1.6238     1.4063 </r>
       <r>     1.4471     2.0963     1.5729 </r>
       <r>     1.5266     2.7578     1.7920 </r>
       <r>     1.6060     3.5631     2.0751 </r>
       <r>     1.6855     4.4170     2.4261 </r>
       <r>     1.7650     5.2233     2.8411 </r>
       <r>     1.8444     5.9468     3.3136 </r>
       <r>     1.9239     6.6479     3.8418 </r>
       <r>     2.0033     7.4603     4.4346 </r>
       <r>     2.0828     8.5146     5.1112 </r>
       <r>     2.1623     9.8493     5.8938 </r>
       <r>     2.2417    11.3606     6.7965 </r>
       <r>     2.3212    12.8280     7.8157 </r>
       <r>     2.4006    14.0062     8.9286 </r>
       <r>     2.4801    14.7277    10.0989 </r>
       <r>     2.5595    14.9508    11.2868 </r>
       <r>     2.6390    14.7296    12.4572 </r>
       <r>     2.7185    14.1527    13.5818 </r>
       <r>     2.7979    13.3147    14.6397 </r>
       <r>     2.8774    12.3313    15.6195 </r>
       <r>     2.9568    11.3506    16.5214 </r>
       <r>     3.0363    10.5234    17.3576 </r>
       <r>     3.1157     9.9535    18.1485 </r>
       <r>     3.1952     9.6833    18.9179 </r>
       <r>     3.2747     9.7249    19.6906 </r>
       <r>     3.3541    10.0963    20.4928 </r>
       <r>     3.4336    10.8175    21.3524 </r>
       <r>     3.5130    11.8733    22.2958 </r>
       <r>     3.5925    13.1766    23.3428 </r>
       <r>     3.6720    14.5441    24.4984 </r>
       <r>     3.7514    15.6926    25.7453 </r>
       <r>     3.8309    16.2878    27.0395 </r>
       <r>     3.9103    16.0752    28.3168 </r>
       <r>     3.9898    15.0428    29.5121 </r>
       <r>     4.0692    13.4865    30.5837 </r>
       <r>     4.1487    11.8988    31.5292 </r>
       <r>     4.2282    10.7334    32.3820 </r>
       <r>     4.3076    10.2038    33.1928 </r>
       <r>     4.3871    10.2357    34.0061 </r>
       <r>     4.4665    10.5730    34.8462 </r>
       <r>     4.5460    10.9333    35.7149 </r>
       <r>     4.6254    11.1136    36.5980 </r>
       <r>     4.7049    11.0231    37.4739 </r>
       <r>     4.7844    10.6741    38.3220 </r>
       <r>     4.8638    10.1565    39.1290 </r>
       <r>     4.9433     9.6091    39.8925 </r>
       <r>     5.0227     9.1980    40.6234 </r>
       <r>     5.1022     9.0971    41.3462 </r>
       <r>     5.1817     9.4350    42.0959 </r>
       <r>     5.2611    10.1974    42.9062 </r>
       <r>     5.3406    11.1620    43.7931 </r>
       <r>     5.4200    11.9724    44.7444 </r>
       <r>     5.4995    12.3496    45.7257 </r>
       <r>     5.5789    12.2969    46.7027 </r>
       <r>     5.6584    12.1466    47.6679 </r>
       <r>     5.7379    12.4226    48.6550 </r>
       <r>     5.8173    13.5996    49.7356 </r>
       <r>     5.8968    15.8579    50.9956 </r>
       <r>     5.9762    18.9129    52.4984 </r>
       <r>     6.0557    22.0051    54.2468 </r>
       <r>     6.1351    24.1102    56.1626 </r>
       <r>     6.2146    24.3254    58.0954 </r>
       <r>     6.2941    22.2661    59.8647 </r>
       <r>     6.3735    18.2733    61.3166 </r>
       <r>     6.4530    13.3040    62.3737 </r>
       <r>     6.5324     8.5323    63.0517 </r>
       <r>     6.6119     4.8631    63.4381 </r>
       <r>     6.6914     2.6315    63.6472 </r>
       <r>     6.7708     1.6358    63.7772 </r>
       <r>     6.8503     1.4125    63.8894 </r>
       <r>     6.9297     1.5215    64.0103 </r>
       <r>     7.0092     1.6854    64.1442 </r>
       <r>     7.0886     1.7878    64.2863 </r>
       <r>     7.1681     1.8161    64.4306 </r>
       <r>     7.2476     1.8056    64.5740 </r>
       <r>     7.3270     1.7973    64.7169 </r>
       <r>     7.4065     1.8077    64.8605 </r>
       <r>     7.4859     1.8226    65.0053 </r>
       <r>     7.5654     1.8161    65.1496 </r>
       <r>     7.6448     1.7784    65.2909 </r>
       <r>     7.7243     1.7254    65.4280 </r>
       <r>     7.8038     1.6843    65.5619 </r>
       <r>     7.8832     1.6724    65.6947 </r>
       <r>     7.9627     1.6885    65.8289 </r>
       <r>     8.0421     1.7200    65.9656 </r>
       <r>     8.1216     1.7514    66.1047 </r>
       <r>     8.2011     1.7701    66.2454 </r>
       <r>     8.2805     1.7683    66.3859 </r>
       <r>     8.3600     1.7452    66.5246 </r>
       <r>     8.4394     1.7090    66.6604 </r>
       <r>     8.5189     1.6737    66.7933 </r>
       <r>     8.5983     1.6528    66.9247 </r>
       <r>     8.6778     1.6530    67.0560 </r>
       <r>     8.7573     1.6704    67.1887 </r>
       <r>     8.8367     1.6920    67.3232 </r>
       <r>     8.9162     1.7029    67.4585 </r>
       <r>     8.9956     1.6942    67.5931 </r>
       <r>     9.0751     1.6687    67.7257 </r>
       <r>     9.1545     1.6381    67.8559 </r>
       <r>     9.2340     1.6151    67.9842 </r>
       <r>     9.3135     1.6057    68.1118 </r>
       <r>     9.3929     1.6073    68.2395 </r>
       <r>     9.4724     1.6108    68.3675 </r>
       <r>     9.5518     1.6035    68.4949 </r>
       <r>     9.6313     1.5743    68.6200 </r>
       <r>     9.7108     1.5213    68.7409 </r>
       <r>     9.7902     1.4565    68.8566 </r>
       <r>     9.8697     1.3996    68.9678 </r>
       <r>     9.9491     1.3644    69.0762 </r>
       <r>    10.0286     1.3501    69.1835 </r>
       <r>    10.1080     1.3444    69.2903 </r>
       <r>    10.1875     1.3364    69.3965 </r>
       <r>    10.2670     1.3240    69.5017 </r>
       <r>    10.3464     1.3119    69.6059 </r>
       <r>    10.4259     1.3045    69.7096 </r>
       <r>    10.5053     1.3024    69.8131 </r>
       <r>    10.5848     1.3041    69.9167 </r>
       <r>    10.6642     1.3084    70.0207 </r>
       <r>    10.7437     1.3132    70.1250 </r>
       <r>    10.8232     1.3134    70.2294 </r>
       <r>    10.9026     1.3039    70.3330 </r>
       <r>    10.9821     1.2876    70.4353 </r>
       <r>    11.0615     1.2803    70.5370 </r>
       <r>    11.1410     1.3043    70.6407 </r>
       <r>    11.2205     1.3748    70.7499 </r>
       <r>    11.2999     1.4888    70.8682 </r>
       <r>    11.3794     1.6265    70.9974 </r>
       <r>    11.4588     1.7637    71.1376 </r>
       <r>    11.5383     1.8819    71.2871 </r>
       <r>    11.6177     1.9692    71.4436 </r>
       <r>    11.6972     2.0165    71.6038 </r>
       <r>    11.7767     2.0182    71.7642 </r>
       <r>    11.8561     1.9797    71.9215 </r>
       <r>    11.9356     1.9204    72.0741 </r>
       <r>    12.0150     1.8672    72.2224 </r>
       <r>    12.0945     1.8401    72.3686 </r>
       <r>    12.1739     1.8437    72.5151 </r>
       <r>    12.2534     1.8685    72.6636 </r>
       <r>    12.3329     1.8980    72.8144 </r>
       <r>    12.4123     1.9159    72.9666 </r>
       <r>    12.4918     1.9119    73.1186 </r>
       <r>    12.5712     1.8840    73.2683 </r>
       <r>    12.6507     1.8406    73.4145 </r>
       <r>    12.7302     1.7968    73.5573 </r>
       <r>    12.8096     1.7681    73.6978 </r>
       <r>    12.8891     1.7636    73.8379 </r>
       <r>    12.9685     1.7836    73.9796 </r>
       <r>    13.0480     1.8227    74.1245 </r>
       <r>    13.1274     1.8737    74.2733 </r>
       <r>    13.2069     1.9296    74.4267 </r>
       <r>    13.2864     1.9817    74.5841 </r>
       <r>    13.3658     2.0186    74.7445 </r>
       <r>    13.4453     2.0297    74.9058 </r>
       <r>    13.5247     2.0124    75.0657 </r>
       <r>    13.6042     1.9775    75.2228 </r>
       <r>    13.6836     1.9442    75.3773 </r>
       <r>    13.7631     1.9276    75.5305 </r>
       <r>    13.8426     1.9291    75.6837 </r>
       <r>    13.9220     1.9392    75.8378 </r>
       <r>    14.0015     1.9471    75.9925 </r>
       <r>    14.0809     1.9488    76.1474 </r>
       <r>    14.1604     1.9464    76.3020 </r>
       <r>    14.2399     1.9432    76.4564 </r>
       <r>    14.3193     1.9408    76.6107 </r>
       <r>    14.3988     1.9387    76.7647 </r>
       <r>    14.4782     1.9342    76.9184 </r>
       <r>    14.5577     1.9222    77.0711 </r>
       <r>    14.6371     1.8955    77.2217 </r>
       <r>    14.7166     1.8489    77.3687 </r>
       <r>    14.7961     1.7823    77.5103 </r>
       <r>    14.8755     1.7013    77.6455 </r>
       <r>    14.9550     1.6161    77.7739 </r>
       <r>    15.0344     1.5362    77.8959 </r>
       <r>    15.1139     1.4669    78.0125 </r>
       <r>    15.1933     1.4070    78.1243 </r>
       <r>    15.2728     1.3525    78.2318 </r>
       <r>    15.3523     1.3011    78.3351 </r>
       <r>    15.4317     1.2558    78.4349 </r>
       <r>    15.5112     1.2215    78.5320 </r>
       <r>    15.5906     1.1989    78.6272 </r>
       <r>    15.6701     1.1819    78.7211 </r>
       <r>    15.7496     1.1613    78.8134 </r>
       <r>    15.8290     1.1341    78.9035 </r>
       <r>    15.9085     1.1075    78.9915 </r>
       <r>    15.9879     1.0966    79.0787 </r>
       <r>    16.0674     1.1181    79.1675 </r>
       <r>    16.1468     1.1842    79.2616 </r>
       <r>    16.2263     1.2946    79.3645 </r>
       <r>    16.3058     1.4239    79.4776 </r>
       <r>    16.3852     1.5158    79.5980 </r>
       <r>    16.4647     1.5010    79.7173 </r>
       <r>    16.5441     1.3373    79.8236 </r>
       <r>    16.6236     1.0431    79.9065 </r>
       <r>    16.7030     0.6935    79.9616 </r>
       <r>    16.7825     0.3778    79.9916 </r>
       <r>    16.8620     0.1545    80.0039 </r>
       <r>    16.9414     0.0321    80.0064 </r>
       <r>    17.0209    -0.0154    80.0052 </r>
       <r>    17.1003    -0.0232    80.0033 </r>
       <r>    17.1798    -0.0175    80.0019 </r>
       <r>    17.2593    -0.0107    80.0011 </r>
       <r>    17.3387    -0.0062    80.0006 </r>
       <r>    17.4182    -0.0036    80.0003 </r>
       <r>    17.4976    -0.0021    80.0002 </r>
       <r>    17.5771    -0.0011    80.0001 </r>
       <r>    17.6565    -0.0005    80.0000 </r>
       <r>    17.7360    -0.0002    80.0000 </r>
       <r>    17.8155    -0.0001    80.0000 </r>
       <r>    17.8949     0.0000    80.0000 </r>
       <r>    17.9744     0.0000    80.0000 </r>
       <r>    18.0538     0.0000    80.0000 </r>
       <r>    18.1333     0.0000    80.0000 </r>
       <r>    18.2127     0.0000    80.0000 </r>
       <r>    18.2922     0.0000    80.0000 </r>
       <r>    18.3717     0.0000    80.0000 </r>
       <r>    18.4511     0.0000    80.0000 </r>
       <r>    18.5306     0.0000    80.0000 </r>
       <r>    18.6100     0.0000    80.0000 </r>
       <r>    18.6895     0.0000    80.0000 </r>
       <r>    18.7690     0.0000    80.0000 </r>
       <r>    18.8484     0.0000    80.0000 </r>
       <r>    18.9279     0.0000    80.0000 </r>
       <r>    19.0073     0.0000    80.0000 </r>
       <r>    19.0868     0.0000    80.0000 </r>
       <r>    19.1662     0.0000    80.0000 </r>
       <r>    19.2457     0.0000    80.0000 </r>
       <r>    19.3252     0.0000    80.0000 </r>
       <r>    19.4046     0.0000    80.0000 </r>
       <r>    19.4841     0.0000    80.0000 </r>
       <r>    19.5635     0.0000    80.0000 </r>
       <r>    19.6430     0.0000    80.0000 </r>
       <r>    19.7224     0.0000    80.0000 </r>
       <r>    19.8019     0.0000    80.0000 </r>
       <r>    19.8814     0.0000    80.0000 </r>
       <r>    19.9608     0.0000    80.0000 </r>
       <r>    20.0403     0.0000    80.0000 </r>
      </set>
     </set>
    </array>
   </total>
  </dos>
 </calculation>
 <structure name="finalpos" >
  <crystal>
   <varray name="basis" >
    <v>       0.00000000      -2.03538523      -2.03538523 </v>
    <v>       1.84821989       4.20088112      -2.16549590 </v>
    <v>       5.55145582      -2.16921929       4.20460452 </v>
   </varray>
   <i name="volume">     95.91323167 </i>
   <varray name="rec_basis" >
    <v>       0.13518060      -0.20636035      -0.28494713 </v>
    <v>       0.13525962       0.11780805      -0.11780805 </v>
    <v>       0.13510159      -0.03922128       0.03922128 </v>
   </varray>
  </crystal>
  <varray name="positions" >
   <v>       0.66172801       0.99881689       0.32463913 </v>
   <v>       0.17160532       0.50118311       0.84202754 </v>
   <v>       0.49903132       0.48681317       0.51124946 </v>
   <v>       0.33430202       0.01318683       0.65541721 </v>
   <v>       0.99113387       0.98585709       0.99641064 </v>
   <v>       0.84219946       0.51414291       0.17025602 </v>
  </varray>
 </structure>
</modeling>
