<?xml version="1.0" encoding="ISO-8859-1"?>
<modeling>
 <generator>
  <i name="program" type="string">vasp </i>
  <i name="version" type="string">5.3.5  </i>
  <i name="subversion" type="string">31Mar14 (build Jun 20 2014 13:15:13) complex                          parallel </i>
  <i name="platform" type="string">LinuxIFC </i>
  <i name="date" type="string">2025 11 21 </i>
  <i name="time" type="string">14:26:27 </i>
 </generator>
 <incar>
  <i type="string" name="PREC">accurate</i>
  <i type="int" name="IALGO">    68</i>
  <i type="logical" name="ADDGRID"> T  </i>
  <i type="int" name="NELM">   100</i>
  <i type="int" name="NELMIN">     4</i>
  <i type="int" name="IBRION">     2</i>
  <i name="EDIFF">      0.00000100</i>
  <i name="EDIFFG">     -0.02000000</i>
  <i type="int" name="NSW">    30</i>
  <i type="int" name="ISIF">     3</i>
  <i name="ENCUT">    500.00000000</i>
  <i type="logical" name="LREAL"> F  </i>
  <i type="int" name="ISMEAR">     1</i>
  <i name="SIGMA">      0.30000000</i>
  <i type="logical" name="LWAVE"> F  </i>
  <i type="logical" name="LCHARG"> F  </i>
  <i type="int" name="NELM">   100</i>
 </incar>
 <kpoints>
  <generation param="Auto">
   <i name="subdivisionlength">     70.00000000 </i>
   <v type="int" name="divisions">      17       18       11 </v>
   <v name="usershift">      0.00000000       0.00000000       0.00000000 </v>
   <v name="genvec1">      0.05882353       0.00000000       0.00000000 </v>
   <v name="genvec2">      0.00000000       0.05555556       0.00000000 </v>
   <v name="genvec3">      0.00000000       0.00000000       0.09090909 </v>
   <v name="shift">      0.00000000       0.00000000       0.00000000 </v>
  </generation>
  <varray name="kpointlist" >
   <v>       0.00000000       0.00000000       0.00000000 </v>
   <v>       0.05882353       0.00000000       0.00000000 </v>
   <v>       0.11764706       0.00000000       0.00000000 </v>
   <v>       0.17647059       0.00000000       0.00000000 </v>
   <v>       0.23529412       0.00000000       0.00000000 </v>
   <v>       0.29411765       0.00000000       0.00000000 </v>
   <v>       0.35294118       0.00000000       0.00000000 </v>
   <v>       0.41176471       0.00000000       0.00000000 </v>
   <v>       0.47058824       0.00000000       0.00000000 </v>
   <v>       0.00000000       0.05555556       0.00000000 </v>
   <v>       0.05882353       0.05555556       0.00000000 </v>
   <v>       0.11764706       0.05555556       0.00000000 </v>
   <v>       0.17647059       0.05555556       0.00000000 </v>
   <v>       0.23529412       0.05555556       0.00000000 </v>
   <v>       0.29411765       0.05555556       0.00000000 </v>
   <v>       0.35294118       0.05555556       0.00000000 </v>
   <v>       0.41176471       0.05555556       0.00000000 </v>
   <v>       0.47058824       0.05555556       0.00000000 </v>
   <v>       0.00000000       0.11111111       0.00000000 </v>
   <v>       0.05882353       0.11111111       0.00000000 </v>
   <v>       0.11764706       0.11111111       0.00000000 </v>
   <v>       0.17647059       0.11111111       0.00000000 </v>
   <v>       0.23529412       0.11111111       0.00000000 </v>
   <v>       0.29411765       0.11111111       0.00000000 </v>
   <v>       0.35294118       0.11111111       0.00000000 </v>
   <v>       0.41176471       0.11111111       0.00000000 </v>
   <v>       0.47058824       0.11111111       0.00000000 </v>
   <v>       0.00000000       0.16666667       0.00000000 </v>
   <v>       0.05882353       0.16666667       0.00000000 </v>
   <v>       0.11764706       0.16666667       0.00000000 </v>
   <v>       0.17647059       0.16666667       0.00000000 </v>
   <v>       0.23529412       0.16666667       0.00000000 </v>
   <v>       0.29411765       0.16666667       0.00000000 </v>
   <v>       0.35294118       0.16666667       0.00000000 </v>
   <v>       0.41176471       0.16666667       0.00000000 </v>
   <v>       0.47058824       0.16666667       0.00000000 </v>
   <v>       0.00000000       0.22222222       0.00000000 </v>
   <v>       0.05882353       0.22222222       0.00000000 </v>
   <v>       0.11764706       0.22222222       0.00000000 </v>
   <v>       0.17647059       0.22222222       0.00000000 </v>
   <v>       0.23529412       0.22222222       0.00000000 </v>
   <v>       0.29411765       0.22222222       0.00000000 </v>
   <v>       0.35294118       0.22222222       0.00000000 </v>
   <v>       0.41176471       0.22222222       0.00000000 </v>
   <v>       0.47058824       0.22222222       0.00000000 </v>
   <v>       0.00000000       0.27777778       0.00000000 </v>
   <v>       0.05882353       0.27777778       0.00000000 </v>
   <v>       0.11764706       0.27777778       0.00000000 </v>
   <v>       0.17647059       0.27777778       0.00000000 </v>
   <v>       0.23529412       0.27777778       0.00000000 </v>
   <v>       0.29411765       0.27777778       0.00000000 </v>
   <v>       0.35294118       0.27777778       0.00000000 </v>
   <v>       0.41176471       0.27777778       0.00000000 </v>
   <v>       0.47058824       0.27777778       0.00000000 </v>
   <v>       0.00000000       0.33333333       0.00000000 </v>
   <v>       0.05882353       0.33333333       0.00000000 </v>
   <v>       0.11764706       0.33333333       0.00000000 </v>
   <v>       0.17647059       0.33333333       0.00000000 </v>
   <v>       0.23529412       0.33333333       0.00000000 </v>
   <v>       0.29411765       0.33333333       0.00000000 </v>
   <v>       0.35294118       0.33333333       0.00000000 </v>
   <v>       0.41176471       0.33333333       0.00000000 </v>
   <v>       0.47058824       0.33333333       0.00000000 </v>
   <v>       0.00000000       0.38888889       0.00000000 </v>
   <v>       0.05882353       0.38888889       0.00000000 </v>
   <v>       0.11764706       0.38888889       0.00000000 </v>
   <v>       0.17647059       0.38888889       0.00000000 </v>
   <v>       0.23529412       0.38888889       0.00000000 </v>
   <v>       0.29411765       0.38888889       0.00000000 </v>
   <v>       0.35294118       0.38888889       0.00000000 </v>
   <v>       0.41176471       0.38888889       0.00000000 </v>
   <v>       0.47058824       0.38888889       0.00000000 </v>
   <v>       0.00000000       0.44444444       0.00000000 </v>
   <v>       0.05882353       0.44444444       0.00000000 </v>
   <v>       0.11764706       0.44444444       0.00000000 </v>
   <v>       0.17647059       0.44444444       0.00000000 </v>
   <v>       0.23529412       0.44444444       0.00000000 </v>
   <v>       0.29411765       0.44444444       0.00000000 </v>
   <v>       0.35294118       0.44444444       0.00000000 </v>
   <v>       0.41176471       0.44444444       0.00000000 </v>
   <v>       0.47058824       0.44444444       0.00000000 </v>
   <v>       0.00000000       0.50000000       0.00000000 </v>
   <v>       0.05882353       0.50000000       0.00000000 </v>
   <v>       0.11764706       0.50000000       0.00000000 </v>
   <v>       0.17647059       0.50000000       0.00000000 </v>
   <v>       0.23529412       0.50000000       0.00000000 </v>
   <v>       0.29411765       0.50000000       0.00000000 </v>
   <v>       0.35294118       0.50000000       0.00000000 </v>
   <v>       0.41176471       0.50000000       0.00000000 </v>
   <v>       0.47058824       0.50000000       0.00000000 </v>
   <v>       0.00000000       0.00000000       0.09090909 </v>
   <v>       0.05882353       0.00000000       0.09090909 </v>
   <v>       0.11764706       0.00000000       0.09090909 </v>
   <v>       0.17647059       0.00000000       0.09090909 </v>
   <v>       0.23529412       0.00000000       0.09090909 </v>
   <v>       0.29411765       0.00000000       0.09090909 </v>
   <v>       0.35294118       0.00000000       0.09090909 </v>
   <v>       0.41176471       0.00000000       0.09090909 </v>
   <v>       0.47058824       0.00000000       0.09090909 </v>
   <v>       0.00000000       0.05555556       0.09090909 </v>
   <v>       0.05882353       0.05555556       0.09090909 </v>
   <v>       0.11764706       0.05555556       0.09090909 </v>
   <v>       0.17647059       0.05555556       0.09090909 </v>
   <v>       0.23529412       0.05555556       0.09090909 </v>
   <v>       0.29411765       0.05555556       0.09090909 </v>
   <v>       0.35294118       0.05555556       0.09090909 </v>
   <v>       0.41176471       0.05555556       0.09090909 </v>
   <v>       0.47058824       0.05555556       0.09090909 </v>
   <v>       0.00000000       0.11111111       0.09090909 </v>
   <v>       0.05882353       0.11111111       0.09090909 </v>
   <v>       0.11764706       0.11111111       0.09090909 </v>
   <v>       0.17647059       0.11111111       0.09090909 </v>
   <v>       0.23529412       0.11111111       0.09090909 </v>
   <v>       0.29411765       0.11111111       0.09090909 </v>
   <v>       0.35294118       0.11111111       0.09090909 </v>
   <v>       0.41176471       0.11111111       0.09090909 </v>
   <v>       0.47058824       0.11111111       0.09090909 </v>
   <v>       0.00000000       0.16666667       0.09090909 </v>
   <v>       0.05882353       0.16666667       0.09090909 </v>
   <v>       0.11764706       0.16666667       0.09090909 </v>
   <v>       0.17647059       0.16666667       0.09090909 </v>
   <v>       0.23529412       0.16666667       0.09090909 </v>
   <v>       0.29411765       0.16666667       0.09090909 </v>
   <v>       0.35294118       0.16666667       0.09090909 </v>
   <v>       0.41176471       0.16666667       0.09090909 </v>
   <v>       0.47058824       0.16666667       0.09090909 </v>
   <v>       0.00000000       0.22222222       0.09090909 </v>
   <v>       0.05882353       0.22222222       0.09090909 </v>
   <v>       0.11764706       0.22222222       0.09090909 </v>
   <v>       0.17647059       0.22222222       0.09090909 </v>
   <v>       0.23529412       0.22222222       0.09090909 </v>
   <v>       0.29411765       0.22222222       0.09090909 </v>
   <v>       0.35294118       0.22222222       0.09090909 </v>
   <v>       0.41176471       0.22222222       0.09090909 </v>
   <v>       0.47058824       0.22222222       0.09090909 </v>
   <v>       0.00000000       0.27777778       0.09090909 </v>
   <v>       0.05882353       0.27777778       0.09090909 </v>
   <v>       0.11764706       0.27777778       0.09090909 </v>
   <v>       0.17647059       0.27777778       0.09090909 </v>
   <v>       0.23529412       0.27777778       0.09090909 </v>
   <v>       0.29411765       0.27777778       0.09090909 </v>
   <v>       0.35294118       0.27777778       0.09090909 </v>
   <v>       0.41176471       0.27777778       0.09090909 </v>
   <v>       0.47058824       0.27777778       0.09090909 </v>
   <v>       0.00000000       0.33333333       0.09090909 </v>
   <v>       0.05882353       0.33333333       0.09090909 </v>
   <v>       0.11764706       0.33333333       0.09090909 </v>
   <v>       0.17647059       0.33333333       0.09090909 </v>
   <v>       0.23529412       0.33333333       0.09090909 </v>
   <v>       0.29411765       0.33333333       0.09090909 </v>
   <v>       0.35294118       0.33333333       0.09090909 </v>
   <v>       0.41176471       0.33333333       0.09090909 </v>
   <v>       0.47058824       0.33333333       0.09090909 </v>
   <v>       0.00000000       0.38888889       0.09090909 </v>
   <v>       0.05882353       0.38888889       0.09090909 </v>
   <v>       0.11764706       0.38888889       0.09090909 </v>
   <v>       0.17647059       0.38888889       0.09090909 </v>
   <v>       0.23529412       0.38888889       0.09090909 </v>
   <v>       0.29411765       0.38888889       0.09090909 </v>
   <v>       0.35294118       0.38888889       0.09090909 </v>
   <v>       0.41176471       0.38888889       0.09090909 </v>
   <v>       0.47058824       0.38888889       0.09090909 </v>
   <v>       0.00000000       0.44444444       0.09090909 </v>
   <v>       0.05882353       0.44444444       0.09090909 </v>
   <v>       0.11764706       0.44444444       0.09090909 </v>
   <v>       0.17647059       0.44444444       0.09090909 </v>
   <v>       0.23529412       0.44444444       0.09090909 </v>
   <v>       0.29411765       0.44444444       0.09090909 </v>
   <v>       0.35294118       0.44444444       0.09090909 </v>
   <v>       0.41176471       0.44444444       0.09090909 </v>
   <v>       0.47058824       0.44444444       0.09090909 </v>
   <v>       0.00000000       0.50000000       0.09090909 </v>
   <v>       0.05882353       0.50000000       0.09090909 </v>
   <v>       0.11764706       0.50000000       0.09090909 </v>
   <v>       0.17647059       0.50000000       0.09090909 </v>
   <v>       0.23529412       0.50000000       0.09090909 </v>
   <v>       0.29411765       0.50000000       0.09090909 </v>
   <v>       0.35294118       0.50000000       0.09090909 </v>
   <v>       0.41176471       0.50000000       0.09090909 </v>
   <v>       0.47058824       0.50000000       0.09090909 </v>
   <v>       0.00000000      -0.44444444       0.09090909 </v>
   <v>       0.05882353      -0.44444444       0.09090909 </v>
   <v>       0.11764706      -0.44444444       0.09090909 </v>
   <v>       0.17647059      -0.44444444       0.09090909 </v>
   <v>       0.23529412      -0.44444444       0.09090909 </v>
   <v>       0.29411765      -0.44444444       0.09090909 </v>
   <v>       0.35294118      -0.44444444       0.09090909 </v>
   <v>       0.41176471      -0.44444444       0.09090909 </v>
   <v>       0.47058824      -0.44444444       0.09090909 </v>
   <v>       0.00000000      -0.38888889       0.09090909 </v>
   <v>       0.05882353      -0.38888889       0.09090909 </v>
   <v>       0.11764706      -0.38888889       0.09090909 </v>
   <v>       0.17647059      -0.38888889       0.09090909 </v>
   <v>       0.23529412      -0.38888889       0.09090909 </v>
   <v>       0.29411765      -0.38888889       0.09090909 </v>
   <v>       0.35294118      -0.38888889       0.09090909 </v>
   <v>       0.41176471      -0.38888889       0.09090909 </v>
   <v>       0.47058824      -0.38888889       0.09090909 </v>
   <v>       0.00000000      -0.33333333       0.09090909 </v>
   <v>       0.05882353      -0.33333333       0.09090909 </v>
   <v>       0.11764706      -0.33333333       0.09090909 </v>
   <v>       0.17647059      -0.33333333       0.09090909 </v>
   <v>       0.23529412      -0.33333333       0.09090909 </v>
   <v>       0.29411765      -0.33333333       0.09090909 </v>
   <v>       0.35294118      -0.33333333       0.09090909 </v>
   <v>       0.41176471      -0.33333333       0.09090909 </v>
   <v>       0.47058824      -0.33333333       0.09090909 </v>
   <v>       0.00000000      -0.27777778       0.09090909 </v>
   <v>       0.05882353      -0.27777778       0.09090909 </v>
   <v>       0.11764706      -0.27777778       0.09090909 </v>
   <v>       0.17647059      -0.27777778       0.09090909 </v>
   <v>       0.23529412      -0.27777778       0.09090909 </v>
   <v>       0.29411765      -0.27777778       0.09090909 </v>
   <v>       0.35294118      -0.27777778       0.09090909 </v>
   <v>       0.41176471      -0.27777778       0.09090909 </v>
   <v>       0.47058824      -0.27777778       0.09090909 </v>
   <v>       0.00000000      -0.22222222       0.09090909 </v>
   <v>       0.05882353      -0.22222222       0.09090909 </v>
   <v>       0.11764706      -0.22222222       0.09090909 </v>
   <v>       0.17647059      -0.22222222       0.09090909 </v>
   <v>       0.23529412      -0.22222222       0.09090909 </v>
   <v>       0.29411765      -0.22222222       0.09090909 </v>
   <v>       0.35294118      -0.22222222       0.09090909 </v>
   <v>       0.41176471      -0.22222222       0.09090909 </v>
   <v>       0.47058824      -0.22222222       0.09090909 </v>
   <v>       0.00000000      -0.16666667       0.09090909 </v>
   <v>       0.05882353      -0.16666667       0.09090909 </v>
   <v>       0.11764706      -0.16666667       0.09090909 </v>
   <v>       0.17647059      -0.16666667       0.09090909 </v>
   <v>       0.23529412      -0.16666667       0.09090909 </v>
   <v>       0.29411765      -0.16666667       0.09090909 </v>
   <v>       0.35294118      -0.16666667       0.09090909 </v>
   <v>       0.41176471      -0.16666667       0.09090909 </v>
   <v>       0.47058824      -0.16666667       0.09090909 </v>
   <v>       0.00000000      -0.11111111       0.09090909 </v>
   <v>       0.05882353      -0.11111111       0.09090909 </v>
   <v>       0.11764706      -0.11111111       0.09090909 </v>
   <v>       0.17647059      -0.11111111       0.09090909 </v>
   <v>       0.23529412      -0.11111111       0.09090909 </v>
   <v>       0.29411765      -0.11111111       0.09090909 </v>
   <v>       0.35294118      -0.11111111       0.09090909 </v>
   <v>       0.41176471      -0.11111111       0.09090909 </v>
   <v>       0.47058824      -0.11111111       0.09090909 </v>
   <v>       0.00000000      -0.05555556       0.09090909 </v>
   <v>       0.05882353      -0.05555556       0.09090909 </v>
   <v>       0.11764706      -0.05555556       0.09090909 </v>
   <v>       0.17647059      -0.05555556       0.09090909 </v>
   <v>       0.23529412      -0.05555556       0.09090909 </v>
   <v>       0.29411765      -0.05555556       0.09090909 </v>
   <v>       0.35294118      -0.05555556       0.09090909 </v>
   <v>       0.41176471      -0.05555556       0.09090909 </v>
   <v>       0.47058824      -0.05555556       0.09090909 </v>
   <v>       0.00000000       0.00000000       0.18181818 </v>
   <v>       0.05882353       0.00000000       0.18181818 </v>
   <v>       0.11764706       0.00000000       0.18181818 </v>
   <v>       0.17647059       0.00000000       0.18181818 </v>
   <v>       0.23529412       0.00000000       0.18181818 </v>
   <v>       0.29411765       0.00000000       0.18181818 </v>
   <v>       0.35294118       0.00000000       0.18181818 </v>
   <v>       0.41176471       0.00000000       0.18181818 </v>
   <v>       0.47058824       0.00000000       0.18181818 </v>
   <v>       0.00000000       0.05555556       0.18181818 </v>
   <v>       0.05882353       0.05555556       0.18181818 </v>
   <v>       0.11764706       0.05555556       0.18181818 </v>
   <v>       0.17647059       0.05555556       0.18181818 </v>
   <v>       0.23529412       0.05555556       0.18181818 </v>
   <v>       0.29411765       0.05555556       0.18181818 </v>
   <v>       0.35294118       0.05555556       0.18181818 </v>
   <v>       0.41176471       0.05555556       0.18181818 </v>
   <v>       0.47058824       0.05555556       0.18181818 </v>
   <v>       0.00000000       0.11111111       0.18181818 </v>
   <v>       0.05882353       0.11111111       0.18181818 </v>
   <v>       0.11764706       0.11111111       0.18181818 </v>
   <v>       0.17647059       0.11111111       0.18181818 </v>
   <v>       0.23529412       0.11111111       0.18181818 </v>
   <v>       0.29411765       0.11111111       0.18181818 </v>
   <v>       0.35294118       0.11111111       0.18181818 </v>
   <v>       0.41176471       0.11111111       0.18181818 </v>
   <v>       0.47058824       0.11111111       0.18181818 </v>
   <v>       0.00000000       0.16666667       0.18181818 </v>
   <v>       0.05882353       0.16666667       0.18181818 </v>
   <v>       0.11764706       0.16666667       0.18181818 </v>
   <v>       0.17647059       0.16666667       0.18181818 </v>
   <v>       0.23529412       0.16666667       0.18181818 </v>
   <v>       0.29411765       0.16666667       0.18181818 </v>
   <v>       0.35294118       0.16666667       0.18181818 </v>
   <v>       0.41176471       0.16666667       0.18181818 </v>
   <v>       0.47058824       0.16666667       0.18181818 </v>
   <v>       0.00000000       0.22222222       0.18181818 </v>
   <v>       0.05882353       0.22222222       0.18181818 </v>
   <v>       0.11764706       0.22222222       0.18181818 </v>
   <v>       0.17647059       0.22222222       0.18181818 </v>
   <v>       0.23529412       0.22222222       0.18181818 </v>
   <v>       0.29411765       0.22222222       0.18181818 </v>
   <v>       0.35294118       0.22222222       0.18181818 </v>
   <v>       0.41176471       0.22222222       0.18181818 </v>
   <v>       0.47058824       0.22222222       0.18181818 </v>
   <v>       0.00000000       0.27777778       0.18181818 </v>
   <v>       0.05882353       0.27777778       0.18181818 </v>
   <v>       0.11764706       0.27777778       0.18181818 </v>
   <v>       0.17647059       0.27777778       0.18181818 </v>
   <v>       0.23529412       0.27777778       0.18181818 </v>
   <v>       0.29411765       0.27777778       0.18181818 </v>
   <v>       0.35294118       0.27777778       0.18181818 </v>
   <v>       0.41176471       0.27777778       0.18181818 </v>
   <v>       0.47058824       0.27777778       0.18181818 </v>
   <v>       0.00000000       0.33333333       0.18181818 </v>
   <v>       0.05882353       0.33333333       0.18181818 </v>
   <v>       0.11764706       0.33333333       0.18181818 </v>
   <v>       0.17647059       0.33333333       0.18181818 </v>
   <v>       0.23529412       0.33333333       0.18181818 </v>
   <v>       0.29411765       0.33333333       0.18181818 </v>
   <v>       0.35294118       0.33333333       0.18181818 </v>
   <v>       0.41176471       0.33333333       0.18181818 </v>
   <v>       0.47058824       0.33333333       0.18181818 </v>
   <v>       0.00000000       0.38888889       0.18181818 </v>
   <v>       0.05882353       0.38888889       0.18181818 </v>
   <v>       0.11764706       0.38888889       0.18181818 </v>
   <v>       0.17647059       0.38888889       0.18181818 </v>
   <v>       0.23529412       0.38888889       0.18181818 </v>
   <v>       0.29411765       0.38888889       0.18181818 </v>
   <v>       0.35294118       0.38888889       0.18181818 </v>
   <v>       0.41176471       0.38888889       0.18181818 </v>
   <v>       0.47058824       0.38888889       0.18181818 </v>
   <v>       0.00000000       0.44444444       0.18181818 </v>
   <v>       0.05882353       0.44444444       0.18181818 </v>
   <v>       0.11764706       0.44444444       0.18181818 </v>
   <v>       0.17647059       0.44444444       0.18181818 </v>
   <v>       0.23529412       0.44444444       0.18181818 </v>
   <v>       0.29411765       0.44444444       0.18181818 </v>
   <v>       0.35294118       0.44444444       0.18181818 </v>
   <v>       0.41176471       0.44444444       0.18181818 </v>
   <v>       0.47058824       0.44444444       0.18181818 </v>
   <v>       0.00000000       0.50000000       0.18181818 </v>
   <v>       0.05882353       0.50000000       0.18181818 </v>
   <v>       0.11764706       0.50000000       0.18181818 </v>
   <v>       0.17647059       0.50000000       0.18181818 </v>
   <v>       0.23529412       0.50000000       0.18181818 </v>
   <v>       0.29411765       0.50000000       0.18181818 </v>
   <v>       0.35294118       0.50000000       0.18181818 </v>
   <v>       0.41176471       0.50000000       0.18181818 </v>
   <v>       0.47058824       0.50000000       0.18181818 </v>
   <v>       0.00000000      -0.44444444       0.18181818 </v>
   <v>       0.05882353      -0.44444444       0.18181818 </v>
   <v>       0.11764706      -0.44444444       0.18181818 </v>
   <v>       0.17647059      -0.44444444       0.18181818 </v>
   <v>       0.23529412      -0.44444444       0.18181818 </v>
   <v>       0.29411765      -0.44444444       0.18181818 </v>
   <v>       0.35294118      -0.44444444       0.18181818 </v>
   <v>       0.41176471      -0.44444444       0.18181818 </v>
   <v>       0.47058824      -0.44444444       0.18181818 </v>
   <v>       0.00000000      -0.38888889       0.18181818 </v>
   <v>       0.05882353      -0.38888889       0.18181818 </v>
   <v>       0.11764706      -0.38888889       0.18181818 </v>
   <v>       0.17647059      -0.38888889       0.18181818 </v>
   <v>       0.23529412      -0.38888889       0.18181818 </v>
   <v>       0.29411765      -0.38888889       0.18181818 </v>
   <v>       0.35294118      -0.38888889       0.18181818 </v>
   <v>       0.41176471      -0.38888889       0.18181818 </v>
   <v>       0.47058824      -0.38888889       0.18181818 </v>
   <v>       0.00000000      -0.33333333       0.18181818 </v>
   <v>       0.05882353      -0.33333333       0.18181818 </v>
   <v>       0.11764706      -0.33333333       0.18181818 </v>
   <v>       0.17647059      -0.33333333       0.18181818 </v>
   <v>       0.23529412      -0.33333333       0.18181818 </v>
   <v>       0.29411765      -0.33333333       0.18181818 </v>
   <v>       0.35294118      -0.33333333       0.18181818 </v>
   <v>       0.41176471      -0.33333333       0.18181818 </v>
   <v>       0.47058824      -0.33333333       0.18181818 </v>
   <v>       0.00000000      -0.27777778       0.18181818 </v>
   <v>       0.05882353      -0.27777778       0.18181818 </v>
   <v>       0.11764706      -0.27777778       0.18181818 </v>
   <v>       0.17647059      -0.27777778       0.18181818 </v>
   <v>       0.23529412      -0.27777778       0.18181818 </v>
   <v>       0.29411765      -0.27777778       0.18181818 </v>
   <v>       0.35294118      -0.27777778       0.18181818 </v>
   <v>       0.41176471      -0.27777778       0.18181818 </v>
   <v>       0.47058824      -0.27777778       0.18181818 </v>
   <v>       0.00000000      -0.22222222       0.18181818 </v>
   <v>       0.05882353      -0.22222222       0.18181818 </v>
   <v>       0.11764706      -0.22222222       0.18181818 </v>
   <v>       0.17647059      -0.22222222       0.18181818 </v>
   <v>       0.23529412      -0.22222222       0.18181818 </v>
   <v>       0.29411765      -0.22222222       0.18181818 </v>
   <v>       0.35294118      -0.22222222       0.18181818 </v>
   <v>       0.41176471      -0.22222222       0.18181818 </v>
   <v>       0.47058824      -0.22222222       0.18181818 </v>
   <v>       0.00000000      -0.16666667       0.18181818 </v>
   <v>       0.05882353      -0.16666667       0.18181818 </v>
   <v>       0.11764706      -0.16666667       0.18181818 </v>
   <v>       0.17647059      -0.16666667       0.18181818 </v>
   <v>       0.23529412      -0.16666667       0.18181818 </v>
   <v>       0.29411765      -0.16666667       0.18181818 </v>
   <v>       0.35294118      -0.16666667       0.18181818 </v>
   <v>       0.41176471      -0.16666667       0.18181818 </v>
   <v>       0.47058824      -0.16666667       0.18181818 </v>
   <v>       0.00000000      -0.11111111       0.18181818 </v>
   <v>       0.05882353      -0.11111111       0.18181818 </v>
   <v>       0.11764706      -0.11111111       0.18181818 </v>
   <v>       0.17647059      -0.11111111       0.18181818 </v>
   <v>       0.23529412      -0.11111111       0.18181818 </v>
   <v>       0.29411765      -0.11111111       0.18181818 </v>
   <v>       0.35294118      -0.11111111       0.18181818 </v>
   <v>       0.41176471      -0.11111111       0.18181818 </v>
   <v>       0.47058824      -0.11111111       0.18181818 </v>
   <v>       0.00000000      -0.05555556       0.18181818 </v>
   <v>       0.05882353      -0.05555556       0.18181818 </v>
   <v>       0.11764706      -0.05555556       0.18181818 </v>
   <v>       0.17647059      -0.05555556       0.18181818 </v>
   <v>       0.23529412      -0.05555556       0.18181818 </v>
   <v>       0.29411765      -0.05555556       0.18181818 </v>
   <v>       0.35294118      -0.05555556       0.18181818 </v>
   <v>       0.41176471      -0.05555556       0.18181818 </v>
   <v>       0.47058824      -0.05555556       0.18181818 </v>
   <v>       0.00000000       0.00000000       0.27272727 </v>
   <v>       0.05882353       0.00000000       0.27272727 </v>
   <v>       0.11764706       0.00000000       0.27272727 </v>
   <v>       0.17647059       0.00000000       0.27272727 </v>
   <v>       0.23529412       0.00000000       0.27272727 </v>
   <v>       0.29411765       0.00000000       0.27272727 </v>
   <v>       0.35294118       0.00000000       0.27272727 </v>
   <v>       0.41176471       0.00000000       0.27272727 </v>
   <v>       0.47058824       0.00000000       0.27272727 </v>
   <v>       0.00000000       0.05555556       0.27272727 </v>
   <v>       0.05882353       0.05555556       0.27272727 </v>
   <v>       0.11764706       0.05555556       0.27272727 </v>
   <v>       0.17647059       0.05555556       0.27272727 </v>
   <v>       0.23529412       0.05555556       0.27272727 </v>
   <v>       0.29411765       0.05555556       0.27272727 </v>
   <v>       0.35294118       0.05555556       0.27272727 </v>
   <v>       0.41176471       0.05555556       0.27272727 </v>
   <v>       0.47058824       0.05555556       0.27272727 </v>
   <v>       0.00000000       0.11111111       0.27272727 </v>
   <v>       0.05882353       0.11111111       0.27272727 </v>
   <v>       0.11764706       0.11111111       0.27272727 </v>
   <v>       0.17647059       0.11111111       0.27272727 </v>
   <v>       0.23529412       0.11111111       0.27272727 </v>
   <v>       0.29411765       0.11111111       0.27272727 </v>
   <v>       0.35294118       0.11111111       0.27272727 </v>
   <v>       0.41176471       0.11111111       0.27272727 </v>
   <v>       0.47058824       0.11111111       0.27272727 </v>
   <v>       0.00000000       0.16666667       0.27272727 </v>
   <v>       0.05882353       0.16666667       0.27272727 </v>
   <v>       0.11764706       0.16666667       0.27272727 </v>
   <v>       0.17647059       0.16666667       0.27272727 </v>
   <v>       0.23529412       0.16666667       0.27272727 </v>
   <v>       0.29411765       0.16666667       0.27272727 </v>
   <v>       0.35294118       0.16666667       0.27272727 </v>
   <v>       0.41176471       0.16666667       0.27272727 </v>
   <v>       0.47058824       0.16666667       0.27272727 </v>
   <v>       0.00000000       0.22222222       0.27272727 </v>
   <v>       0.05882353       0.22222222       0.27272727 </v>
   <v>       0.11764706       0.22222222       0.27272727 </v>
   <v>       0.17647059       0.22222222       0.27272727 </v>
   <v>       0.23529412       0.22222222       0.27272727 </v>
   <v>       0.29411765       0.22222222       0.27272727 </v>
   <v>       0.35294118       0.22222222       0.27272727 </v>
   <v>       0.41176471       0.22222222       0.27272727 </v>
   <v>       0.47058824       0.22222222       0.27272727 </v>
   <v>       0.00000000       0.27777778       0.27272727 </v>
   <v>       0.05882353       0.27777778       0.27272727 </v>
   <v>       0.11764706       0.27777778       0.27272727 </v>
   <v>       0.17647059       0.27777778       0.27272727 </v>
   <v>       0.23529412       0.27777778       0.27272727 </v>
   <v>       0.29411765       0.27777778       0.27272727 </v>
   <v>       0.35294118       0.27777778       0.27272727 </v>
   <v>       0.41176471       0.27777778       0.27272727 </v>
   <v>       0.47058824       0.27777778       0.27272727 </v>
   <v>       0.00000000       0.33333333       0.27272727 </v>
   <v>       0.05882353       0.33333333       0.27272727 </v>
   <v>       0.11764706       0.33333333       0.27272727 </v>
   <v>       0.17647059       0.33333333       0.27272727 </v>
   <v>       0.23529412       0.33333333       0.27272727 </v>
   <v>       0.29411765       0.33333333       0.27272727 </v>
   <v>       0.35294118       0.33333333       0.27272727 </v>
   <v>       0.41176471       0.33333333       0.27272727 </v>
   <v>       0.47058824       0.33333333       0.27272727 </v>
   <v>       0.00000000       0.38888889       0.27272727 </v>
   <v>       0.05882353       0.38888889       0.27272727 </v>
   <v>       0.11764706       0.38888889       0.27272727 </v>
   <v>       0.17647059       0.38888889       0.27272727 </v>
   <v>       0.23529412       0.38888889       0.27272727 </v>
   <v>       0.29411765       0.38888889       0.27272727 </v>
   <v>       0.35294118       0.38888889       0.27272727 </v>
   <v>       0.41176471       0.38888889       0.27272727 </v>
   <v>       0.47058824       0.38888889       0.27272727 </v>
   <v>       0.00000000       0.44444444       0.27272727 </v>
   <v>       0.05882353       0.44444444       0.27272727 </v>
   <v>       0.11764706       0.44444444       0.27272727 </v>
   <v>       0.17647059       0.44444444       0.27272727 </v>
   <v>       0.23529412       0.44444444       0.27272727 </v>
   <v>       0.29411765       0.44444444       0.27272727 </v>
   <v>       0.35294118       0.44444444       0.27272727 </v>
   <v>       0.41176471       0.44444444       0.27272727 </v>
   <v>       0.47058824       0.44444444       0.27272727 </v>
   <v>       0.00000000       0.50000000       0.27272727 </v>
   <v>       0.05882353       0.50000000       0.27272727 </v>
   <v>       0.11764706       0.50000000       0.27272727 </v>
   <v>       0.17647059       0.50000000       0.27272727 </v>
   <v>       0.23529412       0.50000000       0.27272727 </v>
   <v>       0.29411765       0.50000000       0.27272727 </v>
   <v>       0.35294118       0.50000000       0.27272727 </v>
   <v>       0.41176471       0.50000000       0.27272727 </v>
   <v>       0.47058824       0.50000000       0.27272727 </v>
   <v>       0.00000000      -0.44444444       0.27272727 </v>
   <v>       0.05882353      -0.44444444       0.27272727 </v>
   <v>       0.11764706      -0.44444444       0.27272727 </v>
   <v>       0.17647059      -0.44444444       0.27272727 </v>
   <v>       0.23529412      -0.44444444       0.27272727 </v>
   <v>       0.29411765      -0.44444444       0.27272727 </v>
   <v>       0.35294118      -0.44444444       0.27272727 </v>
   <v>       0.41176471      -0.44444444       0.27272727 </v>
   <v>       0.47058824      -0.44444444       0.27272727 </v>
   <v>       0.00000000      -0.38888889       0.27272727 </v>
   <v>       0.05882353      -0.38888889       0.27272727 </v>
   <v>       0.11764706      -0.38888889       0.27272727 </v>
   <v>       0.17647059      -0.38888889       0.27272727 </v>
   <v>       0.23529412      -0.38888889       0.27272727 </v>
   <v>       0.29411765      -0.38888889       0.27272727 </v>
   <v>       0.35294118      -0.38888889       0.27272727 </v>
   <v>       0.41176471      -0.38888889       0.27272727 </v>
   <v>       0.47058824      -0.38888889       0.27272727 </v>
   <v>       0.00000000      -0.33333333       0.27272727 </v>
   <v>       0.05882353      -0.33333333       0.27272727 </v>
   <v>       0.11764706      -0.33333333       0.27272727 </v>
   <v>       0.17647059      -0.33333333       0.27272727 </v>
   <v>       0.23529412      -0.33333333       0.27272727 </v>
   <v>       0.29411765      -0.33333333       0.27272727 </v>
   <v>       0.35294118      -0.33333333       0.27272727 </v>
   <v>       0.41176471      -0.33333333       0.27272727 </v>
   <v>       0.47058824      -0.33333333       0.27272727 </v>
   <v>       0.00000000      -0.27777778       0.27272727 </v>
   <v>       0.05882353      -0.27777778       0.27272727 </v>
   <v>       0.11764706      -0.27777778       0.27272727 </v>
   <v>       0.17647059      -0.27777778       0.27272727 </v>
   <v>       0.23529412      -0.27777778       0.27272727 </v>
   <v>       0.29411765      -0.27777778       0.27272727 </v>
   <v>       0.35294118      -0.27777778       0.27272727 </v>
   <v>       0.41176471      -0.27777778       0.27272727 </v>
   <v>       0.47058824      -0.27777778       0.27272727 </v>
   <v>       0.00000000      -0.22222222       0.27272727 </v>
   <v>       0.05882353      -0.22222222       0.27272727 </v>
   <v>       0.11764706      -0.22222222       0.27272727 </v>
   <v>       0.17647059      -0.22222222       0.27272727 </v>
   <v>       0.23529412      -0.22222222       0.27272727 </v>
   <v>       0.29411765      -0.22222222       0.27272727 </v>
   <v>       0.35294118      -0.22222222       0.27272727 </v>
   <v>       0.41176471      -0.22222222       0.27272727 </v>
   <v>       0.47058824      -0.22222222       0.27272727 </v>
   <v>       0.00000000      -0.16666667       0.27272727 </v>
   <v>       0.05882353      -0.16666667       0.27272727 </v>
   <v>       0.11764706      -0.16666667       0.27272727 </v>
   <v>       0.17647059      -0.16666667       0.27272727 </v>
   <v>       0.23529412      -0.16666667       0.27272727 </v>
   <v>       0.29411765      -0.16666667       0.27272727 </v>
   <v>       0.35294118      -0.16666667       0.27272727 </v>
   <v>       0.41176471      -0.16666667       0.27272727 </v>
   <v>       0.47058824      -0.16666667       0.27272727 </v>
   <v>       0.00000000      -0.11111111       0.27272727 </v>
   <v>       0.05882353      -0.11111111       0.27272727 </v>
   <v>       0.11764706      -0.11111111       0.27272727 </v>
   <v>       0.17647059      -0.11111111       0.27272727 </v>
   <v>       0.23529412      -0.11111111       0.27272727 </v>
   <v>       0.29411765      -0.11111111       0.27272727 </v>
   <v>       0.35294118      -0.11111111       0.27272727 </v>
   <v>       0.41176471      -0.11111111       0.27272727 </v>
   <v>       0.47058824      -0.11111111       0.27272727 </v>
   <v>       0.00000000      -0.05555556       0.27272727 </v>
   <v>       0.05882353      -0.05555556       0.27272727 </v>
   <v>       0.11764706      -0.05555556       0.27272727 </v>
   <v>       0.17647059      -0.05555556       0.27272727 </v>
   <v>       0.23529412      -0.05555556       0.27272727 </v>
   <v>       0.29411765      -0.05555556       0.27272727 </v>
   <v>       0.35294118      -0.05555556       0.27272727 </v>
   <v>       0.41176471      -0.05555556       0.27272727 </v>
   <v>       0.47058824      -0.05555556       0.27272727 </v>
   <v>       0.00000000       0.00000000       0.36363636 </v>
   <v>       0.05882353       0.00000000       0.36363636 </v>
   <v>       0.11764706       0.00000000       0.36363636 </v>
   <v>       0.17647059       0.00000000       0.36363636 </v>
   <v>       0.23529412       0.00000000       0.36363636 </v>
   <v>       0.29411765       0.00000000       0.36363636 </v>
   <v>       0.35294118       0.00000000       0.36363636 </v>
   <v>       0.41176471       0.00000000       0.36363636 </v>
   <v>       0.47058824       0.00000000       0.36363636 </v>
   <v>       0.00000000       0.05555556       0.36363636 </v>
   <v>       0.05882353       0.05555556       0.36363636 </v>
   <v>       0.11764706       0.05555556       0.36363636 </v>
   <v>       0.17647059       0.05555556       0.36363636 </v>
   <v>       0.23529412       0.05555556       0.36363636 </v>
   <v>       0.29411765       0.05555556       0.36363636 </v>
   <v>       0.35294118       0.05555556       0.36363636 </v>
   <v>       0.41176471       0.05555556       0.36363636 </v>
   <v>       0.47058824       0.05555556       0.36363636 </v>
   <v>       0.00000000       0.11111111       0.36363636 </v>
   <v>       0.05882353       0.11111111       0.36363636 </v>
   <v>       0.11764706       0.11111111       0.36363636 </v>
   <v>       0.17647059       0.11111111       0.36363636 </v>
   <v>       0.23529412       0.11111111       0.36363636 </v>
   <v>       0.29411765       0.11111111       0.36363636 </v>
   <v>       0.35294118       0.11111111       0.36363636 </v>
   <v>       0.41176471       0.11111111       0.36363636 </v>
   <v>       0.47058824       0.11111111       0.36363636 </v>
   <v>       0.00000000       0.16666667       0.36363636 </v>
   <v>       0.05882353       0.16666667       0.36363636 </v>
   <v>       0.11764706       0.16666667       0.36363636 </v>
   <v>       0.17647059       0.16666667       0.36363636 </v>
   <v>       0.23529412       0.16666667       0.36363636 </v>
   <v>       0.29411765       0.16666667       0.36363636 </v>
   <v>       0.35294118       0.16666667       0.36363636 </v>
   <v>       0.41176471       0.16666667       0.36363636 </v>
   <v>       0.47058824       0.16666667       0.36363636 </v>
   <v>       0.00000000       0.22222222       0.36363636 </v>
   <v>       0.05882353       0.22222222       0.36363636 </v>
   <v>       0.11764706       0.22222222       0.36363636 </v>
   <v>       0.17647059       0.22222222       0.36363636 </v>
   <v>       0.23529412       0.22222222       0.36363636 </v>
   <v>       0.29411765       0.22222222       0.36363636 </v>
   <v>       0.35294118       0.22222222       0.36363636 </v>
   <v>       0.41176471       0.22222222       0.36363636 </v>
   <v>       0.47058824       0.22222222       0.36363636 </v>
   <v>       0.00000000       0.27777778       0.36363636 </v>
   <v>       0.05882353       0.27777778       0.36363636 </v>
   <v>       0.11764706       0.27777778       0.36363636 </v>
   <v>       0.17647059       0.27777778       0.36363636 </v>
   <v>       0.23529412       0.27777778       0.36363636 </v>
   <v>       0.29411765       0.27777778       0.36363636 </v>
   <v>       0.35294118       0.27777778       0.36363636 </v>
   <v>       0.41176471       0.27777778       0.36363636 </v>
   <v>       0.47058824       0.27777778       0.36363636 </v>
   <v>       0.00000000       0.33333333       0.36363636 </v>
   <v>       0.05882353       0.33333333       0.36363636 </v>
   <v>       0.11764706       0.33333333       0.36363636 </v>
   <v>       0.17647059       0.33333333       0.36363636 </v>
   <v>       0.23529412       0.33333333       0.36363636 </v>
   <v>       0.29411765       0.33333333       0.36363636 </v>
   <v>       0.35294118       0.33333333       0.36363636 </v>
   <v>       0.41176471       0.33333333       0.36363636 </v>
   <v>       0.47058824       0.33333333       0.36363636 </v>
   <v>       0.00000000       0.38888889       0.36363636 </v>
   <v>       0.05882353       0.38888889       0.36363636 </v>
   <v>       0.11764706       0.38888889       0.36363636 </v>
   <v>       0.17647059       0.38888889       0.36363636 </v>
   <v>       0.23529412       0.38888889       0.36363636 </v>
   <v>       0.29411765       0.38888889       0.36363636 </v>
   <v>       0.35294118       0.38888889       0.36363636 </v>
   <v>       0.41176471       0.38888889       0.36363636 </v>
   <v>       0.47058824       0.38888889       0.36363636 </v>
   <v>       0.00000000       0.44444444       0.36363636 </v>
   <v>       0.05882353       0.44444444       0.36363636 </v>
   <v>       0.11764706       0.44444444       0.36363636 </v>
   <v>       0.17647059       0.44444444       0.36363636 </v>
   <v>       0.23529412       0.44444444       0.36363636 </v>
   <v>       0.29411765       0.44444444       0.36363636 </v>
   <v>       0.35294118       0.44444444       0.36363636 </v>
   <v>       0.41176471       0.44444444       0.36363636 </v>
   <v>       0.47058824       0.44444444       0.36363636 </v>
   <v>       0.00000000       0.50000000       0.36363636 </v>
   <v>       0.05882353       0.50000000       0.36363636 </v>
   <v>       0.11764706       0.50000000       0.36363636 </v>
   <v>       0.17647059       0.50000000       0.36363636 </v>
   <v>       0.23529412       0.50000000       0.36363636 </v>
   <v>       0.29411765       0.50000000       0.36363636 </v>
   <v>       0.35294118       0.50000000       0.36363636 </v>
   <v>       0.41176471       0.50000000       0.36363636 </v>
   <v>       0.47058824       0.50000000       0.36363636 </v>
   <v>       0.00000000      -0.44444444       0.36363636 </v>
   <v>       0.05882353      -0.44444444       0.36363636 </v>
   <v>       0.11764706      -0.44444444       0.36363636 </v>
   <v>       0.17647059      -0.44444444       0.36363636 </v>
   <v>       0.23529412      -0.44444444       0.36363636 </v>
   <v>       0.29411765      -0.44444444       0.36363636 </v>
   <v>       0.35294118      -0.44444444       0.36363636 </v>
   <v>       0.41176471      -0.44444444       0.36363636 </v>
   <v>       0.47058824      -0.44444444       0.36363636 </v>
   <v>       0.00000000      -0.38888889       0.36363636 </v>
   <v>       0.05882353      -0.38888889       0.36363636 </v>
   <v>       0.11764706      -0.38888889       0.36363636 </v>
   <v>       0.17647059      -0.38888889       0.36363636 </v>
   <v>       0.23529412      -0.38888889       0.36363636 </v>
   <v>       0.29411765      -0.38888889       0.36363636 </v>
   <v>       0.35294118      -0.38888889       0.36363636 </v>
   <v>       0.41176471      -0.38888889       0.36363636 </v>
   <v>       0.47058824      -0.38888889       0.36363636 </v>
   <v>       0.00000000      -0.33333333       0.36363636 </v>
   <v>       0.05882353      -0.33333333       0.36363636 </v>
   <v>       0.11764706      -0.33333333       0.36363636 </v>
   <v>       0.17647059      -0.33333333       0.36363636 </v>
   <v>       0.23529412      -0.33333333       0.36363636 </v>
   <v>       0.29411765      -0.33333333       0.36363636 </v>
   <v>       0.35294118      -0.33333333       0.36363636 </v>
   <v>       0.41176471      -0.33333333       0.36363636 </v>
   <v>       0.47058824      -0.33333333       0.36363636 </v>
   <v>       0.00000000      -0.27777778       0.36363636 </v>
   <v>       0.05882353      -0.27777778       0.36363636 </v>
   <v>       0.11764706      -0.27777778       0.36363636 </v>
   <v>       0.17647059      -0.27777778       0.36363636 </v>
   <v>       0.23529412      -0.27777778       0.36363636 </v>
   <v>       0.29411765      -0.27777778       0.36363636 </v>
   <v>       0.35294118      -0.27777778       0.36363636 </v>
   <v>       0.41176471      -0.27777778       0.36363636 </v>
   <v>       0.47058824      -0.27777778       0.36363636 </v>
   <v>       0.00000000      -0.22222222       0.36363636 </v>
   <v>       0.05882353      -0.22222222       0.36363636 </v>
   <v>       0.11764706      -0.22222222       0.36363636 </v>
   <v>       0.17647059      -0.22222222       0.36363636 </v>
   <v>       0.23529412      -0.22222222       0.36363636 </v>
   <v>       0.29411765      -0.22222222       0.36363636 </v>
   <v>       0.35294118      -0.22222222       0.36363636 </v>
   <v>       0.41176471      -0.22222222       0.36363636 </v>
   <v>       0.47058824      -0.22222222       0.36363636 </v>
   <v>       0.00000000      -0.16666667       0.36363636 </v>
   <v>       0.05882353      -0.16666667       0.36363636 </v>
   <v>       0.11764706      -0.16666667       0.36363636 </v>
   <v>       0.17647059      -0.16666667       0.36363636 </v>
   <v>       0.23529412      -0.16666667       0.36363636 </v>
   <v>       0.29411765      -0.16666667       0.36363636 </v>
   <v>       0.35294118      -0.16666667       0.36363636 </v>
   <v>       0.41176471      -0.16666667       0.36363636 </v>
   <v>       0.47058824      -0.16666667       0.36363636 </v>
   <v>       0.00000000      -0.11111111       0.36363636 </v>
   <v>       0.05882353      -0.11111111       0.36363636 </v>
   <v>       0.11764706      -0.11111111       0.36363636 </v>
   <v>       0.17647059      -0.11111111       0.36363636 </v>
   <v>       0.23529412      -0.11111111       0.36363636 </v>
   <v>       0.29411765      -0.11111111       0.36363636 </v>
   <v>       0.35294118      -0.11111111       0.36363636 </v>
   <v>       0.41176471      -0.11111111       0.36363636 </v>
   <v>       0.47058824      -0.11111111       0.36363636 </v>
   <v>       0.00000000      -0.05555556       0.36363636 </v>
   <v>       0.05882353      -0.05555556       0.36363636 </v>
   <v>       0.11764706      -0.05555556       0.36363636 </v>
   <v>       0.17647059      -0.05555556       0.36363636 </v>
   <v>       0.23529412      -0.05555556       0.36363636 </v>
   <v>       0.29411765      -0.05555556       0.36363636 </v>
   <v>       0.35294118      -0.05555556       0.36363636 </v>
   <v>       0.41176471      -0.05555556       0.36363636 </v>
   <v>       0.47058824      -0.05555556       0.36363636 </v>
   <v>       0.00000000       0.00000000       0.45454545 </v>
   <v>       0.05882353       0.00000000       0.45454545 </v>
   <v>       0.11764706       0.00000000       0.45454545 </v>
   <v>       0.17647059       0.00000000       0.45454545 </v>
   <v>       0.23529412       0.00000000       0.45454545 </v>
   <v>       0.29411765       0.00000000       0.45454545 </v>
   <v>       0.35294118       0.00000000       0.45454545 </v>
   <v>       0.41176471       0.00000000       0.45454545 </v>
   <v>       0.47058824       0.00000000       0.45454545 </v>
   <v>       0.00000000       0.05555556       0.45454545 </v>
   <v>       0.05882353       0.05555556       0.45454545 </v>
   <v>       0.11764706       0.05555556       0.45454545 </v>
   <v>       0.17647059       0.05555556       0.45454545 </v>
   <v>       0.23529412       0.05555556       0.45454545 </v>
   <v>       0.29411765       0.05555556       0.45454545 </v>
   <v>       0.35294118       0.05555556       0.45454545 </v>
   <v>       0.41176471       0.05555556       0.45454545 </v>
   <v>       0.47058824       0.05555556       0.45454545 </v>
   <v>       0.00000000       0.11111111       0.45454545 </v>
   <v>       0.05882353       0.11111111       0.45454545 </v>
   <v>       0.11764706       0.11111111       0.45454545 </v>
   <v>       0.17647059       0.11111111       0.45454545 </v>
   <v>       0.23529412       0.11111111       0.45454545 </v>
   <v>       0.29411765       0.11111111       0.45454545 </v>
   <v>       0.35294118       0.11111111       0.45454545 </v>
   <v>       0.41176471       0.11111111       0.45454545 </v>
   <v>       0.47058824       0.11111111       0.45454545 </v>
   <v>       0.00000000       0.16666667       0.45454545 </v>
   <v>       0.05882353       0.16666667       0.45454545 </v>
   <v>       0.11764706       0.16666667       0.45454545 </v>
   <v>       0.17647059       0.16666667       0.45454545 </v>
   <v>       0.23529412       0.16666667       0.45454545 </v>
   <v>       0.29411765       0.16666667       0.45454545 </v>
   <v>       0.35294118       0.16666667       0.45454545 </v>
   <v>       0.41176471       0.16666667       0.45454545 </v>
   <v>       0.47058824       0.16666667       0.45454545 </v>
   <v>       0.00000000       0.22222222       0.45454545 </v>
   <v>       0.05882353       0.22222222       0.45454545 </v>
   <v>       0.11764706       0.22222222       0.45454545 </v>
   <v>       0.17647059       0.22222222       0.45454545 </v>
   <v>       0.23529412       0.22222222       0.45454545 </v>
   <v>       0.29411765       0.22222222       0.45454545 </v>
   <v>       0.35294118       0.22222222       0.45454545 </v>
   <v>       0.41176471       0.22222222       0.45454545 </v>
   <v>       0.47058824       0.22222222       0.45454545 </v>
   <v>       0.00000000       0.27777778       0.45454545 </v>
   <v>       0.05882353       0.27777778       0.45454545 </v>
   <v>       0.11764706       0.27777778       0.45454545 </v>
   <v>       0.17647059       0.27777778       0.45454545 </v>
   <v>       0.23529412       0.27777778       0.45454545 </v>
   <v>       0.29411765       0.27777778       0.45454545 </v>
   <v>       0.35294118       0.27777778       0.45454545 </v>
   <v>       0.41176471       0.27777778       0.45454545 </v>
   <v>       0.47058824       0.27777778       0.45454545 </v>
   <v>       0.00000000       0.33333333       0.45454545 </v>
   <v>       0.05882353       0.33333333       0.45454545 </v>
   <v>       0.11764706       0.33333333       0.45454545 </v>
   <v>       0.17647059       0.33333333       0.45454545 </v>
   <v>       0.23529412       0.33333333       0.45454545 </v>
   <v>       0.29411765       0.33333333       0.45454545 </v>
   <v>       0.35294118       0.33333333       0.45454545 </v>
   <v>       0.41176471       0.33333333       0.45454545 </v>
   <v>       0.47058824       0.33333333       0.45454545 </v>
   <v>       0.00000000       0.38888889       0.45454545 </v>
   <v>       0.05882353       0.38888889       0.45454545 </v>
   <v>       0.11764706       0.38888889       0.45454545 </v>
   <v>       0.17647059       0.38888889       0.45454545 </v>
   <v>       0.23529412       0.38888889       0.45454545 </v>
   <v>       0.29411765       0.38888889       0.45454545 </v>
   <v>       0.35294118       0.38888889       0.45454545 </v>
   <v>       0.41176471       0.38888889       0.45454545 </v>
   <v>       0.47058824       0.38888889       0.45454545 </v>
   <v>       0.00000000       0.44444444       0.45454545 </v>
   <v>       0.05882353       0.44444444       0.45454545 </v>
   <v>       0.11764706       0.44444444       0.45454545 </v>
   <v>       0.17647059       0.44444444       0.45454545 </v>
   <v>       0.23529412       0.44444444       0.45454545 </v>
   <v>       0.29411765       0.44444444       0.45454545 </v>
   <v>       0.35294118       0.44444444       0.45454545 </v>
   <v>       0.41176471       0.44444444       0.45454545 </v>
   <v>       0.47058824       0.44444444       0.45454545 </v>
   <v>       0.00000000       0.50000000       0.45454545 </v>
   <v>       0.05882353       0.50000000       0.45454545 </v>
   <v>       0.11764706       0.50000000       0.45454545 </v>
   <v>       0.17647059       0.50000000       0.45454545 </v>
   <v>       0.23529412       0.50000000       0.45454545 </v>
   <v>       0.29411765       0.50000000       0.45454545 </v>
   <v>       0.35294118       0.50000000       0.45454545 </v>
   <v>       0.41176471       0.50000000       0.45454545 </v>
   <v>       0.47058824       0.50000000       0.45454545 </v>
   <v>       0.00000000      -0.44444444       0.45454545 </v>
   <v>       0.05882353      -0.44444444       0.45454545 </v>
   <v>       0.11764706      -0.44444444       0.45454545 </v>
   <v>       0.17647059      -0.44444444       0.45454545 </v>
   <v>       0.23529412      -0.44444444       0.45454545 </v>
   <v>       0.29411765      -0.44444444       0.45454545 </v>
   <v>       0.35294118      -0.44444444       0.45454545 </v>
   <v>       0.41176471      -0.44444444       0.45454545 </v>
   <v>       0.47058824      -0.44444444       0.45454545 </v>
   <v>       0.00000000      -0.38888889       0.45454545 </v>
   <v>       0.05882353      -0.38888889       0.45454545 </v>
   <v>       0.11764706      -0.38888889       0.45454545 </v>
   <v>       0.17647059      -0.38888889       0.45454545 </v>
   <v>       0.23529412      -0.38888889       0.45454545 </v>
   <v>       0.29411765      -0.38888889       0.45454545 </v>
   <v>       0.35294118      -0.38888889       0.45454545 </v>
   <v>       0.41176471      -0.38888889       0.45454545 </v>
   <v>       0.47058824      -0.38888889       0.45454545 </v>
   <v>       0.00000000      -0.33333333       0.45454545 </v>
   <v>       0.05882353      -0.33333333       0.45454545 </v>
   <v>       0.11764706      -0.33333333       0.45454545 </v>
   <v>       0.17647059      -0.33333333       0.45454545 </v>
   <v>       0.23529412      -0.33333333       0.45454545 </v>
   <v>       0.29411765      -0.33333333       0.45454545 </v>
   <v>       0.35294118      -0.33333333       0.45454545 </v>
   <v>       0.41176471      -0.33333333       0.45454545 </v>
   <v>       0.47058824      -0.33333333       0.45454545 </v>
   <v>       0.00000000      -0.27777778       0.45454545 </v>
   <v>       0.05882353      -0.27777778       0.45454545 </v>
   <v>       0.11764706      -0.27777778       0.45454545 </v>
   <v>       0.17647059      -0.27777778       0.45454545 </v>
   <v>       0.23529412      -0.27777778       0.45454545 </v>
   <v>       0.29411765      -0.27777778       0.45454545 </v>
   <v>       0.35294118      -0.27777778       0.45454545 </v>
   <v>       0.41176471      -0.27777778       0.45454545 </v>
   <v>       0.47058824      -0.27777778       0.45454545 </v>
   <v>       0.00000000      -0.22222222       0.45454545 </v>
   <v>       0.05882353      -0.22222222       0.45454545 </v>
   <v>       0.11764706      -0.22222222       0.45454545 </v>
   <v>       0.17647059      -0.22222222       0.45454545 </v>
   <v>       0.23529412      -0.22222222       0.45454545 </v>
   <v>       0.29411765      -0.22222222       0.45454545 </v>
   <v>       0.35294118      -0.22222222       0.45454545 </v>
   <v>       0.41176471      -0.22222222       0.45454545 </v>
   <v>       0.47058824      -0.22222222       0.45454545 </v>
   <v>       0.00000000      -0.16666667       0.45454545 </v>
   <v>       0.05882353      -0.16666667       0.45454545 </v>
   <v>       0.11764706      -0.16666667       0.45454545 </v>
   <v>       0.17647059      -0.16666667       0.45454545 </v>
   <v>       0.23529412      -0.16666667       0.45454545 </v>
   <v>       0.29411765      -0.16666667       0.45454545 </v>
   <v>       0.35294118      -0.16666667       0.45454545 </v>
   <v>       0.41176471      -0.16666667       0.45454545 </v>
   <v>       0.47058824      -0.16666667       0.45454545 </v>
   <v>       0.00000000      -0.11111111       0.45454545 </v>
   <v>       0.05882353      -0.11111111       0.45454545 </v>
   <v>       0.11764706      -0.11111111       0.45454545 </v>
   <v>       0.17647059      -0.11111111       0.45454545 </v>
   <v>       0.23529412      -0.11111111       0.45454545 </v>
   <v>       0.29411765      -0.11111111       0.45454545 </v>
   <v>       0.35294118      -0.11111111       0.45454545 </v>
   <v>       0.41176471      -0.11111111       0.45454545 </v>
   <v>       0.47058824      -0.11111111       0.45454545 </v>
   <v>       0.00000000      -0.05555556       0.45454545 </v>
   <v>       0.05882353      -0.05555556       0.45454545 </v>
   <v>       0.11764706      -0.05555556       0.45454545 </v>
   <v>       0.17647059      -0.05555556       0.45454545 </v>
   <v>       0.23529412      -0.05555556       0.45454545 </v>
   <v>       0.29411765      -0.05555556       0.45454545 </v>
   <v>       0.35294118      -0.05555556       0.45454545 </v>
   <v>       0.41176471      -0.05555556       0.45454545 </v>
   <v>       0.47058824      -0.05555556       0.45454545 </v>
  </varray>
  <varray name="weights" >
   <v>       0.00029709 </v>
   <v>       0.00059418 </v>
   <v>       0.00059418 </v>
   <v>       0.00059418 </v>
   <v>       0.00059418 </v>
   <v>       0.00059418 </v>
   <v>       0.00059418 </v>
   <v>       0.00059418 </v>
   <v>       0.00059418 </v>
   <v>       0.00059418 </v>
   <v>       0.00118835 </v>
   <v>       0.00118835 </v>
   <v>       0.00118835 </v>
   <v>       0.00118835 </v>
   <v>       0.00118835 </v>
   <v>       0.00118835 </v>
   <v>       0.00118835 </v>
   <v>       0.00118835 </v>
   <v>       0.00059418 </v>
   <v>       0.00118835 </v>
   <v>       0.00118835 </v>
   <v>       0.00118835 </v>
   <v>       0.00118835 </v>
   <v>       0.00118835 </v>
   <v>       0.00118835 </v>
   <v>       0.00118835 </v>
   <v>       0.00118835 </v>
   <v>       0.00059418 </v>
   <v>       0.00118835 </v>
   <v>       0.00118835 </v>
   <v>       0.00118835 </v>
   <v>       0.00118835 </v>
   <v>       0.00118835 </v>
   <v>       0.00118835 </v>
   <v>       0.00118835 </v>
   <v>       0.00118835 </v>
   <v>       0.00059418 </v>
   <v>       0.00118835 </v>
   <v>       0.00118835 </v>
   <v>       0.00118835 </v>
   <v>       0.00118835 </v>
   <v>       0.00118835 </v>
   <v>       0.00118835 </v>
   <v>       0.00118835 </v>
   <v>       0.00118835 </v>
   <v>       0.00059418 </v>
   <v>       0.00118835 </v>
   <v>       0.00118835 </v>
   <v>       0.00118835 </v>
   <v>       0.00118835 </v>
   <v>       0.00118835 </v>
   <v>       0.00118835 </v>
   <v>       0.00118835 </v>
   <v>       0.00118835 </v>
   <v>       0.00059418 </v>
   <v>       0.00118835 </v>
   <v>       0.00118835 </v>
   <v>       0.00118835 </v>
   <v>       0.00118835 </v>
   <v>       0.00118835 </v>
   <v>       0.00118835 </v>
   <v>       0.00118835 </v>
   <v>       0.00118835 </v>
   <v>       0.00059418 </v>
   <v>       0.00118835 </v>
   <v>       0.00118835 </v>
   <v>       0.00118835 </v>
   <v>       0.00118835 </v>
   <v>       0.00118835 </v>
   <v>       0.00118835 </v>
   <v>       0.00118835 </v>
   <v>       0.00118835 </v>
   <v>       0.00059418 </v>
   <v>       0.00118835 </v>
   <v>       0.00118835 </v>
   <v>       0.00118835 </v>
   <v>       0.00118835 </v>
   <v>       0.00118835 </v>
   <v>       0.00118835 </v>
   <v>       0.00118835 </v>
   <v>       0.00118835 </v>
   <v>       0.00029709 </v>
   <v>       0.00059418 </v>
   <v>       0.00059418 </v>
   <v>       0.00059418 </v>
   <v>       0.00059418 </v>
   <v>       0.00059418 </v>
   <v>       0.00059418 </v>
   <v>       0.00059418 </v>
   <v>       0.00059418 </v>
   <v>       0.00059418 </v>
   <v>       0.00118835 </v>
   <v>       0.00118835 </v>
   <v>       0.00118835 </v>
   <v>       0.00118835 </v>
   <v>       0.00118835 </v>
   <v>       0.00118835 </v>
   <v>       0.00118835 </v>
   <v>       0.00118835 </v>
   <v>       0.00059418 </v>
   <v>       0.00118835 </v>
   <v>       0.00118835 </v>
   <v>       0.00118835 </v>
   <v>       0.00118835 </v>
   <v>       0.00118835 </v>
   <v>       0.00118835 </v>
   <v>       0.00118835 </v>
   <v>       0.00118835 </v>
   <v>       0.00059418 </v>
   <v>       0.00118835 </v>
   <v>       0.00118835 </v>
   <v>       0.00118835 </v>
   <v>       0.00118835 </v>
   <v>       0.00118835 </v>
   <v>       0.00118835 </v>
   <v>       0.00118835 </v>
   <v>       0.00118835 </v>
   <v>       0.00059418 </v>
   <v>       0.00118835 </v>
   <v>       0.00118835 </v>
   <v>       0.00118835 </v>
   <v>       0.00118835 </v>
   <v>       0.00118835 </v>
   <v>       0.00118835 </v>
   <v>       0.00118835 </v>
   <v>       0.00118835 </v>
   <v>       0.00059418 </v>
   <v>       0.00118835 </v>
   <v>       0.00118835 </v>
   <v>       0.00118835 </v>
   <v>       0.00118835 </v>
   <v>       0.00118835 </v>
   <v>       0.00118835 </v>
   <v>       0.00118835 </v>
   <v>       0.00118835 </v>
   <v>       0.00059418 </v>
   <v>       0.00118835 </v>
   <v>       0.00118835 </v>
   <v>       0.00118835 </v>
   <v>       0.00118835 </v>
   <v>       0.00118835 </v>
   <v>       0.00118835 </v>
   <v>       0.00118835 </v>
   <v>       0.00118835 </v>
   <v>       0.00059418 </v>
   <v>       0.00118835 </v>
   <v>       0.00118835 </v>
   <v>       0.00118835 </v>
   <v>       0.00118835 </v>
   <v>       0.00118835 </v>
   <v>       0.00118835 </v>
   <v>       0.00118835 </v>
   <v>       0.00118835 </v>
   <v>       0.00059418 </v>
   <v>       0.00118835 </v>
   <v>       0.00118835 </v>
   <v>       0.00118835 </v>
   <v>       0.00118835 </v>
   <v>       0.00118835 </v>
   <v>       0.00118835 </v>
   <v>       0.00118835 </v>
   <v>       0.00118835 </v>
   <v>       0.00059418 </v>
   <v>       0.00118835 </v>
   <v>       0.00118835 </v>
   <v>       0.00118835 </v>
   <v>       0.00118835 </v>
   <v>       0.00118835 </v>
   <v>       0.00118835 </v>
   <v>       0.00118835 </v>
   <v>       0.00118835 </v>
   <v>       0.00059418 </v>
   <v>       0.00118835 </v>
   <v>       0.00118835 </v>
   <v>       0.00118835 </v>
   <v>       0.00118835 </v>
   <v>       0.00118835 </v>
   <v>       0.00118835 </v>
   <v>       0.00118835 </v>
   <v>       0.00118835 </v>
   <v>       0.00059418 </v>
   <v>       0.00118835 </v>
   <v>       0.00118835 </v>
   <v>       0.00118835 </v>
   <v>       0.00118835 </v>
   <v>       0.00118835 </v>
   <v>       0.00118835 </v>
   <v>       0.00118835 </v>
   <v>       0.00118835 </v>
   <v>       0.00059418 </v>
   <v>       0.00118835 </v>
   <v>       0.00118835 </v>
   <v>       0.00118835 </v>
   <v>       0.00118835 </v>
   <v>       0.00118835 </v>
   <v>       0.00118835 </v>
   <v>       0.00118835 </v>
   <v>       0.00118835 </v>
   <v>       0.00059418 </v>
   <v>       0.00118835 </v>
   <v>       0.00118835 </v>
   <v>       0.00118835 </v>
   <v>       0.00118835 </v>
   <v>       0.00118835 </v>
   <v>       0.00118835 </v>
   <v>       0.00118835 </v>
   <v>       0.00118835 </v>
   <v>       0.00059418 </v>
   <v>       0.00118835 </v>
   <v>       0.00118835 </v>
   <v>       0.00118835 </v>
   <v>       0.00118835 </v>
   <v>       0.00118835 </v>
   <v>       0.00118835 </v>
   <v>       0.00118835 </v>
   <v>       0.00118835 </v>
   <v>       0.00059418 </v>
   <v>       0.00118835 </v>
   <v>       0.00118835 </v>
   <v>       0.00118835 </v>
   <v>       0.00118835 </v>
   <v>       0.00118835 </v>
   <v>       0.00118835 </v>
   <v>       0.00118835 </v>
   <v>       0.00118835 </v>
   <v>       0.00059418 </v>
   <v>       0.00118835 </v>
   <v>       0.00118835 </v>
   <v>       0.00118835 </v>
   <v>       0.00118835 </v>
   <v>       0.00118835 </v>
   <v>       0.00118835 </v>
   <v>       0.00118835 </v>
   <v>       0.00118835 </v>
   <v>       0.00059418 </v>
   <v>       0.00118835 </v>
   <v>       0.00118835 </v>
   <v>       0.00118835 </v>
   <v>       0.00118835 </v>
   <v>       0.00118835 </v>
   <v>       0.00118835 </v>
   <v>       0.00118835 </v>
   <v>       0.00118835 </v>
   <v>       0.00059418 </v>
   <v>       0.00118835 </v>
   <v>       0.00118835 </v>
   <v>       0.00118835 </v>
   <v>       0.00118835 </v>
   <v>       0.00118835 </v>
   <v>       0.00118835 </v>
   <v>       0.00118835 </v>
   <v>       0.00118835 </v>
   <v>       0.00059418 </v>
   <v>       0.00118835 </v>
   <v>       0.00118835 </v>
   <v>       0.00118835 </v>
   <v>       0.00118835 </v>
   <v>       0.00118835 </v>
   <v>       0.00118835 </v>
   <v>       0.00118835 </v>
   <v>       0.00118835 </v>
   <v>       0.00059418 </v>
   <v>       0.00118835 </v>
   <v>       0.00118835 </v>
   <v>       0.00118835 </v>
   <v>       0.00118835 </v>
   <v>       0.00118835 </v>
   <v>       0.00118835 </v>
   <v>       0.00118835 </v>
   <v>       0.00118835 </v>
   <v>       0.00059418 </v>
   <v>       0.00118835 </v>
   <v>       0.00118835 </v>
   <v>       0.00118835 </v>
   <v>       0.00118835 </v>
   <v>       0.00118835 </v>
   <v>       0.00118835 </v>
   <v>       0.00118835 </v>
   <v>       0.00118835 </v>
   <v>       0.00059418 </v>
   <v>       0.00118835 </v>
   <v>       0.00118835 </v>
   <v>       0.00118835 </v>
   <v>       0.00118835 </v>
   <v>       0.00118835 </v>
   <v>       0.00118835 </v>
   <v>       0.00118835 </v>
   <v>       0.00118835 </v>
   <v>       0.00059418 </v>
   <v>       0.00118835 </v>
   <v>       0.00118835 </v>
   <v>       0.00118835 </v>
   <v>       0.00118835 </v>
   <v>       0.00118835 </v>
   <v>       0.00118835 </v>
   <v>       0.00118835 </v>
   <v>       0.00118835 </v>
   <v>       0.00059418 </v>
   <v>       0.00118835 </v>
   <v>       0.00118835 </v>
   <v>       0.00118835 </v>
   <v>       0.00118835 </v>
   <v>       0.00118835 </v>
   <v>       0.00118835 </v>
   <v>       0.00118835 </v>
   <v>       0.00118835 </v>
   <v>       0.00059418 </v>
   <v>       0.00118835 </v>
   <v>       0.00118835 </v>
   <v>       0.00118835 </v>
   <v>       0.00118835 </v>
   <v>       0.00118835 </v>
   <v>       0.00118835 </v>
   <v>       0.00118835 </v>
   <v>       0.00118835 </v>
   <v>       0.00059418 </v>
   <v>       0.00118835 </v>
   <v>       0.00118835 </v>
   <v>       0.00118835 </v>
   <v>       0.00118835 </v>
   <v>       0.00118835 </v>
   <v>       0.00118835 </v>
   <v>       0.00118835 </v>
   <v>       0.00118835 </v>
   <v>       0.00059418 </v>
   <v>       0.00118835 </v>
   <v>       0.00118835 </v>
   <v>       0.00118835 </v>
   <v>       0.00118835 </v>
   <v>       0.00118835 </v>
   <v>       0.00118835 </v>
   <v>       0.00118835 </v>
   <v>       0.00118835 </v>
   <v>       0.00059418 </v>
   <v>       0.00118835 </v>
   <v>       0.00118835 </v>
   <v>       0.00118835 </v>
   <v>       0.00118835 </v>
   <v>       0.00118835 </v>
   <v>       0.00118835 </v>
   <v>       0.00118835 </v>
   <v>       0.00118835 </v>
   <v>       0.00059418 </v>
   <v>       0.00118835 </v>
   <v>       0.00118835 </v>
   <v>       0.00118835 </v>
   <v>       0.00118835 </v>
   <v>       0.00118835 </v>
   <v>       0.00118835 </v>
   <v>       0.00118835 </v>
   <v>       0.00118835 </v>
   <v>       0.00059418 </v>
   <v>       0.00118835 </v>
   <v>       0.00118835 </v>
   <v>       0.00118835 </v>
   <v>       0.00118835 </v>
   <v>       0.00118835 </v>
   <v>       0.00118835 </v>
   <v>       0.00118835 </v>
   <v>       0.00118835 </v>
   <v>       0.00059418 </v>
   <v>       0.00118835 </v>
   <v>       0.00118835 </v>
   <v>       0.00118835 </v>
   <v>       0.00118835 </v>
   <v>       0.00118835 </v>
   <v>       0.00118835 </v>
   <v>       0.00118835 </v>
   <v>       0.00118835 </v>
   <v>       0.00059418 </v>
   <v>       0.00118835 </v>
   <v>       0.00118835 </v>
   <v>       0.00118835 </v>
   <v>       0.00118835 </v>
   <v>       0.00118835 </v>
   <v>       0.00118835 </v>
   <v>       0.00118835 </v>
   <v>       0.00118835 </v>
   <v>       0.00059418 </v>
   <v>       0.00118835 </v>
   <v>       0.00118835 </v>
   <v>       0.00118835 </v>
   <v>       0.00118835 </v>
   <v>       0.00118835 </v>
   <v>       0.00118835 </v>
   <v>       0.00118835 </v>
   <v>       0.00118835 </v>
   <v>       0.00059418 </v>
   <v>       0.00118835 </v>
   <v>       0.00118835 </v>
   <v>       0.00118835 </v>
   <v>       0.00118835 </v>
   <v>       0.00118835 </v>
   <v>       0.00118835 </v>
   <v>       0.00118835 </v>
   <v>       0.00118835 </v>
   <v>       0.00059418 </v>
   <v>       0.00118835 </v>
   <v>       0.00118835 </v>
   <v>       0.00118835 </v>
   <v>       0.00118835 </v>
   <v>       0.00118835 </v>
   <v>       0.00118835 </v>
   <v>       0.00118835 </v>
   <v>       0.00118835 </v>
   <v>       0.00059418 </v>
   <v>       0.00118835 </v>
   <v>       0.00118835 </v>
   <v>       0.00118835 </v>
   <v>       0.00118835 </v>
   <v>       0.00118835 </v>
   <v>       0.00118835 </v>
   <v>       0.00118835 </v>
   <v>       0.00118835 </v>
   <v>       0.00059418 </v>
   <v>       0.00118835 </v>
   <v>       0.00118835 </v>
   <v>       0.00118835 </v>
   <v>       0.00118835 </v>
   <v>       0.00118835 </v>
   <v>       0.00118835 </v>
   <v>       0.00118835 </v>
   <v>       0.00118835 </v>
   <v>       0.00059418 </v>
   <v>       0.00118835 </v>
   <v>       0.00118835 </v>
   <v>       0.00118835 </v>
   <v>       0.00118835 </v>
   <v>       0.00118835 </v>
   <v>       0.00118835 </v>
   <v>       0.00118835 </v>
   <v>       0.00118835 </v>
   <v>       0.00059418 </v>
   <v>       0.00118835 </v>
   <v>       0.00118835 </v>
   <v>       0.00118835 </v>
   <v>       0.00118835 </v>
   <v>       0.00118835 </v>
   <v>       0.00118835 </v>
   <v>       0.00118835 </v>
   <v>       0.00118835 </v>
   <v>       0.00059418 </v>
   <v>       0.00118835 </v>
   <v>       0.00118835 </v>
   <v>       0.00118835 </v>
   <v>       0.00118835 </v>
   <v>       0.00118835 </v>
   <v>       0.00118835 </v>
   <v>       0.00118835 </v>
   <v>       0.00118835 </v>
   <v>       0.00059418 </v>
   <v>       0.00118835 </v>
   <v>       0.00118835 </v>
   <v>       0.00118835 </v>
   <v>       0.00118835 </v>
   <v>       0.00118835 </v>
   <v>       0.00118835 </v>
   <v>       0.00118835 </v>
   <v>       0.00118835 </v>
   <v>       0.00059418 </v>
   <v>       0.00118835 </v>
   <v>       0.00118835 </v>
   <v>       0.00118835 </v>
   <v>       0.00118835 </v>
   <v>       0.00118835 </v>
   <v>       0.00118835 </v>
   <v>       0.00118835 </v>
   <v>       0.00118835 </v>
   <v>       0.00059418 </v>
   <v>       0.00118835 </v>
   <v>       0.00118835 </v>
   <v>       0.00118835 </v>
   <v>       0.00118835 </v>
   <v>       0.00118835 </v>
   <v>       0.00118835 </v>
   <v>       0.00118835 </v>
   <v>       0.00118835 </v>
   <v>       0.00059418 </v>
   <v>       0.00118835 </v>
   <v>       0.00118835 </v>
   <v>       0.00118835 </v>
   <v>       0.00118835 </v>
   <v>       0.00118835 </v>
   <v>       0.00118835 </v>
   <v>       0.00118835 </v>
   <v>       0.00118835 </v>
   <v>       0.00059418 </v>
   <v>       0.00118835 </v>
   <v>       0.00118835 </v>
   <v>       0.00118835 </v>
   <v>       0.00118835 </v>
   <v>       0.00118835 </v>
   <v>       0.00118835 </v>
   <v>       0.00118835 </v>
   <v>       0.00118835 </v>
   <v>       0.00059418 </v>
   <v>       0.00118835 </v>
   <v>       0.00118835 </v>
   <v>       0.00118835 </v>
   <v>       0.00118835 </v>
   <v>       0.00118835 </v>
   <v>       0.00118835 </v>
   <v>       0.00118835 </v>
   <v>       0.00118835 </v>
   <v>       0.00059418 </v>
   <v>       0.00118835 </v>
   <v>       0.00118835 </v>
   <v>       0.00118835 </v>
   <v>       0.00118835 </v>
   <v>       0.00118835 </v>
   <v>       0.00118835 </v>
   <v>       0.00118835 </v>
   <v>       0.00118835 </v>
   <v>       0.00059418 </v>
   <v>       0.00118835 </v>
   <v>       0.00118835 </v>
   <v>       0.00118835 </v>
   <v>       0.00118835 </v>
   <v>       0.00118835 </v>
   <v>       0.00118835 </v>
   <v>       0.00118835 </v>
   <v>       0.00118835 </v>
   <v>       0.00059418 </v>
   <v>       0.00118835 </v>
   <v>       0.00118835 </v>
   <v>       0.00118835 </v>
   <v>       0.00118835 </v>
   <v>       0.00118835 </v>
   <v>       0.00118835 </v>
   <v>       0.00118835 </v>
   <v>       0.00118835 </v>
   <v>       0.00059418 </v>
   <v>       0.00118835 </v>
   <v>       0.00118835 </v>
   <v>       0.00118835 </v>
   <v>       0.00118835 </v>
   <v>       0.00118835 </v>
   <v>       0.00118835 </v>
   <v>       0.00118835 </v>
   <v>       0.00118835 </v>
   <v>       0.00059418 </v>
   <v>       0.00118835 </v>
   <v>       0.00118835 </v>
   <v>       0.00118835 </v>
   <v>       0.00118835 </v>
   <v>       0.00118835 </v>
   <v>       0.00118835 </v>
   <v>       0.00118835 </v>
   <v>       0.00118835 </v>
   <v>       0.00059418 </v>
   <v>       0.00118835 </v>
   <v>       0.00118835 </v>
   <v>       0.00118835 </v>
   <v>       0.00118835 </v>
   <v>       0.00118835 </v>
   <v>       0.00118835 </v>
   <v>       0.00118835 </v>
   <v>       0.00118835 </v>
   <v>       0.00059418 </v>
   <v>       0.00118835 </v>
   <v>       0.00118835 </v>
   <v>       0.00118835 </v>
   <v>       0.00118835 </v>
   <v>       0.00118835 </v>
   <v>       0.00118835 </v>
   <v>       0.00118835 </v>
   <v>       0.00118835 </v>
   <v>       0.00059418 </v>
   <v>       0.00118835 </v>
   <v>       0.00118835 </v>
   <v>       0.00118835 </v>
   <v>       0.00118835 </v>
   <v>       0.00118835 </v>
   <v>       0.00118835 </v>
   <v>       0.00118835 </v>
   <v>       0.00118835 </v>
   <v>       0.00059418 </v>
   <v>       0.00118835 </v>
   <v>       0.00118835 </v>
   <v>       0.00118835 </v>
   <v>       0.00118835 </v>
   <v>       0.00118835 </v>
   <v>       0.00118835 </v>
   <v>       0.00118835 </v>
   <v>       0.00118835 </v>
   <v>       0.00059418 </v>
   <v>       0.00118835 </v>
   <v>       0.00118835 </v>
   <v>       0.00118835 </v>
   <v>       0.00118835 </v>
   <v>       0.00118835 </v>
   <v>       0.00118835 </v>
   <v>       0.00118835 </v>
   <v>       0.00118835 </v>
   <v>       0.00059418 </v>
   <v>       0.00118835 </v>
   <v>       0.00118835 </v>
   <v>       0.00118835 </v>
   <v>       0.00118835 </v>
   <v>       0.00118835 </v>
   <v>       0.00118835 </v>
   <v>       0.00118835 </v>
   <v>       0.00118835 </v>
   <v>       0.00059418 </v>
   <v>       0.00118835 </v>
   <v>       0.00118835 </v>
   <v>       0.00118835 </v>
   <v>       0.00118835 </v>
   <v>       0.00118835 </v>
   <v>       0.00118835 </v>
   <v>       0.00118835 </v>
   <v>       0.00118835 </v>
   <v>       0.00059418 </v>
   <v>       0.00118835 </v>
   <v>       0.00118835 </v>
   <v>       0.00118835 </v>
   <v>       0.00118835 </v>
   <v>       0.00118835 </v>
   <v>       0.00118835 </v>
   <v>       0.00118835 </v>
   <v>       0.00118835 </v>
   <v>       0.00059418 </v>
   <v>       0.00118835 </v>
   <v>       0.00118835 </v>
   <v>       0.00118835 </v>
   <v>       0.00118835 </v>
   <v>       0.00118835 </v>
   <v>       0.00118835 </v>
   <v>       0.00118835 </v>
   <v>       0.00118835 </v>
   <v>       0.00059418 </v>
   <v>       0.00118835 </v>
   <v>       0.00118835 </v>
   <v>       0.00118835 </v>
   <v>       0.00118835 </v>
   <v>       0.00118835 </v>
   <v>       0.00118835 </v>
   <v>       0.00118835 </v>
   <v>       0.00118835 </v>
   <v>       0.00059418 </v>
   <v>       0.00118835 </v>
   <v>       0.00118835 </v>
   <v>       0.00118835 </v>
   <v>       0.00118835 </v>
   <v>       0.00118835 </v>
   <v>       0.00118835 </v>
   <v>       0.00118835 </v>
   <v>       0.00118835 </v>
   <v>       0.00059418 </v>
   <v>       0.00118835 </v>
   <v>       0.00118835 </v>
   <v>       0.00118835 </v>
   <v>       0.00118835 </v>
   <v>       0.00118835 </v>
   <v>       0.00118835 </v>
   <v>       0.00118835 </v>
   <v>       0.00118835 </v>
   <v>       0.00059418 </v>
   <v>       0.00118835 </v>
   <v>       0.00118835 </v>
   <v>       0.00118835 </v>
   <v>       0.00118835 </v>
   <v>       0.00118835 </v>
   <v>       0.00118835 </v>
   <v>       0.00118835 </v>
   <v>       0.00118835 </v>
   <v>       0.00059418 </v>
   <v>       0.00118835 </v>
   <v>       0.00118835 </v>
   <v>       0.00118835 </v>
   <v>       0.00118835 </v>
   <v>       0.00118835 </v>
   <v>       0.00118835 </v>
   <v>       0.00118835 </v>
   <v>       0.00118835 </v>
   <v>       0.00059418 </v>
   <v>       0.00118835 </v>
   <v>       0.00118835 </v>
   <v>       0.00118835 </v>
   <v>       0.00118835 </v>
   <v>       0.00118835 </v>
   <v>       0.00118835 </v>
   <v>       0.00118835 </v>
   <v>       0.00118835 </v>
   <v>       0.00059418 </v>
   <v>       0.00118835 </v>
   <v>       0.00118835 </v>
   <v>       0.00118835 </v>
   <v>       0.00118835 </v>
   <v>       0.00118835 </v>
   <v>       0.00118835 </v>
   <v>       0.00118835 </v>
   <v>       0.00118835 </v>
   <v>       0.00059418 </v>
   <v>       0.00118835 </v>
   <v>       0.00118835 </v>
   <v>       0.00118835 </v>
   <v>       0.00118835 </v>
   <v>       0.00118835 </v>
   <v>       0.00118835 </v>
   <v>       0.00118835 </v>
   <v>       0.00118835 </v>
   <v>       0.00059418 </v>
   <v>       0.00118835 </v>
   <v>       0.00118835 </v>
   <v>       0.00118835 </v>
   <v>       0.00118835 </v>
   <v>       0.00118835 </v>
   <v>       0.00118835 </v>
   <v>       0.00118835 </v>
   <v>       0.00118835 </v>
   <v>       0.00059418 </v>
   <v>       0.00118835 </v>
   <v>       0.00118835 </v>
   <v>       0.00118835 </v>
   <v>       0.00118835 </v>
   <v>       0.00118835 </v>
   <v>       0.00118835 </v>
   <v>       0.00118835 </v>
   <v>       0.00118835 </v>
   <v>       0.00059418 </v>
   <v>       0.00118835 </v>
   <v>       0.00118835 </v>
   <v>       0.00118835 </v>
   <v>       0.00118835 </v>
   <v>       0.00118835 </v>
   <v>       0.00118835 </v>
   <v>       0.00118835 </v>
   <v>       0.00118835 </v>
   <v>       0.00059418 </v>
   <v>       0.00118835 </v>
   <v>       0.00118835 </v>
   <v>       0.00118835 </v>
   <v>       0.00118835 </v>
   <v>       0.00118835 </v>
   <v>       0.00118835 </v>
   <v>       0.00118835 </v>
   <v>       0.00118835 </v>
   <v>       0.00059418 </v>
   <v>       0.00118835 </v>
   <v>       0.00118835 </v>
   <v>       0.00118835 </v>
[...]
       <r>    5.0807    1.0000 </r>
       <r>    5.2831    1.0000 </r>
       <r>    5.4678    1.0000 </r>
       <r>    5.5441    1.0000 </r>
       <r>    5.6501    1.0000 </r>
       <r>    5.8148    1.0000 </r>
       <r>    5.9889    1.0000 </r>
       <r>    6.1041    1.0000 </r>
       <r>    6.4947    1.0000 </r>
       <r>    6.5059    1.0000 </r>
       <r>    6.8099    1.0000 </r>
       <r>    7.7926    1.0014 </r>
       <r>    8.5531    0.4327 </r>
       <r>   12.1853    0.0000 </r>
       <r>   12.4557    0.0000 </r>
       <r>   13.7312    0.0000 </r>
       <r>   14.0666    0.0000 </r>
       <r>   16.1264    0.0000 </r>
       <r>   16.2474    0.0000 </r>
      </set>
      <set comment="kpoint 899">
       <r>    1.7081    1.0000 </r>
       <r>    2.1620    1.0000 </r>
       <r>    2.6388    1.0000 </r>
       <r>    2.8662    1.0000 </r>
       <r>    2.9192    1.0000 </r>
       <r>    2.9801    1.0000 </r>
       <r>    3.2437    1.0000 </r>
       <r>    3.2526    1.0000 </r>
       <r>    3.2633    1.0000 </r>
       <r>    3.5299    1.0000 </r>
       <r>    3.5454    1.0000 </r>
       <r>    3.6192    1.0000 </r>
       <r>    3.7458    1.0000 </r>
       <r>    3.9676    1.0000 </r>
       <r>    4.1649    1.0000 </r>
       <r>    4.1765    1.0000 </r>
       <r>    4.1936    1.0000 </r>
       <r>    4.2604    1.0000 </r>
       <r>    4.6767    1.0000 </r>
       <r>    4.7482    1.0000 </r>
       <r>    4.9580    1.0000 </r>
       <r>    5.1342    1.0000 </r>
       <r>    5.1926    1.0000 </r>
       <r>    5.2867    1.0000 </r>
       <r>    5.3810    1.0000 </r>
       <r>    5.4849    1.0000 </r>
       <r>    5.6222    1.0000 </r>
       <r>    5.7714    1.0000 </r>
       <r>    6.3149    1.0000 </r>
       <r>    6.4939    1.0000 </r>
       <r>    6.7708    1.0000 </r>
       <r>    6.8154    1.0000 </r>
       <r>    7.3268    1.0000 </r>
       <r>    8.0080    1.0170 </r>
       <r>   12.4849    0.0000 </r>
       <r>   12.9441    0.0000 </r>
       <r>   13.9511    0.0000 </r>
       <r>   14.0654    0.0000 </r>
       <r>   15.6502    0.0000 </r>
       <r>   15.8409    0.0000 </r>
      </set>
      <set comment="kpoint 900">
       <r>    2.0314    1.0000 </r>
       <r>    2.2949    1.0000 </r>
       <r>    2.4658    1.0000 </r>
       <r>    2.8678    1.0000 </r>
       <r>    2.9720    1.0000 </r>
       <r>    3.0231    1.0000 </r>
       <r>    3.3446    1.0000 </r>
       <r>    3.4487    1.0000 </r>
       <r>    3.5149    1.0000 </r>
       <r>    3.5211    1.0000 </r>
       <r>    3.5581    1.0000 </r>
       <r>    3.6105    1.0000 </r>
       <r>    3.8359    1.0000 </r>
       <r>    3.8423    1.0000 </r>
       <r>    3.9048    1.0000 </r>
       <r>    4.0066    1.0000 </r>
       <r>    4.0771    1.0000 </r>
       <r>    4.1316    1.0000 </r>
       <r>    4.7498    1.0000 </r>
       <r>    4.8769    1.0000 </r>
       <r>    4.9032    1.0000 </r>
       <r>    5.0470    1.0000 </r>
       <r>    5.2434    1.0000 </r>
       <r>    5.2931    1.0000 </r>
       <r>    5.3202    1.0000 </r>
       <r>    5.3858    1.0000 </r>
       <r>    5.4420    1.0000 </r>
       <r>    5.5425    1.0000 </r>
       <r>    6.4920    1.0000 </r>
       <r>    6.5530    1.0000 </r>
       <r>    6.8072    1.0000 </r>
       <r>    6.8696    1.0000 </r>
       <r>    7.1915    1.0000 </r>
       <r>    7.5606    1.0000 </r>
       <r>   12.6017    0.0000 </r>
       <r>   13.2115    0.0000 </r>
       <r>   14.1365    0.0000 </r>
       <r>   14.3283    0.0000 </r>
       <r>   15.2005    0.0000 </r>
       <r>   15.4802    0.0000 </r>
      </set>
     </set>
    </set>
   </array>
  </eigenvalues>
  <separator name="orbital magnetization" >
   <v name="MAGDIPOLOUT">      0.00000000      0.00000000      0.00000000</v>
  </separator>
  <dos>
   <i name="efermi">      8.52915532 </i>
   <total>
    <array>
     <dimension dim="1">gridpoints</dimension>
     <dimension dim="2">spin</dimension>
     <field>energy</field>
     <field>total</field>
     <field>integrated</field>
     <set>
      <set comment="spin 1">
       <r>    -3.5484     0.0000     0.0000 </r>
       <r>    -3.4683     0.0000     0.0000 </r>
       <r>    -3.3881     0.0000     0.0000 </r>
       <r>    -3.3079     0.0000     0.0000 </r>
       <r>    -3.2277     0.0000     0.0000 </r>
       <r>    -3.1475     0.0000     0.0000 </r>
       <r>    -3.0674     0.0000     0.0000 </r>
       <r>    -2.9872     0.0000     0.0000 </r>
       <r>    -2.9070     0.0000     0.0000 </r>
       <r>    -2.8268     0.0000     0.0000 </r>
       <r>    -2.7466     0.0000     0.0000 </r>
       <r>    -2.6664     0.0000     0.0000 </r>
       <r>    -2.5863     0.0000     0.0000 </r>
       <r>    -2.5061     0.0000     0.0000 </r>
       <r>    -2.4259     0.0000     0.0000 </r>
       <r>    -2.3457     0.0000     0.0000 </r>
       <r>    -2.2655     0.0000     0.0000 </r>
       <r>    -2.1854     0.0000     0.0000 </r>
       <r>    -2.1052     0.0000     0.0000 </r>
       <r>    -2.0250     0.0000     0.0000 </r>
       <r>    -1.9448     0.0000     0.0000 </r>
       <r>    -1.8646     0.0000     0.0000 </r>
       <r>    -1.7844     0.0000     0.0000 </r>
       <r>    -1.7043     0.0000     0.0000 </r>
       <r>    -1.6241     0.0000     0.0000 </r>
       <r>    -1.5439     0.0000     0.0000 </r>
       <r>    -1.4637     0.0000     0.0000 </r>
       <r>    -1.3835     0.0000     0.0000 </r>
       <r>    -1.3033    -0.0001     0.0000 </r>
       <r>    -1.2232    -0.0002     0.0000 </r>
       <r>    -1.1430    -0.0007    -0.0001 </r>
       <r>    -1.0628    -0.0018    -0.0002 </r>
       <r>    -0.9826    -0.0038    -0.0005 </r>
       <r>    -0.9024    -0.0065    -0.0011 </r>
       <r>    -0.8223    -0.0081    -0.0017 </r>
       <r>    -0.7421    -0.0051    -0.0021 </r>
       <r>    -0.6619     0.0079    -0.0015 </r>
       <r>    -0.5817     0.0356     0.0014 </r>
       <r>    -0.5015     0.0793     0.0077 </r>
       <r>    -0.4213     0.1351     0.0186 </r>
       <r>    -0.3412     0.1959     0.0343 </r>
       <r>    -0.2610     0.2546     0.0547 </r>
       <r>    -0.1808     0.3071     0.0793 </r>
       <r>    -0.1006     0.3531     0.1076 </r>
       <r>    -0.0204     0.3946     0.1393 </r>
       <r>     0.0597     0.4341     0.1741 </r>
       <r>     0.1399     0.4738     0.2121 </r>
       <r>     0.2201     0.5149     0.2534 </r>
       <r>     0.3003     0.5568     0.2980 </r>
       <r>     0.3805     0.5966     0.3458 </r>
       <r>     0.4607     0.6305     0.3964 </r>
       <r>     0.5408     0.6573     0.4491 </r>
       <r>     0.6210     0.6792     0.5036 </r>
       <r>     0.7012     0.7010     0.5598 </r>
       <r>     0.7814     0.7272     0.6181 </r>
       <r>     0.8616     0.7612     0.6791 </r>
       <r>     0.9418     0.8048     0.7436 </r>
       <r>     1.0219     0.8578     0.8124 </r>
       <r>     1.1021     0.9179     0.8860 </r>
       <r>     1.1823     0.9810     0.9647 </r>
       <r>     1.2625     1.0460     1.0485 </r>
       <r>     1.3427     1.1202     1.1384 </r>
       <r>     1.4228     1.2243     1.2365 </r>
       <r>     1.5030     1.3926     1.3482 </r>
       <r>     1.5832     1.6620     1.4815 </r>
       <r>     1.6634     2.0511     1.6459 </r>
       <r>     1.7436     2.5422     1.8498 </r>
       <r>     1.8238     3.0902     2.0975 </r>
       <r>     1.9039     3.6616     2.3911 </r>
       <r>     1.9841     4.2767     2.7340 </r>
       <r>     2.0643     5.0133     3.1360 </r>
       <r>     2.1445     5.9600     3.6139 </r>
       <r>     2.2247     7.1482     4.1871 </r>
       <r>     2.3049     8.5084     4.8693 </r>
       <r>     2.3850     9.8764     5.6612 </r>
       <r>     2.4652    11.0512     6.5473 </r>
       <r>     2.5454    11.8788     7.4998 </r>
       <r>     2.6256    12.3132     8.4871 </r>
       <r>     2.7058    12.4098     9.4821 </r>
       <r>     2.7859    12.2585    10.4650 </r>
       <r>     2.8661    11.9153    11.4204 </r>
       <r>     2.9463    11.3988    12.3344 </r>
       <r>     3.0265    10.7511    13.1965 </r>
       <r>     3.1067    10.1024    14.0065 </r>
       <r>     3.1869     9.6658    14.7815 </r>
       <r>     3.2670     9.6439    15.5548 </r>
       <r>     3.3472    10.1062    16.3651 </r>
       <r>     3.4274    10.9322    17.2417 </r>
       <r>     3.5076    11.8677    18.1933 </r>
       <r>     3.5878    12.6567    19.2081 </r>
       <r>     3.6679    13.1610    20.2634 </r>
       <r>     3.7481    13.4092    21.3386 </r>
       <r>     3.8283    13.5710    22.4267 </r>
       <r>     3.9085    13.8925    23.5406 </r>
       <r>     3.9887    14.6075    24.7119 </r>
       <r>     4.0689    15.8243    25.9807 </r>
       <r>     4.1490    17.4029    27.3761 </r>
       <r>     4.2292    18.9078    28.8922 </r>
       <r>     4.3094    19.7444    30.4753 </r>
       <r>     4.3896    19.4706    32.0365 </r>
       <r>     4.4698    18.0895    33.4870 </r>
       <r>     4.5500    16.0800    34.7763 </r>
       <r>     4.6301    14.1175    35.9083 </r>
       <r>     4.7103    12.7054    36.9270 </r>
       <r>     4.7905    11.9899    37.8884 </r>
       <r>     4.8707    11.8388    38.8377 </r>
       <r>     4.9509    12.0385    39.8029 </r>
       <r>     5.0310    12.4283    40.7995 </r>
       <r>     5.1112    12.9100    41.8346 </r>
       <r>     5.1914    13.3900    42.9083 </r>
       <r>     5.2716    13.7432    44.0102 </r>
       <r>     5.3518    13.8403    45.1200 </r>
       <r>     5.4320    13.6148    46.2116 </r>
       <r>     5.5121    13.1107    47.2629 </r>
       <r>     5.5923    12.4661    48.2624 </r>
       <r>     5.6725    11.8487    49.2125 </r>
       <r>     5.7527    11.4022    50.1267 </r>
       <r>     5.8329    11.2394    51.0279 </r>
       <r>     5.9130    11.4602    51.9468 </r>
       <r>     5.9932    12.1340    52.9198 </r>
       <r>     6.0734    13.2265    53.9803 </r>
       <r>     6.1536    14.5216    55.1447 </r>
       <r>     6.2338    15.6260    56.3976 </r>
       <r>     6.3140    16.1011    57.6886 </r>
       <r>     6.3941    15.6581    58.9441 </r>
       <r>     6.4743    14.2855    60.0895 </r>
       <r>     6.5545    12.2266    61.0699 </r>
       <r>     6.6347     9.8434    61.8592 </r>
       <r>     6.7149     7.4764    62.4586 </r>
       <r>     6.7951     5.3755    62.8897 </r>
       <r>     6.8752     3.6961    63.1860 </r>
       <r>     6.9554     2.5121    63.3874 </r>
       <r>     7.0356     1.8165    63.5331 </r>
       <r>     7.1158     1.5199    63.6550 </r>
       <r>     7.1960     1.4751    63.7732 </r>
       <r>     7.2761     1.5316    63.8960 </r>
       <r>     7.3563     1.5914    64.0236 </r>
       <r>     7.4365     1.6251    64.1539 </r>
       <r>     7.5167     1.6447    64.2858 </r>
       <r>     7.5969     1.6648    64.4193 </r>
       <r>     7.6771     1.6857    64.5545 </r>
       <r>     7.7572     1.7005    64.6908 </r>
       <r>     7.8374     1.7047    64.8275 </r>
       <r>     7.9176     1.6960    64.9635 </r>
       <r>     7.9978     1.6737    65.0977 </r>
       <r>     8.0780     1.6450    65.2296 </r>
       <r>     8.1581     1.6292    65.3603 </r>
       <r>     8.2383     1.6466    65.4923 </r>
       <r>     8.3185     1.6966    65.6283 </r>
       <r>     8.3987     1.7518    65.7688 </r>
       <r>     8.4789     1.7769    65.9113 </r>
       <r>     8.5591     1.7578    66.0522 </r>
       <r>     8.6392     1.7122    66.1895 </r>
       <r>     8.7194     1.6735    66.3237 </r>
       <r>     8.7996     1.6642    66.4571 </r>
       <r>     8.8798     1.6808    66.5919 </r>
       <r>     8.9600     1.7010    66.7283 </r>
       <r>     9.0402     1.7042    66.8649 </r>
       <r>     9.1203     1.6889    67.0003 </r>
       <r>     9.2005     1.6716    67.1344 </r>
       <r>     9.2807     1.6691    67.2682 </r>
       <r>     9.3609     1.6816    67.4030 </r>
       <r>     9.4411     1.6917    67.5387 </r>
       <r>     9.5212     1.6827    67.6736 </r>
       <r>     9.6014     1.6550    67.8063 </r>
       <r>     9.6816     1.6270    67.9368 </r>
       <r>     9.7618     1.6189    68.0666 </r>
       <r>     9.8420     1.6358    68.1977 </r>
       <r>     9.9222     1.6640    68.3312 </r>
       <r>    10.0023     1.6825    68.4661 </r>
       <r>    10.0825     1.6784    68.6006 </r>
       <r>    10.1627     1.6540    68.7333 </r>
       <r>    10.2429     1.6212    68.8632 </r>
       <r>    10.3231     1.5899    68.9907 </r>
       <r>    10.4033     1.5613    69.1159 </r>
       <r>    10.4834     1.5318    69.2387 </r>
       <r>    10.5636     1.5021    69.3592 </r>
       <r>    10.6438     1.4811    69.4779 </r>
       <r>    10.7240     1.4783    69.5965 </r>
       <r>    10.8042     1.4917    69.7161 </r>
       <r>    10.8843     1.5084    69.8370 </r>
       <r>    10.9645     1.5194    69.9589 </r>
       <r>    11.0447     1.5353    70.0820 </r>
       <r>    11.1249     1.5834    70.2089 </r>
       <r>    11.2051     1.6843    70.3440 </r>
       <r>    11.2853     1.8290    70.4906 </r>
       <r>    11.3654     1.9775    70.6492 </r>
       <r>    11.4456     2.0837    70.8163 </r>
       <r>    11.5258     2.1242    70.9866 </r>
       <r>    11.6060     2.1080    71.1556 </r>
       <r>    11.6862     2.0640    71.3211 </r>
       <r>    11.7663     2.0212    71.4832 </r>
       <r>    11.8465     1.9987    71.6434 </r>
       <r>    11.9267     2.0017    71.8039 </r>
       <r>    12.0069     2.0181    71.9657 </r>
       <r>    12.0871     2.0199    72.1277 </r>
       <r>    12.1673     1.9793    72.2864 </r>
       <r>    12.2474     1.8914    72.4381 </r>
       <r>    12.3276     1.7822    72.5810 </r>
       <r>    12.4078     1.6908    72.7165 </r>
       <r>    12.4880     1.6423    72.8482 </r>
       <r>    12.5682     1.6361    72.9794 </r>
       <r>    12.6484     1.6561    73.1122 </r>
       <r>    12.7285     1.6872    73.2475 </r>
       <r>    12.8087     1.7202    73.3854 </r>
       <r>    12.8889     1.7488    73.5256 </r>
       <r>    12.9691     1.7687    73.6675 </r>
       <r>    13.0493     1.7826    73.8104 </r>
       <r>    13.1294     1.8025    73.9549 </r>
       <r>    13.2096     1.8421    74.1026 </r>
       <r>    13.2898     1.9034    74.2552 </r>
       <r>    13.3700     1.9740    74.4135 </r>
       <r>    13.4502     2.0394    74.5770 </r>
       <r>    13.5304     2.0963    74.7451 </r>
       <r>    13.6105     2.1518    74.9177 </r>
       <r>    13.6907     2.2086    75.0947 </r>
       <r>    13.7709     2.2565    75.2757 </r>
       <r>    13.8511     2.2805    75.4585 </r>
       <r>    13.9313     2.2760    75.6410 </r>
       <r>    14.0114     2.2517    75.8216 </r>
       <r>    14.0916     2.2177    75.9994 </r>
       <r>    14.1718     2.1738    76.1737 </r>
       <r>    14.2520     2.1141    76.3432 </r>
       <r>    14.3322     2.0401    76.5068 </r>
       <r>    14.4124     1.9673    76.6645 </r>
       <r>    14.4925     1.9147    76.8181 </r>
       <r>    14.5727     1.8866    76.9693 </r>
       <r>    14.6529     1.8657    77.1189 </r>
       <r>    14.7331     1.8234    77.2651 </r>
       <r>    14.8133     1.7411    77.4047 </r>
       <r>    14.8935     1.6262    77.5351 </r>
       <r>    14.9736     1.5118    77.6563 </r>
       <r>    15.0538     1.4394    77.7718 </r>
       <r>    15.1340     1.4348    77.8868 </r>
       <r>    15.2142     1.4933    78.0065 </r>
       <r>    15.2944     1.5822    78.1334 </r>
       <r>    15.3745     1.6590    78.2664 </r>
       <r>    15.4547     1.6934    78.4022 </r>
       <r>    15.5349     1.6794    78.5369 </r>
       <r>    15.6151     1.6351    78.6680 </r>
       <r>    15.6953     1.5904    78.7955 </r>
       <r>    15.7755     1.5703    78.9214 </r>
       <r>    15.8556     1.5802    79.0481 </r>
       <r>    15.9358     1.5997    79.1764 </r>
       <r>    16.0160     1.5898    79.3039 </r>
       <r>    16.0962     1.5133    79.4252 </r>
       <r>    16.1764     1.3594    79.5342 </r>
       <r>    16.2566     1.1517    79.6265 </r>
       <r>    16.3367     0.9343    79.7015 </r>
       <r>    16.4169     0.7457    79.7612 </r>
       <r>    16.4971     0.6031    79.8096 </r>
       <r>    16.5773     0.5031    79.8499 </r>
       <r>    16.6575     0.4328    79.8846 </r>
       <r>    16.7376     0.3774    79.9149 </r>
       <r>    16.8178     0.3244    79.9409 </r>
       <r>    16.8980     0.2646    79.9621 </r>
       <r>    16.9782     0.1967    79.9779 </r>
       <r>    17.0584     0.1279    79.9882 </r>
       <r>    17.1386     0.0701    79.9938 </r>
       <r>    17.2187     0.0317    79.9963 </r>
       <r>    17.2989     0.0130    79.9974 </r>
       <r>    17.3791     0.0076    79.9980 </r>
       <r>    17.4593     0.0077    79.9986 </r>
       <r>    17.5395     0.0079    79.9992 </r>
       <r>    17.6196     0.0065    79.9997 </r>
       <r>    17.6998     0.0039    80.0001 </r>
       <r>    17.7800     0.0015    80.0002 </r>
       <r>    17.8602    -0.0001    80.0002 </r>
       <r>    17.9404    -0.0007    80.0001 </r>
       <r>    18.0206    -0.0006    80.0001 </r>
       <r>    18.1007    -0.0004    80.0000 </r>
       <r>    18.1809    -0.0002    80.0000 </r>
       <r>    18.2611    -0.0001    80.0000 </r>
       <r>    18.3413     0.0000    80.0000 </r>
       <r>    18.4215     0.0000    80.0000 </r>
       <r>    18.5017     0.0000    80.0000 </r>
       <r>    18.5818     0.0000    80.0000 </r>
       <r>    18.6620     0.0000    80.0000 </r>
       <r>    18.7422     0.0000    80.0000 </r>
       <r>    18.8224     0.0000    80.0000 </r>
       <r>    18.9026     0.0000    80.0000 </r>
       <r>    18.9827     0.0000    80.0000 </r>
       <r>    19.0629     0.0000    80.0000 </r>
       <r>    19.1431     0.0000    80.0000 </r>
       <r>    19.2233     0.0000    80.0000 </r>
       <r>    19.3035     0.0000    80.0000 </r>
       <r>    19.3837     0.0000    80.0000 </r>
       <r>    19.4638     0.0000    80.0000 </r>
       <r>    19.5440     0.0000    80.0000 </r>
       <r>    19.6242     0.0000    80.0000 </r>
       <r>    19.7044     0.0000    80.0000 </r>
       <r>    19.7846     0.0000    80.0000 </r>
       <r>    19.8647     0.0000    80.0000 </r>
       <r>    19.9449     0.0000    80.0000 </r>
       <r>    20.0251     0.0000    80.0000 </r>
       <r>    20.1053     0.0000    80.0000 </r>
       <r>    20.1855     0.0000    80.0000 </r>
       <r>    20.2657     0.0000    80.0000 </r>
       <r>    20.3458     0.0000    80.0000 </r>
       <r>    20.4260     0.0000    80.0000 </r>
       <r>    20.5062     0.0000    80.0000 </r>
      </set>
     </set>
    </array>
   </total>
  </dos>
 </calculation>
 <structure name="finalpos" >
  <crystal>
   <varray name="basis" >
    <v>       4.14942309       0.00000000       0.00000000 </v>
    <v>       0.00000000       0.00000000      -4.14679747 </v>
    <v>       0.00000000       6.23329873       2.07339873 </v>
   </varray>
   <i name="volume">    107.25523150 </i>
   <varray name="rec_basis" >
    <v>       0.24099736       0.00000000       0.00000000 </v>
    <v>       0.00000000       0.08021435      -0.24114995 </v>
    <v>       0.00000000       0.16042870       0.00000000 </v>
   </varray>
  </crystal>
  <varray name="positions" >
   <v>       0.50000000       0.83333333       0.66666667 </v>
   <v>       0.00000000       0.99964107       0.99928215 </v>
   <v>       0.50000000       0.16738750       0.33477499 </v>
   <v>       0.00000000       0.33333333       0.66666667 </v>
   <v>       0.50000000       0.49927917       0.99855834 </v>
   <v>       0.00000000       0.66702559       0.33405119 </v>
  </varray>
 </structure>
</modeling>
