<?xml version="1.0" encoding="ISO-8859-1"?>
<modeling>
 <generator>
  <i name="program" type="string">vasp </i>
  <i name="version" type="string">5.3.5  </i>
  <i name="subversion" type="string">31Mar14 (build Jun 20 2014 13:15:13) complex                          parallel </i>
  <i name="platform" type="string">LinuxIFC </i>
  <i name="date" type="string">2025 11 21 </i>
  <i name="time" type="string">10:21:42 </i>
 </generator>
 <incar>
  <i type="string" name="PREC">accurate</i>
  <i type="int" name="IALGO">    68</i>
  <i type="logical" name="ADDGRID"> T  </i>
  <i type="int" name="NELM">   100</i>
  <i type="int" name="NELMIN">     4</i>
  <i type="int" name="IBRION">     2</i>
  <i name="EDIFF">      0.00000100</i>
  <i name="EDIFFG">     -0.02000000</i>
  <i type="int" name="NSW">    30</i>
  <i type="int" name="ISIF">     3</i>
  <i name="ENCUT">    500.00000000</i>
  <i type="logical" name="LREAL"> F  </i>
  <i type="int" name="ISMEAR">     1</i>
  <i name="SIGMA">      0.30000000</i>
  <i type="logical" name="LWAVE"> F  </i>
  <i type="logical" name="LCHARG"> F  </i>
  <i type="int" name="NELM">   100</i>
 </incar>
 <kpoints>
  <generation param="Auto">
   <i name="subdivisionlength">     70.00000000 </i>
   <v type="int" name="divisions">      25       15       14 </v>
   <v name="usershift">      0.00000000       0.00000000       0.00000000 </v>
   <v name="genvec1">      0.04000000       0.00000000       0.00000000 </v>
   <v name="genvec2">      0.00000000       0.06666667       0.00000000 </v>
   <v name="genvec3">      0.00000000       0.00000000       0.07142857 </v>
   <v name="shift">      0.00000000       0.00000000       0.00000000 </v>
  </generation>
  <varray name="kpointlist" >
   <v>       0.00000000       0.00000000       0.00000000 </v>
   <v>       0.04000000       0.00000000       0.00000000 </v>
   <v>       0.08000000       0.00000000       0.00000000 </v>
   <v>       0.12000000       0.00000000       0.00000000 </v>
   <v>       0.16000000       0.00000000       0.00000000 </v>
   <v>       0.20000000       0.00000000       0.00000000 </v>
   <v>       0.24000000       0.00000000       0.00000000 </v>
   <v>       0.28000000       0.00000000       0.00000000 </v>
   <v>       0.32000000       0.00000000       0.00000000 </v>
   <v>       0.36000000       0.00000000       0.00000000 </v>
   <v>       0.40000000       0.00000000       0.00000000 </v>
   <v>       0.44000000       0.00000000       0.00000000 </v>
   <v>       0.48000000       0.00000000       0.00000000 </v>
   <v>       0.00000000       0.06666667       0.00000000 </v>
   <v>       0.04000000       0.06666667       0.00000000 </v>
   <v>       0.08000000       0.06666667       0.00000000 </v>
   <v>       0.12000000       0.06666667       0.00000000 </v>
   <v>       0.16000000       0.06666667       0.00000000 </v>
   <v>       0.20000000       0.06666667       0.00000000 </v>
   <v>       0.24000000       0.06666667       0.00000000 </v>
   <v>       0.28000000       0.06666667       0.00000000 </v>
   <v>       0.32000000       0.06666667       0.00000000 </v>
   <v>       0.36000000       0.06666667       0.00000000 </v>
   <v>       0.40000000       0.06666667       0.00000000 </v>
   <v>       0.44000000       0.06666667       0.00000000 </v>
   <v>       0.48000000       0.06666667       0.00000000 </v>
   <v>      -0.48000000       0.06666667       0.00000000 </v>
   <v>      -0.44000000       0.06666667       0.00000000 </v>
   <v>      -0.40000000       0.06666667       0.00000000 </v>
   <v>      -0.36000000       0.06666667       0.00000000 </v>
   <v>      -0.32000000       0.06666667       0.00000000 </v>
   <v>      -0.28000000       0.06666667       0.00000000 </v>
   <v>      -0.24000000       0.06666667       0.00000000 </v>
   <v>      -0.20000000       0.06666667       0.00000000 </v>
   <v>      -0.16000000       0.06666667       0.00000000 </v>
   <v>      -0.12000000       0.06666667       0.00000000 </v>
   <v>      -0.08000000       0.06666667       0.00000000 </v>
   <v>      -0.04000000       0.06666667       0.00000000 </v>
   <v>       0.00000000       0.13333333       0.00000000 </v>
   <v>       0.04000000       0.13333333       0.00000000 </v>
   <v>       0.08000000       0.13333333       0.00000000 </v>
   <v>       0.12000000       0.13333333       0.00000000 </v>
   <v>       0.16000000       0.13333333       0.00000000 </v>
   <v>       0.20000000       0.13333333       0.00000000 </v>
   <v>       0.24000000       0.13333333       0.00000000 </v>
   <v>       0.28000000       0.13333333       0.00000000 </v>
   <v>       0.32000000       0.13333333       0.00000000 </v>
   <v>       0.36000000       0.13333333       0.00000000 </v>
   <v>       0.40000000       0.13333333       0.00000000 </v>
   <v>       0.44000000       0.13333333       0.00000000 </v>
   <v>       0.48000000       0.13333333       0.00000000 </v>
   <v>      -0.48000000       0.13333333       0.00000000 </v>
   <v>      -0.44000000       0.13333333       0.00000000 </v>
   <v>      -0.40000000       0.13333333       0.00000000 </v>
   <v>      -0.36000000       0.13333333       0.00000000 </v>
   <v>      -0.32000000       0.13333333       0.00000000 </v>
   <v>      -0.28000000       0.13333333       0.00000000 </v>
   <v>      -0.24000000       0.13333333       0.00000000 </v>
   <v>      -0.16000000       0.13333333       0.00000000 </v>
   <v>      -0.12000000       0.13333333       0.00000000 </v>
   <v>      -0.08000000       0.13333333       0.00000000 </v>
   <v>      -0.04000000       0.13333333       0.00000000 </v>
   <v>       0.00000000       0.20000000       0.00000000 </v>
   <v>       0.04000000       0.20000000       0.00000000 </v>
   <v>       0.08000000       0.20000000       0.00000000 </v>
   <v>       0.12000000       0.20000000       0.00000000 </v>
   <v>       0.16000000       0.20000000       0.00000000 </v>
   <v>       0.20000000       0.20000000       0.00000000 </v>
   <v>       0.24000000       0.20000000       0.00000000 </v>
   <v>       0.28000000       0.20000000       0.00000000 </v>
   <v>       0.32000000       0.20000000       0.00000000 </v>
   <v>       0.36000000       0.20000000       0.00000000 </v>
   <v>       0.40000000       0.20000000       0.00000000 </v>
   <v>       0.44000000       0.20000000       0.00000000 </v>
   <v>       0.48000000       0.20000000       0.00000000 </v>
   <v>      -0.48000000       0.20000000       0.00000000 </v>
   <v>      -0.44000000       0.20000000       0.00000000 </v>
   <v>      -0.40000000       0.20000000       0.00000000 </v>
   <v>      -0.36000000       0.20000000       0.00000000 </v>
   <v>      -0.32000000       0.20000000       0.00000000 </v>
   <v>      -0.28000000       0.20000000       0.00000000 </v>
   <v>      -0.24000000       0.20000000       0.00000000 </v>
   <v>      -0.16000000       0.20000000       0.00000000 </v>
   <v>      -0.12000000       0.20000000       0.00000000 </v>
   <v>      -0.08000000       0.20000000       0.00000000 </v>
   <v>      -0.04000000       0.20000000       0.00000000 </v>
   <v>       0.00000000       0.26666667       0.00000000 </v>
   <v>       0.04000000       0.26666667       0.00000000 </v>
   <v>       0.08000000       0.26666667       0.00000000 </v>
   <v>       0.12000000       0.26666667       0.00000000 </v>
   <v>       0.16000000       0.26666667       0.00000000 </v>
   <v>       0.20000000       0.26666667       0.00000000 </v>
   <v>       0.24000000       0.26666667       0.00000000 </v>
   <v>       0.28000000       0.26666667       0.00000000 </v>
   <v>       0.32000000       0.26666667       0.00000000 </v>
   <v>       0.36000000       0.26666667       0.00000000 </v>
   <v>       0.40000000       0.26666667       0.00000000 </v>
   <v>       0.44000000       0.26666667       0.00000000 </v>
   <v>       0.48000000       0.26666667       0.00000000 </v>
   <v>      -0.48000000       0.26666667       0.00000000 </v>
   <v>      -0.44000000       0.26666667       0.00000000 </v>
   <v>      -0.36000000       0.26666667       0.00000000 </v>
   <v>      -0.32000000       0.26666667       0.00000000 </v>
   <v>      -0.28000000       0.26666667       0.00000000 </v>
   <v>      -0.24000000       0.26666667       0.00000000 </v>
   <v>      -0.16000000       0.26666667       0.00000000 </v>
   <v>      -0.12000000       0.26666667       0.00000000 </v>
   <v>      -0.08000000       0.26666667       0.00000000 </v>
   <v>      -0.04000000       0.26666667       0.00000000 </v>
   <v>       0.00000000       0.33333333       0.00000000 </v>
   <v>       0.04000000       0.33333333       0.00000000 </v>
   <v>       0.08000000       0.33333333       0.00000000 </v>
   <v>       0.12000000       0.33333333       0.00000000 </v>
   <v>       0.16000000       0.33333333       0.00000000 </v>
   <v>       0.20000000       0.33333333       0.00000000 </v>
   <v>       0.24000000       0.33333333       0.00000000 </v>
   <v>       0.28000000       0.33333333       0.00000000 </v>
   <v>       0.32000000       0.33333333       0.00000000 </v>
   <v>       0.36000000       0.33333333       0.00000000 </v>
   <v>       0.44000000       0.33333333       0.00000000 </v>
   <v>       0.48000000       0.33333333       0.00000000 </v>
   <v>      -0.48000000       0.33333333       0.00000000 </v>
   <v>      -0.44000000       0.33333333       0.00000000 </v>
   <v>      -0.36000000       0.33333333       0.00000000 </v>
   <v>      -0.32000000       0.33333333       0.00000000 </v>
   <v>      -0.28000000       0.33333333       0.00000000 </v>
   <v>      -0.24000000       0.33333333       0.00000000 </v>
   <v>      -0.16000000       0.33333333       0.00000000 </v>
   <v>      -0.12000000       0.33333333       0.00000000 </v>
   <v>      -0.08000000       0.33333333       0.00000000 </v>
   <v>      -0.04000000       0.33333333       0.00000000 </v>
   <v>       0.00000000       0.40000000       0.00000000 </v>
   <v>       0.04000000       0.40000000       0.00000000 </v>
   <v>       0.08000000       0.40000000       0.00000000 </v>
   <v>       0.12000000       0.40000000       0.00000000 </v>
   <v>       0.16000000       0.40000000       0.00000000 </v>
   <v>       0.20000000       0.40000000       0.00000000 </v>
   <v>       0.24000000       0.40000000       0.00000000 </v>
   <v>       0.28000000       0.40000000       0.00000000 </v>
   <v>       0.32000000       0.40000000       0.00000000 </v>
   <v>       0.36000000       0.40000000       0.00000000 </v>
   <v>       0.44000000       0.40000000       0.00000000 </v>
   <v>       0.48000000       0.40000000       0.00000000 </v>
   <v>      -0.48000000       0.40000000       0.00000000 </v>
   <v>      -0.44000000       0.40000000       0.00000000 </v>
   <v>      -0.36000000       0.40000000       0.00000000 </v>
   <v>      -0.32000000       0.40000000       0.00000000 </v>
   <v>      -0.28000000       0.40000000       0.00000000 </v>
   <v>      -0.24000000       0.40000000       0.00000000 </v>
   <v>      -0.16000000       0.40000000       0.00000000 </v>
   <v>      -0.12000000       0.40000000       0.00000000 </v>
   <v>      -0.08000000       0.40000000       0.00000000 </v>
   <v>      -0.04000000       0.40000000       0.00000000 </v>
   <v>       0.00000000       0.46666667       0.00000000 </v>
   <v>       0.04000000       0.46666667       0.00000000 </v>
   <v>       0.08000000       0.46666667       0.00000000 </v>
   <v>       0.12000000       0.46666667       0.00000000 </v>
   <v>       0.16000000       0.46666667       0.00000000 </v>
   <v>       0.24000000       0.46666667       0.00000000 </v>
   <v>       0.28000000       0.46666667       0.00000000 </v>
   <v>       0.32000000       0.46666667       0.00000000 </v>
   <v>       0.36000000       0.46666667       0.00000000 </v>
   <v>       0.44000000       0.46666667       0.00000000 </v>
   <v>       0.48000000       0.46666667       0.00000000 </v>
   <v>      -0.48000000       0.46666667       0.00000000 </v>
   <v>      -0.44000000       0.46666667       0.00000000 </v>
   <v>      -0.36000000       0.46666667       0.00000000 </v>
   <v>      -0.32000000       0.46666667       0.00000000 </v>
   <v>      -0.28000000       0.46666667       0.00000000 </v>
   <v>      -0.24000000       0.46666667       0.00000000 </v>
   <v>      -0.16000000       0.46666667       0.00000000 </v>
   <v>      -0.12000000       0.46666667       0.00000000 </v>
   <v>      -0.08000000       0.46666667       0.00000000 </v>
   <v>      -0.04000000       0.46666667       0.00000000 </v>
   <v>       0.00000000       0.00000000       0.07142857 </v>
   <v>       0.04000000       0.00000000       0.07142857 </v>
   <v>       0.08000000       0.00000000       0.07142857 </v>
   <v>       0.12000000       0.00000000       0.07142857 </v>
   <v>       0.16000000       0.00000000       0.07142857 </v>
   <v>       0.20000000       0.00000000       0.07142857 </v>
   <v>       0.24000000       0.00000000       0.07142857 </v>
   <v>       0.28000000       0.00000000       0.07142857 </v>
   <v>       0.32000000       0.00000000       0.07142857 </v>
   <v>       0.36000000       0.00000000       0.07142857 </v>
   <v>       0.40000000       0.00000000       0.07142857 </v>
   <v>       0.44000000       0.00000000       0.07142857 </v>
   <v>       0.48000000       0.00000000       0.07142857 </v>
   <v>      -0.48000000       0.00000000       0.07142857 </v>
   <v>      -0.44000000       0.00000000       0.07142857 </v>
   <v>      -0.40000000       0.00000000       0.07142857 </v>
   <v>      -0.36000000       0.00000000       0.07142857 </v>
   <v>      -0.32000000       0.00000000       0.07142857 </v>
   <v>      -0.28000000       0.00000000       0.07142857 </v>
   <v>      -0.24000000       0.00000000       0.07142857 </v>
   <v>      -0.20000000       0.00000000       0.07142857 </v>
   <v>      -0.16000000       0.00000000       0.07142857 </v>
   <v>      -0.12000000       0.00000000       0.07142857 </v>
   <v>      -0.08000000       0.00000000       0.07142857 </v>
   <v>      -0.04000000       0.00000000       0.07142857 </v>
   <v>       0.00000000       0.06666667       0.07142857 </v>
   <v>       0.04000000       0.06666667       0.07142857 </v>
   <v>       0.08000000       0.06666667       0.07142857 </v>
   <v>       0.12000000       0.06666667       0.07142857 </v>
   <v>       0.16000000       0.06666667       0.07142857 </v>
   <v>       0.20000000       0.06666667       0.07142857 </v>
   <v>       0.24000000       0.06666667       0.07142857 </v>
   <v>       0.28000000       0.06666667       0.07142857 </v>
   <v>       0.32000000       0.06666667       0.07142857 </v>
   <v>       0.36000000       0.06666667       0.07142857 </v>
   <v>       0.40000000       0.06666667       0.07142857 </v>
   <v>       0.44000000       0.06666667       0.07142857 </v>
   <v>       0.48000000       0.06666667       0.07142857 </v>
   <v>      -0.48000000       0.06666667       0.07142857 </v>
   <v>      -0.44000000       0.06666667       0.07142857 </v>
   <v>      -0.40000000       0.06666667       0.07142857 </v>
   <v>      -0.36000000       0.06666667       0.07142857 </v>
   <v>      -0.32000000       0.06666667       0.07142857 </v>
   <v>      -0.28000000       0.06666667       0.07142857 </v>
   <v>      -0.24000000       0.06666667       0.07142857 </v>
   <v>      -0.20000000       0.06666667       0.07142857 </v>
   <v>      -0.16000000       0.06666667       0.07142857 </v>
   <v>      -0.12000000       0.06666667       0.07142857 </v>
   <v>      -0.08000000       0.06666667       0.07142857 </v>
   <v>      -0.04000000       0.06666667       0.07142857 </v>
   <v>       0.00000000       0.13333333       0.07142857 </v>
   <v>       0.04000000       0.13333333       0.07142857 </v>
   <v>       0.08000000       0.13333333       0.07142857 </v>
   <v>       0.12000000       0.13333333       0.07142857 </v>
   <v>       0.16000000       0.13333333       0.07142857 </v>
   <v>       0.20000000       0.13333333       0.07142857 </v>
   <v>       0.24000000       0.13333333       0.07142857 </v>
   <v>       0.28000000       0.13333333       0.07142857 </v>
   <v>       0.32000000       0.13333333       0.07142857 </v>
   <v>       0.36000000       0.13333333       0.07142857 </v>
   <v>       0.40000000       0.13333333       0.07142857 </v>
   <v>       0.44000000       0.13333333       0.07142857 </v>
   <v>       0.48000000       0.13333333       0.07142857 </v>
   <v>      -0.48000000       0.13333333       0.07142857 </v>
   <v>      -0.44000000       0.13333333       0.07142857 </v>
   <v>      -0.40000000       0.13333333       0.07142857 </v>
   <v>      -0.36000000       0.13333333       0.07142857 </v>
   <v>      -0.32000000       0.13333333       0.07142857 </v>
   <v>      -0.28000000       0.13333333       0.07142857 </v>
   <v>      -0.24000000       0.13333333       0.07142857 </v>
   <v>      -0.20000000       0.13333333       0.07142857 </v>
   <v>      -0.16000000       0.13333333       0.07142857 </v>
   <v>      -0.12000000       0.13333333       0.07142857 </v>
   <v>      -0.08000000       0.13333333       0.07142857 </v>
   <v>      -0.04000000       0.13333333       0.07142857 </v>
   <v>       0.00000000       0.20000000       0.07142857 </v>
   <v>       0.04000000       0.20000000       0.07142857 </v>
   <v>       0.08000000       0.20000000       0.07142857 </v>
   <v>       0.12000000       0.20000000       0.07142857 </v>
   <v>       0.16000000       0.20000000       0.07142857 </v>
   <v>       0.20000000       0.20000000       0.07142857 </v>
   <v>       0.24000000       0.20000000       0.07142857 </v>
   <v>       0.28000000       0.20000000       0.07142857 </v>
   <v>       0.32000000       0.20000000       0.07142857 </v>
   <v>       0.36000000       0.20000000       0.07142857 </v>
   <v>       0.40000000       0.20000000       0.07142857 </v>
   <v>       0.44000000       0.20000000       0.07142857 </v>
   <v>       0.48000000       0.20000000       0.07142857 </v>
   <v>      -0.48000000       0.20000000       0.07142857 </v>
   <v>      -0.44000000       0.20000000       0.07142857 </v>
   <v>      -0.40000000       0.20000000       0.07142857 </v>
   <v>      -0.36000000       0.20000000       0.07142857 </v>
   <v>      -0.32000000       0.20000000       0.07142857 </v>
   <v>      -0.28000000       0.20000000       0.07142857 </v>
   <v>      -0.24000000       0.20000000       0.07142857 </v>
   <v>      -0.16000000       0.20000000       0.07142857 </v>
   <v>      -0.12000000       0.20000000       0.07142857 </v>
   <v>      -0.08000000       0.20000000       0.07142857 </v>
   <v>      -0.04000000       0.20000000       0.07142857 </v>
   <v>       0.00000000       0.26666667       0.07142857 </v>
   <v>       0.04000000       0.26666667       0.07142857 </v>
   <v>       0.08000000       0.26666667       0.07142857 </v>
   <v>       0.12000000       0.26666667       0.07142857 </v>
   <v>       0.16000000       0.26666667       0.07142857 </v>
   <v>       0.20000000       0.26666667       0.07142857 </v>
   <v>       0.24000000       0.26666667       0.07142857 </v>
   <v>       0.28000000       0.26666667       0.07142857 </v>
   <v>       0.32000000       0.26666667       0.07142857 </v>
   <v>       0.36000000       0.26666667       0.07142857 </v>
   <v>       0.40000000       0.26666667       0.07142857 </v>
   <v>       0.44000000       0.26666667       0.07142857 </v>
   <v>       0.48000000       0.26666667       0.07142857 </v>
   <v>      -0.48000000       0.26666667       0.07142857 </v>
   <v>      -0.44000000       0.26666667       0.07142857 </v>
   <v>      -0.40000000       0.26666667       0.07142857 </v>
   <v>      -0.36000000       0.26666667       0.07142857 </v>
   <v>      -0.32000000       0.26666667       0.07142857 </v>
   <v>      -0.28000000       0.26666667       0.07142857 </v>
   <v>      -0.24000000       0.26666667       0.07142857 </v>
   <v>      -0.16000000       0.26666667       0.07142857 </v>
   <v>      -0.12000000       0.26666667       0.07142857 </v>
   <v>      -0.08000000       0.26666667       0.07142857 </v>
   <v>      -0.04000000       0.26666667       0.07142857 </v>
   <v>       0.00000000       0.33333333       0.07142857 </v>
   <v>       0.04000000       0.33333333       0.07142857 </v>
   <v>       0.08000000       0.33333333       0.07142857 </v>
   <v>       0.12000000       0.33333333       0.07142857 </v>
   <v>       0.16000000       0.33333333       0.07142857 </v>
   <v>       0.20000000       0.33333333       0.07142857 </v>
   <v>       0.24000000       0.33333333       0.07142857 </v>
   <v>       0.28000000       0.33333333       0.07142857 </v>
   <v>       0.32000000       0.33333333       0.07142857 </v>
   <v>       0.36000000       0.33333333       0.07142857 </v>
   <v>       0.40000000       0.33333333       0.07142857 </v>
   <v>       0.44000000       0.33333333       0.07142857 </v>
   <v>       0.48000000       0.33333333       0.07142857 </v>
   <v>      -0.48000000       0.33333333       0.07142857 </v>
   <v>      -0.44000000       0.33333333       0.07142857 </v>
   <v>      -0.40000000       0.33333333       0.07142857 </v>
   <v>      -0.36000000       0.33333333       0.07142857 </v>
   <v>      -0.32000000       0.33333333       0.07142857 </v>
   <v>      -0.28000000       0.33333333       0.07142857 </v>
   <v>      -0.24000000       0.33333333       0.07142857 </v>
   <v>      -0.16000000       0.33333333       0.07142857 </v>
   <v>      -0.12000000       0.33333333       0.07142857 </v>
   <v>      -0.08000000       0.33333333       0.07142857 </v>
   <v>      -0.04000000       0.33333333       0.07142857 </v>
   <v>       0.00000000       0.40000000       0.07142857 </v>
   <v>       0.04000000       0.40000000       0.07142857 </v>
   <v>       0.08000000       0.40000000       0.07142857 </v>
   <v>       0.12000000       0.40000000       0.07142857 </v>
   <v>       0.16000000       0.40000000       0.07142857 </v>
   <v>       0.20000000       0.40000000       0.07142857 </v>
   <v>       0.24000000       0.40000000       0.07142857 </v>
   <v>       0.28000000       0.40000000       0.07142857 </v>
   <v>       0.32000000       0.40000000       0.07142857 </v>
   <v>       0.36000000       0.40000000       0.07142857 </v>
   <v>       0.40000000       0.40000000       0.07142857 </v>
   <v>       0.44000000       0.40000000       0.07142857 </v>
   <v>       0.48000000       0.40000000       0.07142857 </v>
   <v>      -0.48000000       0.40000000       0.07142857 </v>
   <v>      -0.44000000       0.40000000       0.07142857 </v>
   <v>      -0.36000000       0.40000000       0.07142857 </v>
   <v>      -0.32000000       0.40000000       0.07142857 </v>
   <v>      -0.28000000       0.40000000       0.07142857 </v>
   <v>      -0.24000000       0.40000000       0.07142857 </v>
   <v>      -0.16000000       0.40000000       0.07142857 </v>
   <v>      -0.12000000       0.40000000       0.07142857 </v>
   <v>      -0.08000000       0.40000000       0.07142857 </v>
   <v>      -0.04000000       0.40000000       0.07142857 </v>
   <v>       0.00000000       0.46666667       0.07142857 </v>
   <v>       0.04000000       0.46666667       0.07142857 </v>
   <v>       0.08000000       0.46666667       0.07142857 </v>
   <v>       0.12000000       0.46666667       0.07142857 </v>
   <v>       0.16000000       0.46666667       0.07142857 </v>
   <v>       0.20000000       0.46666667       0.07142857 </v>
   <v>       0.24000000       0.46666667       0.07142857 </v>
   <v>       0.28000000       0.46666667       0.07142857 </v>
   <v>       0.32000000       0.46666667       0.07142857 </v>
   <v>       0.36000000       0.46666667       0.07142857 </v>
   <v>       0.40000000       0.46666667       0.07142857 </v>
   <v>       0.44000000       0.46666667       0.07142857 </v>
   <v>       0.48000000       0.46666667       0.07142857 </v>
   <v>      -0.48000000       0.46666667       0.07142857 </v>
   <v>      -0.44000000       0.46666667       0.07142857 </v>
   <v>      -0.36000000       0.46666667       0.07142857 </v>
   <v>      -0.32000000       0.46666667       0.07142857 </v>
   <v>      -0.28000000       0.46666667       0.07142857 </v>
   <v>      -0.24000000       0.46666667       0.07142857 </v>
   <v>      -0.16000000       0.46666667       0.07142857 </v>
   <v>      -0.12000000       0.46666667       0.07142857 </v>
   <v>      -0.08000000       0.46666667       0.07142857 </v>
   <v>      -0.04000000       0.46666667       0.07142857 </v>
   <v>       0.00000000      -0.46666667       0.07142857 </v>
   <v>       0.04000000      -0.46666667       0.07142857 </v>
   <v>       0.08000000      -0.46666667       0.07142857 </v>
   <v>       0.12000000      -0.46666667       0.07142857 </v>
   <v>       0.16000000      -0.46666667       0.07142857 </v>
   <v>       0.20000000      -0.46666667       0.07142857 </v>
   <v>       0.24000000      -0.46666667       0.07142857 </v>
   <v>       0.28000000      -0.46666667       0.07142857 </v>
   <v>       0.32000000      -0.46666667       0.07142857 </v>
   <v>       0.36000000      -0.46666667       0.07142857 </v>
   <v>       0.40000000      -0.46666667       0.07142857 </v>
   <v>       0.44000000      -0.46666667       0.07142857 </v>
   <v>       0.48000000      -0.46666667       0.07142857 </v>
   <v>      -0.48000000      -0.46666667       0.07142857 </v>
   <v>      -0.44000000      -0.46666667       0.07142857 </v>
   <v>      -0.36000000      -0.46666667       0.07142857 </v>
   <v>      -0.32000000      -0.46666667       0.07142857 </v>
   <v>      -0.28000000      -0.46666667       0.07142857 </v>
   <v>      -0.24000000      -0.46666667       0.07142857 </v>
   <v>      -0.16000000      -0.46666667       0.07142857 </v>
   <v>      -0.12000000      -0.46666667       0.07142857 </v>
   <v>      -0.08000000      -0.46666667       0.07142857 </v>
   <v>      -0.04000000      -0.46666667       0.07142857 </v>
   <v>       0.00000000      -0.40000000       0.07142857 </v>
   <v>       0.04000000      -0.40000000       0.07142857 </v>
   <v>       0.08000000      -0.40000000       0.07142857 </v>
   <v>       0.12000000      -0.40000000       0.07142857 </v>
   <v>       0.16000000      -0.40000000       0.07142857 </v>
   <v>       0.20000000      -0.40000000       0.07142857 </v>
   <v>       0.24000000      -0.40000000       0.07142857 </v>
   <v>       0.28000000      -0.40000000       0.07142857 </v>
   <v>       0.32000000      -0.40000000       0.07142857 </v>
   <v>       0.36000000      -0.40000000       0.07142857 </v>
   <v>       0.44000000      -0.40000000       0.07142857 </v>
   <v>       0.48000000      -0.40000000       0.07142857 </v>
   <v>      -0.48000000      -0.40000000       0.07142857 </v>
   <v>      -0.44000000      -0.40000000       0.07142857 </v>
   <v>      -0.36000000      -0.40000000       0.07142857 </v>
   <v>      -0.32000000      -0.40000000       0.07142857 </v>
   <v>      -0.28000000      -0.40000000       0.07142857 </v>
   <v>      -0.24000000      -0.40000000       0.07142857 </v>
   <v>      -0.16000000      -0.40000000       0.07142857 </v>
   <v>      -0.12000000      -0.40000000       0.07142857 </v>
   <v>      -0.08000000      -0.40000000       0.07142857 </v>
   <v>      -0.04000000      -0.40000000       0.07142857 </v>
   <v>       0.00000000      -0.33333333       0.07142857 </v>
   <v>       0.04000000      -0.33333333       0.07142857 </v>
   <v>       0.08000000      -0.33333333       0.07142857 </v>
   <v>       0.12000000      -0.33333333       0.07142857 </v>
   <v>       0.16000000      -0.33333333       0.07142857 </v>
   <v>       0.20000000      -0.33333333       0.07142857 </v>
   <v>       0.24000000      -0.33333333       0.07142857 </v>
   <v>       0.28000000      -0.33333333       0.07142857 </v>
   <v>       0.32000000      -0.33333333       0.07142857 </v>
   <v>       0.36000000      -0.33333333       0.07142857 </v>
   <v>       0.44000000      -0.33333333       0.07142857 </v>
   <v>       0.48000000      -0.33333333       0.07142857 </v>
   <v>      -0.48000000      -0.33333333       0.07142857 </v>
   <v>      -0.44000000      -0.33333333       0.07142857 </v>
   <v>      -0.36000000      -0.33333333       0.07142857 </v>
   <v>      -0.32000000      -0.33333333       0.07142857 </v>
   <v>      -0.28000000      -0.33333333       0.07142857 </v>
   <v>      -0.24000000      -0.33333333       0.07142857 </v>
   <v>      -0.16000000      -0.33333333       0.07142857 </v>
   <v>      -0.12000000      -0.33333333       0.07142857 </v>
   <v>      -0.08000000      -0.33333333       0.07142857 </v>
   <v>      -0.04000000      -0.33333333       0.07142857 </v>
   <v>       0.00000000      -0.26666667       0.07142857 </v>
   <v>       0.04000000      -0.26666667       0.07142857 </v>
   <v>       0.08000000      -0.26666667       0.07142857 </v>
   <v>       0.12000000      -0.26666667       0.07142857 </v>
   <v>       0.16000000      -0.26666667       0.07142857 </v>
   <v>       0.20000000      -0.26666667       0.07142857 </v>
   <v>       0.24000000      -0.26666667       0.07142857 </v>
   <v>       0.28000000      -0.26666667       0.07142857 </v>
   <v>       0.32000000      -0.26666667       0.07142857 </v>
   <v>       0.36000000      -0.26666667       0.07142857 </v>
   <v>       0.44000000      -0.26666667       0.07142857 </v>
   <v>       0.48000000      -0.26666667       0.07142857 </v>
   <v>      -0.48000000      -0.26666667       0.07142857 </v>
   <v>      -0.44000000      -0.26666667       0.07142857 </v>
   <v>      -0.36000000      -0.26666667       0.07142857 </v>
   <v>      -0.32000000      -0.26666667       0.07142857 </v>
   <v>      -0.28000000      -0.26666667       0.07142857 </v>
   <v>      -0.24000000      -0.26666667       0.07142857 </v>
   <v>      -0.16000000      -0.26666667       0.07142857 </v>
   <v>      -0.12000000      -0.26666667       0.07142857 </v>
   <v>      -0.08000000      -0.26666667       0.07142857 </v>
   <v>      -0.04000000      -0.26666667       0.07142857 </v>
   <v>       0.00000000      -0.20000000       0.07142857 </v>
   <v>       0.04000000      -0.20000000       0.07142857 </v>
   <v>       0.08000000      -0.20000000       0.07142857 </v>
   <v>       0.12000000      -0.20000000       0.07142857 </v>
   <v>       0.16000000      -0.20000000       0.07142857 </v>
   <v>       0.24000000      -0.20000000       0.07142857 </v>
   <v>       0.28000000      -0.20000000       0.07142857 </v>
   <v>       0.32000000      -0.20000000       0.07142857 </v>
   <v>       0.36000000      -0.20000000       0.07142857 </v>
   <v>       0.44000000      -0.20000000       0.07142857 </v>
   <v>       0.48000000      -0.20000000       0.07142857 </v>
   <v>      -0.48000000      -0.20000000       0.07142857 </v>
   <v>      -0.44000000      -0.20000000       0.07142857 </v>
   <v>      -0.36000000      -0.20000000       0.07142857 </v>
   <v>      -0.32000000      -0.20000000       0.07142857 </v>
   <v>      -0.28000000      -0.20000000       0.07142857 </v>
   <v>      -0.24000000      -0.20000000       0.07142857 </v>
   <v>      -0.16000000      -0.20000000       0.07142857 </v>
   <v>      -0.12000000      -0.20000000       0.07142857 </v>
   <v>      -0.08000000      -0.20000000       0.07142857 </v>
   <v>      -0.04000000      -0.20000000       0.07142857 </v>
   <v>       0.00000000      -0.13333333       0.07142857 </v>
   <v>       0.04000000      -0.13333333       0.07142857 </v>
   <v>       0.08000000      -0.13333333       0.07142857 </v>
   <v>       0.12000000      -0.13333333       0.07142857 </v>
   <v>       0.16000000      -0.13333333       0.07142857 </v>
   <v>       0.24000000      -0.13333333       0.07142857 </v>
   <v>       0.28000000      -0.13333333       0.07142857 </v>
   <v>       0.32000000      -0.13333333       0.07142857 </v>
   <v>       0.36000000      -0.13333333       0.07142857 </v>
   <v>       0.44000000      -0.13333333       0.07142857 </v>
   <v>       0.48000000      -0.13333333       0.07142857 </v>
   <v>      -0.48000000      -0.13333333       0.07142857 </v>
   <v>      -0.44000000      -0.13333333       0.07142857 </v>
   <v>      -0.36000000      -0.13333333       0.07142857 </v>
   <v>      -0.32000000      -0.13333333       0.07142857 </v>
   <v>      -0.28000000      -0.13333333       0.07142857 </v>
   <v>      -0.24000000      -0.13333333       0.07142857 </v>
   <v>      -0.16000000      -0.13333333       0.07142857 </v>
   <v>      -0.12000000      -0.13333333       0.07142857 </v>
   <v>      -0.08000000      -0.13333333       0.07142857 </v>
   <v>      -0.04000000      -0.13333333       0.07142857 </v>
   <v>       0.00000000      -0.06666667       0.07142857 </v>
   <v>       0.04000000      -0.06666667       0.07142857 </v>
   <v>       0.08000000      -0.06666667       0.07142857 </v>
   <v>       0.12000000      -0.06666667       0.07142857 </v>
   <v>       0.16000000      -0.06666667       0.07142857 </v>
   <v>       0.24000000      -0.06666667       0.07142857 </v>
   <v>       0.28000000      -0.06666667       0.07142857 </v>
   <v>       0.32000000      -0.06666667       0.07142857 </v>
   <v>       0.36000000      -0.06666667       0.07142857 </v>
   <v>       0.44000000      -0.06666667       0.07142857 </v>
   <v>       0.48000000      -0.06666667       0.07142857 </v>
   <v>      -0.48000000      -0.06666667       0.07142857 </v>
   <v>      -0.44000000      -0.06666667       0.07142857 </v>
   <v>      -0.36000000      -0.06666667       0.07142857 </v>
   <v>      -0.32000000      -0.06666667       0.07142857 </v>
   <v>      -0.28000000      -0.06666667       0.07142857 </v>
   <v>      -0.24000000      -0.06666667       0.07142857 </v>
   <v>      -0.16000000      -0.06666667       0.07142857 </v>
   <v>      -0.12000000      -0.06666667       0.07142857 </v>
   <v>      -0.08000000      -0.06666667       0.07142857 </v>
   <v>      -0.04000000      -0.06666667       0.07142857 </v>
   <v>       0.00000000       0.00000000       0.14285714 </v>
   <v>       0.04000000       0.00000000       0.14285714 </v>
   <v>       0.08000000       0.00000000       0.14285714 </v>
   <v>       0.12000000       0.00000000       0.14285714 </v>
   <v>       0.16000000       0.00000000       0.14285714 </v>
   <v>       0.20000000       0.00000000       0.14285714 </v>
   <v>       0.24000000       0.00000000       0.14285714 </v>
   <v>       0.28000000       0.00000000       0.14285714 </v>
   <v>       0.32000000       0.00000000       0.14285714 </v>
   <v>       0.36000000       0.00000000       0.14285714 </v>
   <v>       0.40000000       0.00000000       0.14285714 </v>
   <v>       0.44000000       0.00000000       0.14285714 </v>
   <v>       0.48000000       0.00000000       0.14285714 </v>
   <v>      -0.48000000       0.00000000       0.14285714 </v>
   <v>      -0.44000000       0.00000000       0.14285714 </v>
   <v>      -0.40000000       0.00000000       0.14285714 </v>
   <v>      -0.36000000       0.00000000       0.14285714 </v>
   <v>      -0.32000000       0.00000000       0.14285714 </v>
   <v>      -0.28000000       0.00000000       0.14285714 </v>
   <v>      -0.24000000       0.00000000       0.14285714 </v>
   <v>      -0.20000000       0.00000000       0.14285714 </v>
   <v>      -0.16000000       0.00000000       0.14285714 </v>
   <v>      -0.12000000       0.00000000       0.14285714 </v>
   <v>      -0.08000000       0.00000000       0.14285714 </v>
   <v>      -0.04000000       0.00000000       0.14285714 </v>
   <v>       0.00000000       0.06666667       0.14285714 </v>
   <v>       0.04000000       0.06666667       0.14285714 </v>
   <v>       0.08000000       0.06666667       0.14285714 </v>
   <v>       0.12000000       0.06666667       0.14285714 </v>
   <v>       0.16000000       0.06666667       0.14285714 </v>
   <v>       0.20000000       0.06666667       0.14285714 </v>
   <v>       0.24000000       0.06666667       0.14285714 </v>
   <v>       0.28000000       0.06666667       0.14285714 </v>
   <v>       0.32000000       0.06666667       0.14285714 </v>
   <v>       0.36000000       0.06666667       0.14285714 </v>
   <v>       0.40000000       0.06666667       0.14285714 </v>
   <v>       0.44000000       0.06666667       0.14285714 </v>
   <v>       0.48000000       0.06666667       0.14285714 </v>
   <v>      -0.48000000       0.06666667       0.14285714 </v>
   <v>      -0.44000000       0.06666667       0.14285714 </v>
   <v>      -0.40000000       0.06666667       0.14285714 </v>
   <v>      -0.36000000       0.06666667       0.14285714 </v>
   <v>      -0.32000000       0.06666667       0.14285714 </v>
   <v>      -0.28000000       0.06666667       0.14285714 </v>
   <v>      -0.24000000       0.06666667       0.14285714 </v>
   <v>      -0.20000000       0.06666667       0.14285714 </v>
   <v>      -0.16000000       0.06666667       0.14285714 </v>
   <v>      -0.12000000       0.06666667       0.14285714 </v>
   <v>      -0.08000000       0.06666667       0.14285714 </v>
   <v>      -0.04000000       0.06666667       0.14285714 </v>
   <v>       0.00000000       0.13333333       0.14285714 </v>
   <v>       0.04000000       0.13333333       0.14285714 </v>
   <v>       0.08000000       0.13333333       0.14285714 </v>
   <v>       0.12000000       0.13333333       0.14285714 </v>
   <v>       0.16000000       0.13333333       0.14285714 </v>
   <v>       0.20000000       0.13333333       0.14285714 </v>
   <v>       0.24000000       0.13333333       0.14285714 </v>
   <v>       0.28000000       0.13333333       0.14285714 </v>
   <v>       0.32000000       0.13333333       0.14285714 </v>
   <v>       0.36000000       0.13333333       0.14285714 </v>
   <v>       0.40000000       0.13333333       0.14285714 </v>
   <v>       0.44000000       0.13333333       0.14285714 </v>
   <v>       0.48000000       0.13333333       0.14285714 </v>
   <v>      -0.48000000       0.13333333       0.14285714 </v>
   <v>      -0.44000000       0.13333333       0.14285714 </v>
   <v>      -0.40000000       0.13333333       0.14285714 </v>
   <v>      -0.36000000       0.13333333       0.14285714 </v>
   <v>      -0.32000000       0.13333333       0.14285714 </v>
   <v>      -0.28000000       0.13333333       0.14285714 </v>
   <v>      -0.24000000       0.13333333       0.14285714 </v>
   <v>      -0.20000000       0.13333333       0.14285714 </v>
   <v>      -0.16000000       0.13333333       0.14285714 </v>
   <v>      -0.12000000       0.13333333       0.14285714 </v>
   <v>      -0.08000000       0.13333333       0.14285714 </v>
   <v>      -0.04000000       0.13333333       0.14285714 </v>
   <v>       0.00000000       0.20000000       0.14285714 </v>
   <v>       0.04000000       0.20000000       0.14285714 </v>
   <v>       0.08000000       0.20000000       0.14285714 </v>
   <v>       0.12000000       0.20000000       0.14285714 </v>
   <v>       0.16000000       0.20000000       0.14285714 </v>
   <v>       0.20000000       0.20000000       0.14285714 </v>
   <v>       0.24000000       0.20000000       0.14285714 </v>
   <v>       0.28000000       0.20000000       0.14285714 </v>
   <v>       0.32000000       0.20000000       0.14285714 </v>
   <v>       0.36000000       0.20000000       0.14285714 </v>
   <v>       0.40000000       0.20000000       0.14285714 </v>
   <v>       0.44000000       0.20000000       0.14285714 </v>
   <v>       0.48000000       0.20000000       0.14285714 </v>
   <v>      -0.48000000       0.20000000       0.14285714 </v>
   <v>      -0.44000000       0.20000000       0.14285714 </v>
   <v>      -0.40000000       0.20000000       0.14285714 </v>
   <v>      -0.36000000       0.20000000       0.14285714 </v>
   <v>      -0.32000000       0.20000000       0.14285714 </v>
   <v>      -0.28000000       0.20000000       0.14285714 </v>
   <v>      -0.24000000       0.20000000       0.14285714 </v>
   <v>      -0.16000000       0.20000000       0.14285714 </v>
   <v>      -0.12000000       0.20000000       0.14285714 </v>
   <v>      -0.08000000       0.20000000       0.14285714 </v>
   <v>      -0.04000000       0.20000000       0.14285714 </v>
   <v>       0.00000000       0.26666667       0.14285714 </v>
   <v>       0.04000000       0.26666667       0.14285714 </v>
   <v>       0.08000000       0.26666667       0.14285714 </v>
   <v>       0.12000000       0.26666667       0.14285714 </v>
   <v>       0.16000000       0.26666667       0.14285714 </v>
   <v>       0.20000000       0.26666667       0.14285714 </v>
   <v>       0.24000000       0.26666667       0.14285714 </v>
   <v>       0.28000000       0.26666667       0.14285714 </v>
   <v>       0.32000000       0.26666667       0.14285714 </v>
   <v>       0.36000000       0.26666667       0.14285714 </v>
   <v>       0.40000000       0.26666667       0.14285714 </v>
   <v>       0.44000000       0.26666667       0.14285714 </v>
   <v>       0.48000000       0.26666667       0.14285714 </v>
   <v>      -0.48000000       0.26666667       0.14285714 </v>
   <v>      -0.44000000       0.26666667       0.14285714 </v>
   <v>      -0.40000000       0.26666667       0.14285714 </v>
   <v>      -0.36000000       0.26666667       0.14285714 </v>
   <v>      -0.32000000       0.26666667       0.14285714 </v>
   <v>      -0.28000000       0.26666667       0.14285714 </v>
   <v>      -0.24000000       0.26666667       0.14285714 </v>
   <v>      -0.16000000       0.26666667       0.14285714 </v>
   <v>      -0.12000000       0.26666667       0.14285714 </v>
   <v>      -0.08000000       0.26666667       0.14285714 </v>
   <v>      -0.04000000       0.26666667       0.14285714 </v>
   <v>       0.00000000       0.33333333       0.14285714 </v>
   <v>       0.04000000       0.33333333       0.14285714 </v>
   <v>       0.08000000       0.33333333       0.14285714 </v>
   <v>       0.12000000       0.33333333       0.14285714 </v>
   <v>       0.16000000       0.33333333       0.14285714 </v>
   <v>       0.20000000       0.33333333       0.14285714 </v>
   <v>       0.24000000       0.33333333       0.14285714 </v>
   <v>       0.28000000       0.33333333       0.14285714 </v>
   <v>       0.32000000       0.33333333       0.14285714 </v>
   <v>       0.36000000       0.33333333       0.14285714 </v>
   <v>       0.40000000       0.33333333       0.14285714 </v>
   <v>       0.44000000       0.33333333       0.14285714 </v>
   <v>       0.48000000       0.33333333       0.14285714 </v>
   <v>      -0.48000000       0.33333333       0.14285714 </v>
   <v>      -0.44000000       0.33333333       0.14285714 </v>
   <v>      -0.40000000       0.33333333       0.14285714 </v>
   <v>      -0.36000000       0.33333333       0.14285714 </v>
   <v>      -0.32000000       0.33333333       0.14285714 </v>
   <v>      -0.28000000       0.33333333       0.14285714 </v>
   <v>      -0.24000000       0.33333333       0.14285714 </v>
   <v>      -0.16000000       0.33333333       0.14285714 </v>
   <v>      -0.12000000       0.33333333       0.14285714 </v>
   <v>      -0.08000000       0.33333333       0.14285714 </v>
   <v>      -0.04000000       0.33333333       0.14285714 </v>
   <v>       0.00000000       0.40000000       0.14285714 </v>
   <v>       0.04000000       0.40000000       0.14285714 </v>
   <v>       0.08000000       0.40000000       0.14285714 </v>
   <v>       0.12000000       0.40000000       0.14285714 </v>
   <v>       0.16000000       0.40000000       0.14285714 </v>
   <v>       0.20000000       0.40000000       0.14285714 </v>
   <v>       0.24000000       0.40000000       0.14285714 </v>
   <v>       0.28000000       0.40000000       0.14285714 </v>
   <v>       0.32000000       0.40000000       0.14285714 </v>
   <v>       0.36000000       0.40000000       0.14285714 </v>
   <v>       0.40000000       0.40000000       0.14285714 </v>
   <v>       0.44000000       0.40000000       0.14285714 </v>
   <v>       0.48000000       0.40000000       0.14285714 </v>
   <v>      -0.48000000       0.40000000       0.14285714 </v>
   <v>      -0.44000000       0.40000000       0.14285714 </v>
   <v>      -0.36000000       0.40000000       0.14285714 </v>
   <v>      -0.32000000       0.40000000       0.14285714 </v>
   <v>      -0.28000000       0.40000000       0.14285714 </v>
   <v>      -0.24000000       0.40000000       0.14285714 </v>
   <v>      -0.16000000       0.40000000       0.14285714 </v>
   <v>      -0.12000000       0.40000000       0.14285714 </v>
   <v>      -0.08000000       0.40000000       0.14285714 </v>
   <v>      -0.04000000       0.40000000       0.14285714 </v>
   <v>       0.00000000       0.46666667       0.14285714 </v>
   <v>       0.04000000       0.46666667       0.14285714 </v>
   <v>       0.08000000       0.46666667       0.14285714 </v>
   <v>       0.12000000       0.46666667       0.14285714 </v>
   <v>       0.16000000       0.46666667       0.14285714 </v>
   <v>       0.20000000       0.46666667       0.14285714 </v>
   <v>       0.24000000       0.46666667       0.14285714 </v>
   <v>       0.28000000       0.46666667       0.14285714 </v>
   <v>       0.32000000       0.46666667       0.14285714 </v>
   <v>       0.36000000       0.46666667       0.14285714 </v>
   <v>       0.40000000       0.46666667       0.14285714 </v>
   <v>       0.44000000       0.46666667       0.14285714 </v>
   <v>       0.48000000       0.46666667       0.14285714 </v>
   <v>      -0.48000000       0.46666667       0.14285714 </v>
   <v>      -0.44000000       0.46666667       0.14285714 </v>
   <v>      -0.36000000       0.46666667       0.14285714 </v>
   <v>      -0.32000000       0.46666667       0.14285714 </v>
   <v>      -0.28000000       0.46666667       0.14285714 </v>
   <v>      -0.24000000       0.46666667       0.14285714 </v>
   <v>      -0.16000000       0.46666667       0.14285714 </v>
   <v>      -0.12000000       0.46666667       0.14285714 </v>
   <v>      -0.08000000       0.46666667       0.14285714 </v>
   <v>      -0.04000000       0.46666667       0.14285714 </v>
   <v>       0.00000000      -0.46666667       0.14285714 </v>
   <v>       0.04000000      -0.46666667       0.14285714 </v>
   <v>       0.08000000      -0.46666667       0.14285714 </v>
   <v>       0.12000000      -0.46666667       0.14285714 </v>
   <v>       0.16000000      -0.46666667       0.14285714 </v>
   <v>       0.20000000      -0.46666667       0.14285714 </v>
   <v>       0.24000000      -0.46666667       0.14285714 </v>
   <v>       0.28000000      -0.46666667       0.14285714 </v>
   <v>       0.32000000      -0.46666667       0.14285714 </v>
   <v>       0.36000000      -0.46666667       0.14285714 </v>
   <v>       0.40000000      -0.46666667       0.14285714 </v>
   <v>       0.44000000      -0.46666667       0.14285714 </v>
   <v>       0.48000000      -0.46666667       0.14285714 </v>
   <v>      -0.48000000      -0.46666667       0.14285714 </v>
   <v>      -0.44000000      -0.46666667       0.14285714 </v>
   <v>      -0.36000000      -0.46666667       0.14285714 </v>
   <v>      -0.32000000      -0.46666667       0.14285714 </v>
   <v>      -0.28000000      -0.46666667       0.14285714 </v>
   <v>      -0.24000000      -0.46666667       0.14285714 </v>
   <v>      -0.16000000      -0.46666667       0.14285714 </v>
   <v>      -0.12000000      -0.46666667       0.14285714 </v>
   <v>      -0.08000000      -0.46666667       0.14285714 </v>
   <v>      -0.04000000      -0.46666667       0.14285714 </v>
   <v>       0.00000000      -0.40000000       0.14285714 </v>
   <v>       0.04000000      -0.40000000       0.14285714 </v>
   <v>       0.08000000      -0.40000000       0.14285714 </v>
   <v>       0.12000000      -0.40000000       0.14285714 </v>
   <v>       0.16000000      -0.40000000       0.14285714 </v>
   <v>       0.20000000      -0.40000000       0.14285714 </v>
   <v>       0.24000000      -0.40000000       0.14285714 </v>
   <v>       0.28000000      -0.40000000       0.14285714 </v>
   <v>       0.32000000      -0.40000000       0.14285714 </v>
   <v>       0.36000000      -0.40000000       0.14285714 </v>
   <v>       0.44000000      -0.40000000       0.14285714 </v>
   <v>       0.48000000      -0.40000000       0.14285714 </v>
   <v>      -0.48000000      -0.40000000       0.14285714 </v>
   <v>      -0.44000000      -0.40000000       0.14285714 </v>
   <v>      -0.36000000      -0.40000000       0.14285714 </v>
   <v>      -0.32000000      -0.40000000       0.14285714 </v>
   <v>      -0.28000000      -0.40000000       0.14285714 </v>
   <v>      -0.24000000      -0.40000000       0.14285714 </v>
   <v>      -0.16000000      -0.40000000       0.14285714 </v>
   <v>      -0.12000000      -0.40000000       0.14285714 </v>
   <v>      -0.08000000      -0.40000000       0.14285714 </v>
   <v>      -0.04000000      -0.40000000       0.14285714 </v>
   <v>       0.00000000      -0.33333333       0.14285714 </v>
   <v>       0.04000000      -0.33333333       0.14285714 </v>
   <v>       0.08000000      -0.33333333       0.14285714 </v>
   <v>       0.12000000      -0.33333333       0.14285714 </v>
   <v>       0.16000000      -0.33333333       0.14285714 </v>
   <v>       0.20000000      -0.33333333       0.14285714 </v>
   <v>       0.24000000      -0.33333333       0.14285714 </v>
   <v>       0.28000000      -0.33333333       0.14285714 </v>
   <v>       0.32000000      -0.33333333       0.14285714 </v>
   <v>       0.36000000      -0.33333333       0.14285714 </v>
   <v>       0.44000000      -0.33333333       0.14285714 </v>
   <v>       0.48000000      -0.33333333       0.14285714 </v>
   <v>      -0.48000000      -0.33333333       0.14285714 </v>
   <v>      -0.44000000      -0.33333333       0.14285714 </v>
   <v>      -0.36000000      -0.33333333       0.14285714 </v>
   <v>      -0.32000000      -0.33333333       0.14285714 </v>
   <v>      -0.28000000      -0.33333333       0.14285714 </v>
   <v>      -0.24000000      -0.33333333       0.14285714 </v>
   <v>      -0.16000000      -0.33333333       0.14285714 </v>
   <v>      -0.12000000      -0.33333333       0.14285714 </v>
   <v>      -0.08000000      -0.33333333       0.14285714 </v>
   <v>      -0.04000000      -0.33333333       0.14285714 </v>
   <v>       0.00000000      -0.26666667       0.14285714 </v>
   <v>       0.04000000      -0.26666667       0.14285714 </v>
   <v>       0.08000000      -0.26666667       0.14285714 </v>
   <v>       0.12000000      -0.26666667       0.14285714 </v>
   <v>       0.16000000      -0.26666667       0.14285714 </v>
   <v>       0.20000000      -0.26666667       0.14285714 </v>
   <v>       0.24000000      -0.26666667       0.14285714 </v>
   <v>       0.28000000      -0.26666667       0.14285714 </v>
   <v>       0.32000000      -0.26666667       0.14285714 </v>
   <v>       0.36000000      -0.26666667       0.14285714 </v>
   <v>       0.44000000      -0.26666667       0.14285714 </v>
   <v>       0.48000000      -0.26666667       0.14285714 </v>
   <v>      -0.48000000      -0.26666667       0.14285714 </v>
   <v>      -0.44000000      -0.26666667       0.14285714 </v>
   <v>      -0.36000000      -0.26666667       0.14285714 </v>
   <v>      -0.32000000      -0.26666667       0.14285714 </v>
   <v>      -0.28000000      -0.26666667       0.14285714 </v>
   <v>      -0.24000000      -0.26666667       0.14285714 </v>
   <v>      -0.16000000      -0.26666667       0.14285714 </v>
   <v>      -0.12000000      -0.26666667       0.14285714 </v>
   <v>      -0.08000000      -0.26666667       0.14285714 </v>
   <v>      -0.04000000      -0.26666667       0.14285714 </v>
   <v>       0.00000000      -0.20000000       0.14285714 </v>
   <v>       0.04000000      -0.20000000       0.14285714 </v>
   <v>       0.08000000      -0.20000000       0.14285714 </v>
   <v>       0.12000000      -0.20000000       0.14285714 </v>
   <v>       0.16000000      -0.20000000       0.14285714 </v>
   <v>       0.24000000      -0.20000000       0.14285714 </v>
   <v>       0.28000000      -0.20000000       0.14285714 </v>
   <v>       0.32000000      -0.20000000       0.14285714 </v>
   <v>       0.36000000      -0.20000000       0.14285714 </v>
   <v>       0.44000000      -0.20000000       0.14285714 </v>
   <v>       0.48000000      -0.20000000       0.14285714 </v>
   <v>      -0.48000000      -0.20000000       0.14285714 </v>
   <v>      -0.44000000      -0.20000000       0.14285714 </v>
   <v>      -0.36000000      -0.20000000       0.14285714 </v>
   <v>      -0.32000000      -0.20000000       0.14285714 </v>
   <v>      -0.28000000      -0.20000000       0.14285714 </v>
   <v>      -0.24000000      -0.20000000       0.14285714 </v>
   <v>      -0.16000000      -0.20000000       0.14285714 </v>
   <v>      -0.12000000      -0.20000000       0.14285714 </v>
   <v>      -0.08000000      -0.20000000       0.14285714 </v>
   <v>      -0.04000000      -0.20000000       0.14285714 </v>
   <v>       0.00000000      -0.13333333       0.14285714 </v>
   <v>       0.04000000      -0.13333333       0.14285714 </v>
   <v>       0.08000000      -0.13333333       0.14285714 </v>
   <v>       0.12000000      -0.13333333       0.14285714 </v>
   <v>       0.16000000      -0.13333333       0.14285714 </v>
   <v>       0.24000000      -0.13333333       0.14285714 </v>
   <v>       0.28000000      -0.13333333       0.14285714 </v>
   <v>       0.32000000      -0.13333333       0.14285714 </v>
   <v>       0.36000000      -0.13333333       0.14285714 </v>
   <v>       0.44000000      -0.13333333       0.14285714 </v>
   <v>       0.48000000      -0.13333333       0.14285714 </v>
   <v>      -0.48000000      -0.13333333       0.14285714 </v>
   <v>      -0.44000000      -0.13333333       0.14285714 </v>
   <v>      -0.36000000      -0.13333333       0.14285714 </v>
   <v>      -0.32000000      -0.13333333       0.14285714 </v>
   <v>      -0.28000000      -0.13333333       0.14285714 </v>
   <v>      -0.24000000      -0.13333333       0.14285714 </v>
   <v>      -0.16000000      -0.13333333       0.14285714 </v>
   <v>      -0.12000000      -0.13333333       0.14285714 </v>
   <v>      -0.08000000      -0.13333333       0.14285714 </v>
   <v>      -0.04000000      -0.13333333       0.14285714 </v>
   <v>       0.00000000      -0.06666667       0.14285714 </v>
   <v>       0.04000000      -0.06666667       0.14285714 </v>
   <v>       0.08000000      -0.06666667       0.14285714 </v>
   <v>       0.12000000      -0.06666667       0.14285714 </v>
   <v>       0.16000000      -0.06666667       0.14285714 </v>
   <v>       0.24000000      -0.06666667       0.14285714 </v>
   <v>       0.28000000      -0.06666667       0.14285714 </v>
   <v>       0.32000000      -0.06666667       0.14285714 </v>
   <v>       0.36000000      -0.06666667       0.14285714 </v>
   <v>       0.44000000      -0.06666667       0.14285714 </v>
   <v>       0.48000000      -0.06666667       0.14285714 </v>
   <v>      -0.48000000      -0.06666667       0.14285714 </v>
   <v>      -0.44000000      -0.06666667       0.14285714 </v>
   <v>      -0.36000000      -0.06666667       0.14285714 </v>
   <v>      -0.32000000      -0.06666667       0.14285714 </v>
   <v>      -0.28000000      -0.06666667       0.14285714 </v>
   <v>      -0.24000000      -0.06666667       0.14285714 </v>
   <v>      -0.16000000      -0.06666667       0.14285714 </v>
   <v>      -0.12000000      -0.06666667       0.14285714 </v>
   <v>      -0.08000000      -0.06666667       0.14285714 </v>
   <v>      -0.04000000      -0.06666667       0.14285714 </v>
   <v>       0.00000000       0.00000000       0.21428571 </v>
   <v>       0.04000000       0.00000000       0.21428571 </v>
   <v>       0.08000000       0.00000000       0.21428571 </v>
   <v>       0.12000000       0.00000000       0.21428571 </v>
   <v>       0.16000000       0.00000000       0.21428571 </v>
   <v>       0.20000000       0.00000000       0.21428571 </v>
   <v>       0.24000000       0.00000000       0.21428571 </v>
   <v>       0.28000000       0.00000000       0.21428571 </v>
   <v>       0.32000000       0.00000000       0.21428571 </v>
   <v>       0.36000000       0.00000000       0.21428571 </v>
   <v>       0.40000000       0.00000000       0.21428571 </v>
   <v>       0.44000000       0.00000000       0.21428571 </v>
   <v>       0.48000000       0.00000000       0.21428571 </v>
   <v>      -0.48000000       0.00000000       0.21428571 </v>
   <v>      -0.44000000       0.00000000       0.21428571 </v>
   <v>      -0.40000000       0.00000000       0.21428571 </v>
   <v>      -0.36000000       0.00000000       0.21428571 </v>
   <v>      -0.32000000       0.00000000       0.21428571 </v>
   <v>      -0.28000000       0.00000000       0.21428571 </v>
   <v>      -0.24000000       0.00000000       0.21428571 </v>
   <v>      -0.20000000       0.00000000       0.21428571 </v>
   <v>      -0.16000000       0.00000000       0.21428571 </v>
   <v>      -0.12000000       0.00000000       0.21428571 </v>
   <v>      -0.08000000       0.00000000       0.21428571 </v>
   <v>      -0.04000000       0.00000000       0.21428571 </v>
   <v>       0.00000000       0.06666667       0.21428571 </v>
   <v>       0.04000000       0.06666667       0.21428571 </v>
   <v>       0.08000000       0.06666667       0.21428571 </v>
   <v>       0.12000000       0.06666667       0.21428571 </v>
   <v>       0.16000000       0.06666667       0.21428571 </v>
   <v>       0.20000000       0.06666667       0.21428571 </v>
   <v>       0.24000000       0.06666667       0.21428571 </v>
   <v>       0.28000000       0.06666667       0.21428571 </v>
   <v>       0.32000000       0.06666667       0.21428571 </v>
   <v>       0.36000000       0.06666667       0.21428571 </v>
   <v>       0.40000000       0.06666667       0.21428571 </v>
   <v>       0.44000000       0.06666667       0.21428571 </v>
   <v>       0.48000000       0.06666667       0.21428571 </v>
   <v>      -0.48000000       0.06666667       0.21428571 </v>
   <v>      -0.44000000       0.06666667       0.21428571 </v>
   <v>      -0.40000000       0.06666667       0.21428571 </v>
   <v>      -0.36000000       0.06666667       0.21428571 </v>
   <v>      -0.32000000       0.06666667       0.21428571 </v>
   <v>      -0.28000000       0.06666667       0.21428571 </v>
   <v>      -0.24000000       0.06666667       0.21428571 </v>
   <v>      -0.20000000       0.06666667       0.21428571 </v>
   <v>      -0.16000000       0.06666667       0.21428571 </v>
   <v>      -0.12000000       0.06666667       0.21428571 </v>
   <v>      -0.08000000       0.06666667       0.21428571 </v>
   <v>      -0.04000000       0.06666667       0.21428571 </v>
   <v>       0.00000000       0.13333333       0.21428571 </v>
   <v>       0.04000000       0.13333333       0.21428571 </v>
   <v>       0.08000000       0.13333333       0.21428571 </v>
   <v>       0.12000000       0.13333333       0.21428571 </v>
   <v>       0.16000000       0.13333333       0.21428571 </v>
   <v>       0.20000000       0.13333333       0.21428571 </v>
   <v>       0.24000000       0.13333333       0.21428571 </v>
   <v>       0.28000000       0.13333333       0.21428571 </v>
   <v>       0.32000000       0.13333333       0.21428571 </v>
   <v>       0.36000000       0.13333333       0.21428571 </v>
   <v>       0.40000000       0.13333333       0.21428571 </v>
   <v>       0.44000000       0.13333333       0.21428571 </v>
   <v>       0.48000000       0.13333333       0.21428571 </v>
   <v>      -0.48000000       0.13333333       0.21428571 </v>
   <v>      -0.44000000       0.13333333       0.21428571 </v>
   <v>      -0.40000000       0.13333333       0.21428571 </v>
   <v>      -0.36000000       0.13333333       0.21428571 </v>
   <v>      -0.32000000       0.13333333       0.21428571 </v>
   <v>      -0.28000000       0.13333333       0.21428571 </v>
   <v>      -0.24000000       0.13333333       0.21428571 </v>
   <v>      -0.20000000       0.13333333       0.21428571 </v>
   <v>      -0.16000000       0.13333333       0.21428571 </v>
   <v>      -0.12000000       0.13333333       0.21428571 </v>
   <v>      -0.08000000       0.13333333       0.21428571 </v>
   <v>      -0.04000000       0.13333333       0.21428571 </v>
   <v>       0.00000000       0.20000000       0.21428571 </v>
   <v>       0.04000000       0.20000000       0.21428571 </v>
   <v>       0.08000000       0.20000000       0.21428571 </v>
   <v>       0.12000000       0.20000000       0.21428571 </v>
   <v>       0.16000000       0.20000000       0.21428571 </v>
   <v>       0.20000000       0.20000000       0.21428571 </v>
   <v>       0.24000000       0.20000000       0.21428571 </v>
   <v>       0.28000000       0.20000000       0.21428571 </v>
   <v>       0.32000000       0.20000000       0.21428571 </v>
   <v>       0.36000000       0.20000000       0.21428571 </v>
   <v>       0.40000000       0.20000000       0.21428571 </v>
   <v>       0.44000000       0.20000000       0.21428571 </v>
   <v>       0.48000000       0.20000000       0.21428571 </v>
   <v>      -0.48000000       0.20000000       0.21428571 </v>
   <v>      -0.44000000       0.20000000       0.21428571 </v>
   <v>      -0.40000000       0.20000000       0.21428571 </v>
   <v>      -0.36000000       0.20000000       0.21428571 </v>
   <v>      -0.32000000       0.20000000       0.21428571 </v>
   <v>      -0.28000000       0.20000000       0.21428571 </v>
   <v>      -0.24000000       0.20000000       0.21428571 </v>
   <v>      -0.16000000       0.20000000       0.21428571 </v>
   <v>      -0.12000000       0.20000000       0.21428571 </v>
   <v>      -0.08000000       0.20000000       0.21428571 </v>
   <v>      -0.04000000       0.20000000       0.21428571 </v>
   <v>       0.00000000       0.26666667       0.21428571 </v>
   <v>       0.04000000       0.26666667       0.21428571 </v>
   <v>       0.08000000       0.26666667       0.21428571 </v>
   <v>       0.12000000       0.26666667       0.21428571 </v>
   <v>       0.16000000       0.26666667       0.21428571 </v>
   <v>       0.20000000       0.26666667       0.21428571 </v>
   <v>       0.24000000       0.26666667       0.21428571 </v>
   <v>       0.28000000       0.26666667       0.21428571 </v>
   <v>       0.32000000       0.26666667       0.21428571 </v>
   <v>       0.36000000       0.26666667       0.21428571 </v>
   <v>       0.40000000       0.26666667       0.21428571 </v>
   <v>       0.44000000       0.26666667       0.21428571 </v>
   <v>       0.48000000       0.26666667       0.21428571 </v>
   <v>      -0.48000000       0.26666667       0.21428571 </v>
   <v>      -0.44000000       0.26666667       0.21428571 </v>
   <v>      -0.40000000       0.26666667       0.21428571 </v>
   <v>      -0.36000000       0.26666667       0.21428571 </v>
   <v>      -0.32000000       0.26666667       0.21428571 </v>
   <v>      -0.28000000       0.26666667       0.21428571 </v>
   <v>      -0.24000000       0.26666667       0.21428571 </v>
   <v>      -0.16000000       0.26666667       0.21428571 </v>
   <v>      -0.12000000       0.26666667       0.21428571 </v>
   <v>      -0.08000000       0.26666667       0.21428571 </v>
   <v>      -0.04000000       0.26666667       0.21428571 </v>
   <v>       0.00000000       0.33333333       0.21428571 </v>
   <v>       0.04000000       0.33333333       0.21428571 </v>
   <v>       0.08000000       0.33333333       0.21428571 </v>
   <v>       0.12000000       0.33333333       0.21428571 </v>
   <v>       0.16000000       0.33333333       0.21428571 </v>
   <v>       0.20000000       0.33333333       0.21428571 </v>
   <v>       0.24000000       0.33333333       0.21428571 </v>
   <v>       0.28000000       0.33333333       0.21428571 </v>
   <v>       0.32000000       0.33333333       0.21428571 </v>
   <v>       0.36000000       0.33333333       0.21428571 </v>
   <v>       0.40000000       0.33333333       0.21428571 </v>
   <v>       0.44000000       0.33333333       0.21428571 </v>
   <v>       0.48000000       0.33333333       0.21428571 </v>
   <v>      -0.48000000       0.33333333       0.21428571 </v>
   <v>      -0.44000000       0.33333333       0.21428571 </v>
   <v>      -0.40000000       0.33333333       0.21428571 </v>
   <v>      -0.36000000       0.33333333       0.21428571 </v>
   <v>      -0.32000000       0.33333333       0.21428571 </v>
   <v>      -0.28000000       0.33333333       0.21428571 </v>
   <v>      -0.24000000       0.33333333       0.21428571 </v>
   <v>      -0.16000000       0.33333333       0.21428571 </v>
   <v>      -0.12000000       0.33333333       0.21428571 </v>
   <v>      -0.08000000       0.33333333       0.21428571 </v>
   <v>      -0.04000000       0.33333333       0.21428571 </v>
   <v>       0.00000000       0.40000000       0.21428571 </v>
   <v>       0.04000000       0.40000000       0.21428571 </v>
   <v>       0.08000000       0.40000000       0.21428571 </v>
   <v>       0.12000000       0.40000000       0.21428571 </v>
   <v>       0.16000000       0.40000000       0.21428571 </v>
   <v>       0.20000000       0.40000000       0.21428571 </v>
   <v>       0.24000000       0.40000000       0.21428571 </v>
   <v>       0.28000000       0.40000000       0.21428571 </v>
   <v>       0.32000000       0.40000000       0.21428571 </v>
   <v>       0.36000000       0.40000000       0.21428571 </v>
   <v>       0.40000000       0.40000000       0.21428571 </v>
   <v>       0.44000000       0.40000000       0.21428571 </v>
   <v>       0.48000000       0.40000000       0.21428571 </v>
   <v>      -0.48000000       0.40000000       0.21428571 </v>
   <v>      -0.44000000       0.40000000       0.21428571 </v>
   <v>      -0.36000000       0.40000000       0.21428571 </v>
   <v>      -0.32000000       0.40000000       0.21428571 </v>
   <v>      -0.28000000       0.40000000       0.21428571 </v>
   <v>      -0.24000000       0.40000000       0.21428571 </v>
   <v>      -0.16000000       0.40000000       0.21428571 </v>
   <v>      -0.12000000       0.40000000       0.21428571 </v>
   <v>      -0.08000000       0.40000000       0.21428571 </v>
   <v>      -0.04000000       0.40000000       0.21428571 </v>
   <v>       0.00000000       0.46666667       0.21428571 </v>
   <v>       0.04000000       0.46666667       0.21428571 </v>
   <v>       0.08000000       0.46666667       0.21428571 </v>
   <v>       0.12000000       0.46666667       0.21428571 </v>
   <v>       0.16000000       0.46666667       0.21428571 </v>
   <v>       0.20000000       0.46666667       0.21428571 </v>
   <v>       0.24000000       0.46666667       0.21428571 </v>
   <v>       0.28000000       0.46666667       0.21428571 </v>
   <v>       0.32000000       0.46666667       0.21428571 </v>
   <v>       0.36000000       0.46666667       0.21428571 </v>
   <v>       0.40000000       0.46666667       0.21428571 </v>
   <v>       0.44000000       0.46666667       0.21428571 </v>
   <v>       0.48000000       0.46666667       0.21428571 </v>
   <v>      -0.48000000       0.46666667       0.21428571 </v>
   <v>      -0.44000000       0.46666667       0.21428571 </v>
   <v>      -0.36000000       0.46666667       0.21428571 </v>
   <v>      -0.32000000       0.46666667       0.21428571 </v>
   <v>      -0.28000000       0.46666667       0.21428571 </v>
   <v>      -0.24000000       0.46666667       0.21428571 </v>
   <v>      -0.16000000       0.46666667       0.21428571 </v>
   <v>      -0.12000000       0.46666667       0.21428571 </v>
   <v>      -0.08000000       0.46666667       0.21428571 </v>
   <v>      -0.04000000       0.46666667       0.21428571 </v>
   <v>       0.00000000      -0.46666667       0.21428571 </v>
   <v>       0.04000000      -0.46666667       0.21428571 </v>
   <v>       0.08000000      -0.46666667       0.21428571 </v>
   <v>       0.12000000      -0.46666667       0.21428571 </v>
   <v>       0.16000000      -0.46666667       0.21428571 </v>
   <v>       0.20000000      -0.46666667       0.21428571 </v>
   <v>       0.24000000      -0.46666667       0.21428571 </v>
   <v>       0.28000000      -0.46666667       0.21428571 </v>
   <v>       0.32000000      -0.46666667       0.21428571 </v>
   <v>       0.36000000      -0.46666667       0.21428571 </v>
   <v>       0.40000000      -0.46666667       0.21428571 </v>
   <v>       0.44000000      -0.46666667       0.21428571 </v>
   <v>       0.48000000      -0.46666667       0.21428571 </v>
   <v>      -0.48000000      -0.46666667       0.21428571 </v>
   <v>      -0.44000000      -0.46666667       0.21428571 </v>
   <v>      -0.36000000      -0.46666667       0.21428571 </v>
   <v>      -0.32000000      -0.46666667       0.21428571 </v>
   <v>      -0.28000000      -0.46666667       0.21428571 </v>
   <v>      -0.24000000      -0.46666667       0.21428571 </v>
   <v>      -0.16000000      -0.46666667       0.21428571 </v>
   <v>      -0.12000000      -0.46666667       0.21428571 </v>
   <v>      -0.08000000      -0.46666667       0.21428571 </v>
   <v>      -0.04000000      -0.46666667       0.21428571 </v>
   <v>       0.00000000      -0.40000000       0.21428571 </v>
   <v>       0.04000000      -0.40000000       0.21428571 </v>
   <v>       0.08000000      -0.40000000       0.21428571 </v>
   <v>       0.12000000      -0.40000000       0.21428571 </v>
   <v>       0.16000000      -0.40000000       0.21428571 </v>
   <v>       0.20000000      -0.40000000       0.21428571 </v>
   <v>       0.24000000      -0.40000000       0.21428571 </v>
   <v>       0.28000000      -0.40000000       0.21428571 </v>
   <v>       0.32000000      -0.40000000       0.21428571 </v>
   <v>       0.36000000      -0.40000000       0.21428571 </v>
   <v>       0.44000000      -0.40000000       0.21428571 </v>
   <v>       0.48000000      -0.40000000       0.21428571 </v>
   <v>      -0.48000000      -0.40000000       0.21428571 </v>
   <v>      -0.44000000      -0.40000000       0.21428571 </v>
   <v>      -0.36000000      -0.40000000       0.21428571 </v>
   <v>      -0.32000000      -0.40000000       0.21428571 </v>
   <v>      -0.28000000      -0.40000000       0.21428571 </v>
   <v>      -0.24000000      -0.40000000       0.21428571 </v>
   <v>      -0.16000000      -0.40000000       0.21428571 </v>
   <v>      -0.12000000      -0.40000000       0.21428571 </v>
   <v>      -0.08000000      -0.40000000       0.21428571 </v>
   <v>      -0.04000000      -0.40000000       0.21428571 </v>
   <v>       0.00000000      -0.33333333       0.21428571 </v>
   <v>       0.04000000      -0.33333333       0.21428571 </v>
   <v>       0.08000000      -0.33333333       0.21428571 </v>
   <v>       0.12000000      -0.33333333       0.21428571 </v>
   <v>       0.16000000      -0.33333333       0.21428571 </v>
   <v>       0.20000000      -0.33333333       0.21428571 </v>
   <v>       0.24000000      -0.33333333       0.21428571 </v>
   <v>       0.28000000      -0.33333333       0.21428571 </v>
   <v>       0.32000000      -0.33333333       0.21428571 </v>
   <v>       0.36000000      -0.33333333       0.21428571 </v>
   <v>       0.44000000      -0.33333333       0.21428571 </v>
   <v>       0.48000000      -0.33333333       0.21428571 </v>
   <v>      -0.48000000      -0.33333333       0.21428571 </v>
   <v>      -0.44000000      -0.33333333       0.21428571 </v>
   <v>      -0.36000000      -0.33333333       0.21428571 </v>
   <v>      -0.32000000      -0.33333333       0.21428571 </v>
   <v>      -0.28000000      -0.33333333       0.21428571 </v>
   <v>      -0.24000000      -0.33333333       0.21428571 </v>
   <v>      -0.16000000      -0.33333333       0.21428571 </v>
   <v>      -0.12000000      -0.33333333       0.21428571 </v>
   <v>      -0.08000000      -0.33333333       0.21428571 </v>
   <v>      -0.04000000      -0.33333333       0.21428571 </v>
   <v>       0.00000000      -0.26666667       0.21428571 </v>
   <v>       0.04000000      -0.26666667       0.21428571 </v>
   <v>       0.08000000      -0.26666667       0.21428571 </v>
   <v>       0.12000000      -0.26666667       0.21428571 </v>
   <v>       0.16000000      -0.26666667       0.21428571 </v>
   <v>       0.20000000      -0.26666667       0.21428571 </v>
   <v>       0.24000000      -0.26666667       0.21428571 </v>
   <v>       0.28000000      -0.26666667       0.21428571 </v>
   <v>       0.32000000      -0.26666667       0.21428571 </v>
   <v>       0.36000000      -0.26666667       0.21428571 </v>
   <v>       0.44000000      -0.26666667       0.21428571 </v>
   <v>       0.48000000      -0.26666667       0.21428571 </v>
   <v>      -0.48000000      -0.26666667       0.21428571 </v>
   <v>      -0.44000000      -0.26666667       0.21428571 </v>
   <v>      -0.36000000      -0.26666667       0.21428571 </v>
   <v>      -0.32000000      -0.26666667       0.21428571 </v>
   <v>      -0.28000000      -0.26666667       0.21428571 </v>
   <v>      -0.24000000      -0.26666667       0.21428571 </v>
   <v>      -0.16000000      -0.26666667       0.21428571 </v>
   <v>      -0.12000000      -0.26666667       0.21428571 </v>
   <v>      -0.08000000      -0.26666667       0.21428571 </v>
   <v>      -0.04000000      -0.26666667       0.21428571 </v>
   <v>       0.00000000      -0.20000000       0.21428571 </v>
   <v>       0.04000000      -0.20000000       0.21428571 </v>
   <v>       0.08000000      -0.20000000       0.21428571 </v>
   <v>       0.12000000      -0.20000000       0.21428571 </v>
   <v>       0.16000000      -0.20000000       0.21428571 </v>
   <v>       0.24000000      -0.20000000       0.21428571 </v>
   <v>       0.28000000      -0.20000000       0.21428571 </v>
   <v>       0.32000000      -0.20000000       0.21428571 </v>
   <v>       0.36000000      -0.20000000       0.21428571 </v>
   <v>       0.44000000      -0.20000000       0.21428571 </v>
   <v>       0.48000000      -0.20000000       0.21428571 </v>
   <v>      -0.48000000      -0.20000000       0.21428571 </v>
   <v>      -0.44000000      -0.20000000       0.21428571 </v>
   <v>      -0.36000000      -0.20000000       0.21428571 </v>
   <v>      -0.32000000      -0.20000000       0.21428571 </v>
   <v>      -0.28000000      -0.20000000       0.21428571 </v>
   <v>      -0.24000000      -0.20000000       0.21428571 </v>
   <v>      -0.16000000      -0.20000000       0.21428571 </v>
   <v>      -0.12000000      -0.20000000       0.21428571 </v>
   <v>      -0.08000000      -0.20000000       0.21428571 </v>
   <v>      -0.04000000      -0.20000000       0.21428571 </v>
   <v>       0.00000000      -0.13333333       0.21428571 </v>
   <v>       0.04000000      -0.13333333       0.21428571 </v>
   <v>       0.08000000      -0.13333333       0.21428571 </v>
   <v>       0.12000000      -0.13333333       0.21428571 </v>
   <v>       0.16000000      -0.13333333       0.21428571 </v>
   <v>       0.24000000      -0.13333333       0.21428571 </v>
   <v>       0.28000000      -0.13333333       0.21428571 </v>
   <v>       0.32000000      -0.13333333       0.21428571 </v>
   <v>       0.36000000      -0.13333333       0.21428571 </v>
   <v>       0.44000000      -0.13333333       0.21428571 </v>
   <v>       0.48000000      -0.13333333       0.21428571 </v>
   <v>      -0.48000000      -0.13333333       0.21428571 </v>
   <v>      -0.44000000      -0.13333333       0.21428571 </v>
   <v>      -0.36000000      -0.13333333       0.21428571 </v>
   <v>      -0.32000000      -0.13333333       0.21428571 </v>
   <v>      -0.28000000      -0.13333333       0.21428571 </v>
   <v>      -0.24000000      -0.13333333       0.21428571 </v>
   <v>      -0.16000000      -0.13333333       0.21428571 </v>
   <v>      -0.12000000      -0.13333333       0.21428571 </v>
   <v>      -0.08000000      -0.13333333       0.21428571 </v>
   <v>      -0.04000000      -0.13333333       0.21428571 </v>
   <v>       0.00000000      -0.06666667       0.21428571 </v>
   <v>       0.04000000      -0.06666667       0.21428571 </v>
   <v>       0.08000000      -0.06666667       0.21428571 </v>
   <v>       0.12000000      -0.06666667       0.21428571 </v>
   <v>       0.16000000      -0.06666667       0.21428571 </v>
   <v>       0.24000000      -0.06666667       0.21428571 </v>
   <v>       0.28000000      -0.06666667       0.21428571 </v>
   <v>       0.32000000      -0.06666667       0.21428571 </v>
   <v>       0.36000000      -0.06666667       0.21428571 </v>
   <v>       0.44000000      -0.06666667       0.21428571 </v>
   <v>       0.48000000      -0.06666667       0.21428571 </v>
   <v>      -0.48000000      -0.06666667       0.21428571 </v>
   <v>      -0.44000000      -0.06666667       0.21428571 </v>
   <v>      -0.36000000      -0.06666667       0.21428571 </v>
   <v>      -0.32000000      -0.06666667       0.21428571 </v>
   <v>      -0.28000000      -0.06666667       0.21428571 </v>
   <v>      -0.24000000      -0.06666667       0.21428571 </v>
   <v>      -0.16000000      -0.06666667       0.21428571 </v>
   <v>      -0.12000000      -0.06666667       0.21428571 </v>
   <v>      -0.08000000      -0.06666667       0.21428571 </v>
   <v>      -0.04000000      -0.06666667       0.21428571 </v>
   <v>       0.00000000       0.00000000       0.28571429 </v>
   <v>       0.04000000       0.00000000       0.28571429 </v>
   <v>       0.08000000       0.00000000       0.28571429 </v>
   <v>       0.12000000       0.00000000       0.28571429 </v>
   <v>       0.16000000       0.00000000       0.28571429 </v>
   <v>       0.20000000       0.00000000       0.28571429 </v>
   <v>       0.24000000       0.00000000       0.28571429 </v>
   <v>       0.28000000       0.00000000       0.28571429 </v>
   <v>       0.32000000       0.00000000       0.28571429 </v>
   <v>       0.36000000       0.00000000       0.28571429 </v>
   <v>       0.40000000       0.00000000       0.28571429 </v>
   <v>       0.44000000       0.00000000       0.28571429 </v>
   <v>       0.48000000       0.00000000       0.28571429 </v>
   <v>      -0.48000000       0.00000000       0.28571429 </v>
   <v>      -0.44000000       0.00000000       0.28571429 </v>
   <v>      -0.40000000       0.00000000       0.28571429 </v>
   <v>      -0.36000000       0.00000000       0.28571429 </v>
   <v>      -0.32000000       0.00000000       0.28571429 </v>
   <v>      -0.28000000       0.00000000       0.28571429 </v>
   <v>      -0.24000000       0.00000000       0.28571429 </v>
   <v>      -0.20000000       0.00000000       0.28571429 </v>
   <v>      -0.16000000       0.00000000       0.28571429 </v>
   <v>      -0.12000000       0.00000000       0.28571429 </v>
   <v>      -0.08000000       0.00000000       0.28571429 </v>
   <v>      -0.04000000       0.00000000       0.28571429 </v>
   <v>       0.00000000       0.06666667       0.28571429 </v>
   <v>       0.04000000       0.06666667       0.28571429 </v>
   <v>       0.08000000       0.06666667       0.28571429 </v>
   <v>       0.12000000       0.06666667       0.28571429 </v>
   <v>       0.16000000       0.06666667       0.28571429 </v>
   <v>       0.20000000       0.06666667       0.28571429 </v>
   <v>       0.24000000       0.06666667       0.28571429 </v>
   <v>       0.28000000       0.06666667       0.28571429 </v>
[...]
       <r>    3.6448    1.0000 </r>
       <r>    3.9751    1.0000 </r>
       <r>    4.2419    1.0000 </r>
       <r>    4.4536    1.0000 </r>
       <r>    4.6927    1.0000 </r>
       <r>    4.7673    1.0000 </r>
       <r>    4.8983    1.0000 </r>
       <r>    5.0248    1.0000 </r>
       <r>    5.0976    1.0000 </r>
       <r>    5.3769    1.0000 </r>
       <r>    6.1067    1.0000 </r>
       <r>    6.6669    1.0000 </r>
       <r>    8.1125    0.3957 </r>
       <r>   16.5720    0.0000 </r>
       <r>   17.3762    0.0000 </r>
       <r>   17.6439    0.0000 </r>
       <r>   18.0522    0.0000 </r>
      </set>
      <set comment="kpoint 2416">
       <r>    1.7843    1.0000 </r>
       <r>    2.4331    1.0000 </r>
       <r>    2.5241    1.0000 </r>
       <r>    2.5773    1.0000 </r>
       <r>    2.6541    1.0000 </r>
       <r>    2.7486    1.0000 </r>
       <r>    3.0683    1.0000 </r>
       <r>    3.2381    1.0000 </r>
       <r>    3.3717    1.0000 </r>
       <r>    3.5522    1.0000 </r>
       <r>    3.6162    1.0000 </r>
       <r>    3.7519    1.0000 </r>
       <r>    3.8876    1.0000 </r>
       <r>    4.2121    1.0000 </r>
       <r>    4.4903    1.0000 </r>
       <r>    4.6424    1.0000 </r>
       <r>    4.6757    1.0000 </r>
       <r>    4.8274    1.0000 </r>
       <r>    5.0443    1.0000 </r>
       <r>    5.1013    1.0000 </r>
       <r>    5.2961    1.0000 </r>
       <r>    5.9522    1.0000 </r>
       <r>    6.4422    1.0000 </r>
       <r>    7.6258    1.0277 </r>
       <r>   16.7103    0.0000 </r>
       <r>   17.4150    0.0000 </r>
       <r>   18.0934    0.0000 </r>
       <r>   18.7764    0.0000 </r>
      </set>
      <set comment="kpoint 2417">
       <r>    1.6790    1.0000 </r>
       <r>    2.3500    1.0000 </r>
       <r>    2.4572    1.0000 </r>
       <r>    2.5211    1.0000 </r>
       <r>    2.5544    1.0000 </r>
       <r>    2.6994    1.0000 </r>
       <r>    3.1967    1.0000 </r>
       <r>    3.3621    1.0000 </r>
       <r>    3.4283    1.0000 </r>
       <r>    3.5861    1.0000 </r>
       <r>    3.7855    1.0000 </r>
       <r>    3.8234    1.0000 </r>
       <r>    3.9044    1.0000 </r>
       <r>    4.0778    1.0000 </r>
       <r>    4.4728    1.0000 </r>
       <r>    4.5239    1.0000 </r>
       <r>    4.6476    1.0000 </r>
       <r>    4.7487    1.0000 </r>
       <r>    5.0514    1.0000 </r>
       <r>    5.2090    1.0000 </r>
       <r>    5.2995    1.0000 </r>
       <r>    5.8195    1.0000 </r>
       <r>    6.2561    1.0000 </r>
       <r>    7.1887    1.0001 </r>
       <r>   16.8868    0.0000 </r>
       <r>   17.4052    0.0000 </r>
       <r>   17.9628    0.0000 </r>
       <r>   19.5391    0.0000 </r>
      </set>
      <set comment="kpoint 2418">
       <r>    1.6129    1.0000 </r>
       <r>    2.2890    1.0000 </r>
       <r>    2.3938    1.0000 </r>
       <r>    2.4378    1.0000 </r>
       <r>    2.5444    1.0000 </r>
       <r>    2.6617    1.0000 </r>
       <r>    3.2633    1.0000 </r>
       <r>    3.4027    1.0000 </r>
       <r>    3.5813    1.0000 </r>
       <r>    3.6678    1.0000 </r>
       <r>    3.7904    1.0000 </r>
       <r>    3.9404    1.0000 </r>
       <r>    3.9670    1.0000 </r>
       <r>    4.0422    1.0000 </r>
       <r>    4.3633    1.0000 </r>
       <r>    4.3917    1.0000 </r>
       <r>    4.4659    1.0000 </r>
       <r>    4.8906    1.0000 </r>
       <r>    5.0181    1.0000 </r>
       <r>    5.3072    1.0000 </r>
       <r>    5.4228    1.0000 </r>
       <r>    5.7181    1.0000 </r>
       <r>    6.1012    1.0000 </r>
       <r>    6.8267    1.0000 </r>
       <r>   17.1036    0.0000 </r>
       <r>   17.4299    0.0000 </r>
       <r>   17.8456    0.0000 </r>
       <r>   19.2451    0.0000 </r>
      </set>
     </set>
    </set>
   </array>
  </eigenvalues>
  <separator name="orbital magnetization" >
   <v name="MAGDIPOLOUT">      0.00000000      0.00000000      0.00000000</v>
  </separator>
  <dos>
   <i name="efermi">      8.07523198 </i>
   <total>
    <array>
     <dimension dim="1">gridpoints</dimension>
     <dimension dim="2">spin</dimension>
     <field>energy</field>
     <field>total</field>
     <field>integrated</field>
     <set>
      <set comment="spin 1">
       <r>    -2.9886     0.0000     0.0000 </r>
       <r>    -2.8999     0.0000     0.0000 </r>
       <r>    -2.8112     0.0000     0.0000 </r>
       <r>    -2.7226     0.0000     0.0000 </r>
       <r>    -2.6339     0.0000     0.0000 </r>
       <r>    -2.5452     0.0000     0.0000 </r>
       <r>    -2.4565     0.0000     0.0000 </r>
       <r>    -2.3678     0.0000     0.0000 </r>
       <r>    -2.2792     0.0000     0.0000 </r>
       <r>    -2.1905     0.0000     0.0000 </r>
       <r>    -2.1018     0.0000     0.0000 </r>
       <r>    -2.0131     0.0000     0.0000 </r>
       <r>    -1.9245     0.0000     0.0000 </r>
       <r>    -1.8358     0.0000     0.0000 </r>
       <r>    -1.7471     0.0000     0.0000 </r>
       <r>    -1.6584     0.0000     0.0000 </r>
       <r>    -1.5698     0.0000     0.0000 </r>
       <r>    -1.4811     0.0000     0.0000 </r>
       <r>    -1.3924     0.0000     0.0000 </r>
       <r>    -1.3037     0.0000     0.0000 </r>
       <r>    -1.2150     0.0000     0.0000 </r>
       <r>    -1.1264     0.0000     0.0000 </r>
       <r>    -1.0377     0.0000     0.0000 </r>
       <r>    -0.9490     0.0000     0.0000 </r>
       <r>    -0.8603     0.0000     0.0000 </r>
       <r>    -0.7717     0.0000     0.0000 </r>
       <r>    -0.6830    -0.0001     0.0000 </r>
       <r>    -0.5943    -0.0004    -0.0001 </r>
       <r>    -0.5056    -0.0013    -0.0002 </r>
       <r>    -0.4169    -0.0029    -0.0004 </r>
       <r>    -0.3283    -0.0051    -0.0009 </r>
       <r>    -0.2396    -0.0061    -0.0014 </r>
       <r>    -0.1509    -0.0017    -0.0016 </r>
       <r>    -0.0622     0.0135    -0.0004 </r>
       <r>     0.0264     0.0431     0.0034 </r>
       <r>     0.1151     0.0861     0.0111 </r>
       <r>     0.2038     0.1366     0.0232 </r>
       <r>     0.2925     0.1872     0.0398 </r>
       <r>     0.3811     0.2332     0.0605 </r>
       <r>     0.4698     0.2738     0.0847 </r>
       <r>     0.5585     0.3112     0.1123 </r>
       <r>     0.6472     0.3485     0.1432 </r>
       <r>     0.7359     0.3893     0.1778 </r>
       <r>     0.8245     0.4376     0.2166 </r>
       <r>     0.9132     0.4963     0.2606 </r>
       <r>     1.0019     0.5646     0.3107 </r>
       <r>     1.0906     0.6351     0.3670 </r>
       <r>     1.1792     0.6945     0.4286 </r>
       <r>     1.2679     0.7268     0.4930 </r>
       <r>     1.3566     0.7248     0.5573 </r>
       <r>     1.4453     0.7058     0.6199 </r>
       <r>     1.5339     0.7307     0.6847 </r>
       <r>     1.6226     0.9096     0.7653 </r>
       <r>     1.7113     1.3728     0.8871 </r>
       <r>     1.8000     2.2095     1.0830 </r>
       <r>     1.8887     3.4183     1.3861 </r>
       <r>     1.9773     4.9179     1.8222 </r>
       <r>     2.0660     6.5970     2.4072 </r>
       <r>     2.1547     8.3319     3.1461 </r>
       <r>     2.2434     9.9450     4.0280 </r>
       <r>     2.3320    11.1821     5.0196 </r>
       <r>     2.4207    11.7931     6.0654 </r>
       <r>     2.5094    11.6803     7.1011 </r>
       <r>     2.5981    10.9854     8.0753 </r>
       <r>     2.6868    10.0453     8.9661 </r>
       <r>     2.7754     9.2554     9.7868 </r>
       <r>     2.8641     8.9065    10.5766 </r>
       <r>     2.9528     9.0574    11.3798 </r>
       <r>     3.0415     9.5222    12.2242 </r>
       <r>     3.1301    10.0198    13.1127 </r>
       <r>     3.2188    10.4027    14.0352 </r>
       <r>     3.3075    10.7857    14.9917 </r>
       <r>     3.3962    11.4486    16.0069 </r>
       <r>     3.4848    12.5555    17.1203 </r>
       <r>     3.5735    13.8994    18.3528 </r>
       <r>     3.6622    14.9192    19.6758 </r>
       <r>     3.7509    15.0576    21.0111 </r>
       <r>     3.8396    14.1982    22.2701 </r>
       <r>     3.9282    12.7773    23.4032 </r>
       <r>     4.0169    11.4606    24.4195 </r>
       <r>     4.1056    10.7034    25.3686 </r>
       <r>     4.1943    10.5661    26.3056 </r>
       <r>     4.2829    10.8235    27.2654 </r>
       <r>     4.3716    11.1659    28.2556 </r>
       <r>     4.4603    11.3486    29.2619 </r>
       <r>     4.5490    11.2744    30.2617 </r>
       <r>     4.6376    11.0072    31.2378 </r>
       <r>     4.7263    10.6966    32.1863 </r>
       <r>     4.8150    10.4527    33.1133 </r>
       <r>     4.9037    10.2961    34.0263 </r>
       <r>     4.9924    10.2328    34.9337 </r>
       <r>     5.0810    10.3275    35.8495 </r>
       <r>     5.1697    10.6211    36.7914 </r>
       <r>     5.2584    10.9551    37.7628 </r>
       <r>     5.3471    10.9488    38.7337 </r>
       <r>     5.4357    10.2258    39.6405 </r>
       <r>     5.5244     8.6981    40.4119 </r>
       <r>     5.6131     6.6479    41.0014 </r>
       <r>     5.7018     4.5569    41.4055 </r>
       <r>     5.7905     2.8478    41.6580 </r>
       <r>     5.8791     1.7180    41.8104 </r>
       <r>     5.9678     1.1322    41.9108 </r>
       <r>     6.0565     0.9197    41.9923 </r>
       <r>     6.1452     0.8898    42.0712 </r>
       <r>     6.2338     0.9060    42.1516 </r>
       <r>     6.3225     0.9091    42.2322 </r>
       <r>     6.4112     0.9013    42.3121 </r>
       <r>     6.4999     0.9080    42.3926 </r>
       <r>     6.5885     0.9409    42.4760 </r>
       <r>     6.6772     0.9849    42.5634 </r>
       <r>     6.7659     1.0123    42.6532 </r>
       <r>     6.8546     1.0065    42.7424 </r>
       <r>     6.9433     0.9739    42.8288 </r>
       <r>     7.0319     0.9394    42.9121 </r>
       <r>     7.1206     0.9313    42.9947 </r>
       <r>     7.2093     0.9622    43.0800 </r>
       <r>     7.2980     1.0185    43.1703 </r>
       <r>     7.3866     1.0690    43.2651 </r>
       <r>     7.4753     1.0878    43.3616 </r>
       <r>     7.5640     1.0729    43.4567 </r>
       <r>     7.6527     1.0433    43.5492 </r>
       <r>     7.7413     1.0236    43.6400 </r>
       <r>     7.8300     1.0289    43.7312 </r>
       <r>     7.9187     1.0598    43.8252 </r>
       <r>     8.0074     1.1029    43.9230 </r>
       <r>     8.0961     1.1372    44.0238 </r>
       <r>     8.1847     1.1459    44.1255 </r>
       <r>     8.2734     1.1281    44.2255 </r>
       <r>     8.3621     1.0968    44.3228 </r>
       <r>     8.4508     1.0686    44.4175 </r>
       <r>     8.5394     1.0539    44.5110 </r>
       <r>     8.6281     1.0567    44.6047 </r>
       <r>     8.7168     1.0747    44.7000 </r>
       <r>     8.8055     1.0980    44.7974 </r>
       <r>     8.8942     1.1126    44.8960 </r>
       <r>     8.9828     1.1098    44.9944 </r>
       <r>     9.0715     1.0914    45.0912 </r>
       <r>     9.1602     1.0661    45.1857 </r>
       <r>     9.2489     1.0454    45.2785 </r>
       <r>     9.3375     1.0393    45.3706 </r>
       <r>     9.4262     1.0521    45.4639 </r>
       <r>     9.5149     1.0774    45.5595 </r>
       <r>     9.6036     1.0984    45.6569 </r>
       <r>     9.6922     1.0991    45.7543 </r>
       <r>     9.7809     1.0773    45.8498 </r>
       <r>     9.8696     1.0474    45.9427 </r>
       <r>     9.9583     1.0267    46.0338 </r>
       <r>    10.0470     1.0206    46.1243 </r>
       <r>    10.1356     1.0200    46.2147 </r>
       <r>    10.2243     1.0124    46.3045 </r>
       <r>    10.3130     0.9925    46.3925 </r>
       <r>    10.4017     0.9633    46.4779 </r>
       <r>    10.4903     0.9305    46.5604 </r>
       <r>    10.5790     0.8996    46.6402 </r>
       <r>    10.6677     0.8756    46.7179 </r>
       <r>    10.7564     0.8624    46.7943 </r>
       <r>    10.8450     0.8620    46.8708 </r>
       <r>    10.9337     0.8751    46.9484 </r>
       <r>    11.0224     0.9025    47.0284 </r>
       <r>    11.1111     0.9469    47.1124 </r>
       <r>    11.1998     1.0121    47.2021 </r>
       <r>    11.2884     1.0982    47.2995 </r>
       <r>    11.3771     1.1953    47.4055 </r>
       <r>    11.4658     1.2845    47.5194 </r>
       <r>    11.5545     1.3481    47.6390 </r>
       <r>    11.6431     1.3789    47.7613 </r>
       <r>    11.7318     1.3784    47.8835 </r>
       <r>    11.8205     1.3518    48.0034 </r>
       <r>    11.9092     1.3082    48.1194 </r>
       <r>    11.9979     1.2628    48.2313 </r>
       <r>    12.0865     1.2328    48.3407 </r>
       <r>    12.1752     1.2276    48.4495 </r>
       <r>    12.2639     1.2425    48.5597 </r>
       <r>    12.3526     1.2630    48.6717 </r>
       <r>    12.4412     1.2741    48.7847 </r>
       <r>    12.5299     1.2678    48.8971 </r>
       <r>    12.6186     1.2457    49.0076 </r>
       <r>    12.7073     1.2184    49.1156 </r>
       <r>    12.7959     1.1986    49.2219 </r>
       <r>    12.8846     1.1914    49.3276 </r>
       <r>    12.9733     1.1911    49.4332 </r>
       <r>    13.0620     1.1876    49.5385 </r>
       <r>    13.1507     1.1768    49.6429 </r>
       <r>    13.2393     1.1661    49.7463 </r>
       <r>    13.3280     1.1660    49.8497 </r>
       <r>    13.4167     1.1792    49.9542 </r>
       <r>    13.5054     1.1964    50.0603 </r>
       <r>    13.5940     1.2040    50.1671 </r>
       <r>    13.6827     1.1944    50.2730 </r>
       <r>    13.7714     1.1708    50.3768 </r>
       <r>    13.8601     1.1455    50.4784 </r>
       <r>    13.9487     1.1358    50.5791 </r>
       <r>    14.0374     1.1592    50.6819 </r>
       <r>    14.1261     1.2251    50.7906 </r>
       <r>    14.2148     1.3238    50.9080 </r>
       <r>    14.3035     1.4232    51.0342 </r>
       <r>    14.3921     1.4831    51.1657 </r>
       <r>    14.4808     1.4841    51.2973 </r>
       <r>    14.5695     1.4439    51.4253 </r>
       <r>    14.6582     1.4032    51.5498 </r>
       <r>    14.7468     1.3958    51.6735 </r>
       <r>    14.8355     1.4277    51.8001 </r>
       <r>    14.9242     1.4804    51.9314 </r>
       <r>    15.0129     1.5295    52.0670 </r>
       <r>    15.1016     1.5631    52.2057 </r>
       <r>    15.1902     1.5847    52.3462 </r>
       <r>    15.2789     1.6004    52.4881 </r>
       <r>    15.3676     1.6064    52.6306 </r>
       <r>    15.4563     1.5901    52.7716 </r>
       <r>    15.5449     1.5455    52.9086 </r>
       <r>    15.6336     1.4833    53.0401 </r>
       <r>    15.7223     1.4256    53.1666 </r>
       <r>    15.8110     1.3870    53.2896 </r>
       <r>    15.8996     1.3635    53.4105 </r>
       <r>    15.9883     1.3400    53.5293 </r>
       <r>    16.0770     1.3049    53.6450 </r>
       <r>    16.1657     1.2580    53.7566 </r>
       <r>    16.2544     1.2070    53.8636 </r>
       <r>    16.3430     1.1580    53.9663 </r>
       <r>    16.4317     1.1101    54.0647 </r>
       <r>    16.5204     1.0580    54.1585 </r>
       <r>    16.6091     1.0009    54.2473 </r>
       <r>    16.6977     0.9465    54.3312 </r>
       <r>    16.7864     0.9071    54.4117 </r>
       <r>    16.8751     0.8908    54.4907 </r>
       <r>    16.9638     0.8963    54.5701 </r>
       <r>    17.0524     0.9111    54.6509 </r>
       <r>    17.1411     0.9160    54.7322 </r>
       <r>    17.2298     0.8965    54.8117 </r>
       <r>    17.3185     0.8532    54.8873 </r>
       <r>    17.4072     0.8001    54.9583 </r>
       <r>    17.4958     0.7543    55.0252 </r>
       <r>    17.5845     0.7262    55.0896 </r>
       <r>    17.6732     0.7164    55.1531 </r>
       <r>    17.7619     0.7165    55.2166 </r>
       <r>    17.8505     0.7136    55.2799 </r>
       <r>    17.9392     0.6977    55.3418 </r>
       <r>    18.0279     0.6677    55.4010 </r>
       <r>    18.1166     0.6309    55.4569 </r>
       <r>    18.2053     0.5955    55.5097 </r>
       <r>    18.2939     0.5647    55.5598 </r>
       <r>    18.3826     0.5367    55.6074 </r>
       <r>    18.4713     0.5091    55.6525 </r>
       <r>    18.5600     0.4805    55.6952 </r>
       <r>    18.6486     0.4497    55.7350 </r>
       <r>    18.7373     0.4145    55.7718 </r>
       <r>    18.8260     0.3739    55.8050 </r>
       <r>    18.9147     0.3300    55.8342 </r>
       <r>    19.0033     0.2872    55.8597 </r>
       <r>    19.0920     0.2495    55.8818 </r>
       <r>    19.1807     0.2172    55.9011 </r>
       <r>    19.2694     0.1876    55.9177 </r>
       <r>    19.3581     0.1583    55.9317 </r>
       <r>    19.4467     0.1305    55.9433 </r>
       <r>    19.5354     0.1080    55.9529 </r>
       <r>    19.6241     0.0933    55.9612 </r>
       <r>    19.7128     0.0845    55.9686 </r>
       <r>    19.8014     0.0772    55.9755 </r>
       <r>    19.8901     0.0679    55.9815 </r>
       <r>    19.9788     0.0562    55.9865 </r>
       <r>    20.0675     0.0436    55.9903 </r>
       <r>    20.1561     0.0319    55.9932 </r>
       <r>    20.2448     0.0224    55.9952 </r>
       <r>    20.3335     0.0158    55.9966 </r>
       <r>    20.4222     0.0118    55.9976 </r>
       <r>    20.5109     0.0096    55.9985 </r>
       <r>    20.5995     0.0079    55.9992 </r>
       <r>    20.6882     0.0058    55.9997 </r>
       <r>    20.7769     0.0034    56.0000 </r>
       <r>    20.8656     0.0013    56.0001 </r>
       <r>    20.9542     0.0001    56.0001 </r>
       <r>    21.0429    -0.0004    56.0001 </r>
       <r>    21.1316    -0.0004    56.0000 </r>
       <r>    21.2203    -0.0002    56.0000 </r>
       <r>    21.3090    -0.0001    56.0000 </r>
       <r>    21.3976     0.0000    56.0000 </r>
       <r>    21.4863     0.0000    56.0000 </r>
       <r>    21.5750     0.0000    56.0000 </r>
       <r>    21.6637     0.0000    56.0000 </r>
       <r>    21.7523     0.0000    56.0000 </r>
       <r>    21.8410     0.0000    56.0000 </r>
       <r>    21.9297     0.0000    56.0000 </r>
       <r>    22.0184     0.0000    56.0000 </r>
       <r>    22.1070     0.0000    56.0000 </r>
       <r>    22.1957     0.0000    56.0000 </r>
       <r>    22.2844     0.0000    56.0000 </r>
       <r>    22.3731     0.0000    56.0000 </r>
       <r>    22.4618     0.0000    56.0000 </r>
       <r>    22.5504     0.0000    56.0000 </r>
       <r>    22.6391     0.0000    56.0000 </r>
       <r>    22.7278     0.0000    56.0000 </r>
       <r>    22.8165     0.0000    56.0000 </r>
       <r>    22.9051     0.0000    56.0000 </r>
       <r>    22.9938     0.0000    56.0000 </r>
       <r>    23.0825     0.0000    56.0000 </r>
       <r>    23.1712     0.0000    56.0000 </r>
       <r>    23.2598     0.0000    56.0000 </r>
       <r>    23.3485     0.0000    56.0000 </r>
       <r>    23.4372     0.0000    56.0000 </r>
       <r>    23.5259     0.0000    56.0000 </r>
       <r>    23.6146     0.0000    56.0000 </r>
      </set>
     </set>
    </array>
   </total>
  </dos>
 </calculation>
 <structure name="finalpos" >
  <crystal>
   <varray name="basis" >
    <v>       0.00000000      -2.06513918      -2.06513918 </v>
    <v>      -2.08098099      -2.08067922       4.14581840 </v>
    <v>      -4.15674757       2.07376158      -2.07376158 </v>
   </varray>
   <i name="volume">     71.27393295 </i>
   <varray name="rec_basis" >
    <v>      -0.06008657      -0.30233464      -0.18189422 </v>
    <v>      -0.12017314      -0.12044042       0.12044042 </v>
    <v>      -0.18041076       0.06029575      -0.06029575 </v>
   </varray>
  </crystal>
  <varray name="positions" >
   <v>       0.25072073       0.50144147       0.74995744 </v>
   <v>       0.50000000       0.00000000       0.50000000 </v>
   <v>       0.74927927       0.49855853       0.25004256 </v>
   <v>       0.00000000       0.00000000       0.00000000 </v>
  </varray>
 </structure>
</modeling>
