<?xml version="1.0" encoding="ISO-8859-1"?>
<modeling>
 <generator>
  <i name="program" type="string">vasp </i>
  <i name="version" type="string">5.3.5  </i>
  <i name="subversion" type="string">31Mar14 (build Jun 20 2014 13:15:13) complex                          parallel </i>
  <i name="platform" type="string">LinuxIFC </i>
  <i name="date" type="string">2025 11 27 </i>
  <i name="time" type="string">08:58:39 </i>
 </generator>
 <incar>
  <i type="string" name="PREC">accurate</i>
  <i type="int" name="IALGO">    68</i>
  <i type="logical" name="ADDGRID"> T  </i>
  <i type="int" name="NELM">   200</i>
  <i type="int" name="NELMIN">     4</i>
  <i type="int" name="IBRION">     2</i>
  <i name="EDIFF">      0.00000100</i>
  <i name="EDIFFG">     -0.02000000</i>
  <i type="int" name="NSW">    30</i>
  <i type="int" name="ISIF">     3</i>
  <i name="ENCUT">    500.00000000</i>
  <i type="logical" name="LREAL"> F  </i>
  <i type="int" name="ISMEAR">     1</i>
  <i name="SIGMA">      0.30000000</i>
  <i type="logical" name="LWAVE"> F  </i>
  <i type="logical" name="LCHARG"> F  </i>
  <i type="int" name="NELM">   200</i>
 </incar>
 <kpoints>
  <generation param="Auto">
   <i name="subdivisionlength">     70.00000000 </i>
   <v type="int" name="divisions">      25       20        8 </v>
   <v name="usershift">      0.00000000       0.00000000       0.00000000 </v>
   <v name="genvec1">      0.04000000       0.00000000       0.00000000 </v>
   <v name="genvec2">      0.00000000       0.05000000       0.00000000 </v>
   <v name="genvec3">      0.00000000       0.00000000       0.12500000 </v>
   <v name="shift">      0.00000000       0.00000000       0.00000000 </v>
  </generation>
  <varray name="kpointlist" >
   <v>       0.00000000       0.00000000       0.00000000 </v>
   <v>       0.04000000       0.00000000       0.00000000 </v>
   <v>       0.08000000       0.00000000       0.00000000 </v>
   <v>       0.12000000       0.00000000       0.00000000 </v>
   <v>       0.16000000       0.00000000       0.00000000 </v>
   <v>       0.20000000       0.00000000       0.00000000 </v>
   <v>       0.24000000       0.00000000       0.00000000 </v>
   <v>       0.28000000       0.00000000       0.00000000 </v>
   <v>       0.32000000       0.00000000       0.00000000 </v>
   <v>       0.36000000       0.00000000       0.00000000 </v>
   <v>       0.40000000       0.00000000       0.00000000 </v>
   <v>       0.44000000       0.00000000       0.00000000 </v>
   <v>       0.48000000       0.00000000       0.00000000 </v>
   <v>       0.00000000       0.05000000       0.00000000 </v>
   <v>       0.04000000       0.05000000       0.00000000 </v>
   <v>       0.08000000       0.05000000       0.00000000 </v>
   <v>       0.12000000       0.05000000       0.00000000 </v>
   <v>       0.16000000       0.05000000       0.00000000 </v>
   <v>       0.20000000       0.05000000       0.00000000 </v>
   <v>       0.24000000       0.05000000       0.00000000 </v>
   <v>       0.28000000       0.05000000       0.00000000 </v>
   <v>       0.32000000       0.05000000       0.00000000 </v>
   <v>       0.36000000       0.05000000       0.00000000 </v>
   <v>       0.40000000       0.05000000       0.00000000 </v>
   <v>       0.44000000       0.05000000       0.00000000 </v>
   <v>       0.48000000       0.05000000       0.00000000 </v>
   <v>       0.00000000       0.10000000       0.00000000 </v>
   <v>       0.04000000       0.10000000       0.00000000 </v>
   <v>       0.08000000       0.10000000       0.00000000 </v>
   <v>       0.12000000       0.10000000       0.00000000 </v>
   <v>       0.16000000       0.10000000       0.00000000 </v>
   <v>       0.20000000       0.10000000       0.00000000 </v>
   <v>       0.24000000       0.10000000       0.00000000 </v>
   <v>       0.28000000       0.10000000       0.00000000 </v>
   <v>       0.32000000       0.10000000       0.00000000 </v>
   <v>       0.36000000       0.10000000       0.00000000 </v>
   <v>       0.40000000       0.10000000       0.00000000 </v>
   <v>       0.44000000       0.10000000       0.00000000 </v>
   <v>       0.48000000       0.10000000       0.00000000 </v>
   <v>       0.00000000       0.15000000       0.00000000 </v>
   <v>       0.04000000       0.15000000       0.00000000 </v>
   <v>       0.08000000       0.15000000       0.00000000 </v>
   <v>       0.12000000       0.15000000       0.00000000 </v>
   <v>       0.16000000       0.15000000       0.00000000 </v>
   <v>       0.20000000       0.15000000       0.00000000 </v>
   <v>       0.24000000       0.15000000       0.00000000 </v>
   <v>       0.28000000       0.15000000       0.00000000 </v>
   <v>       0.32000000       0.15000000       0.00000000 </v>
   <v>       0.36000000       0.15000000       0.00000000 </v>
   <v>       0.40000000       0.15000000       0.00000000 </v>
   <v>       0.44000000       0.15000000       0.00000000 </v>
   <v>       0.48000000       0.15000000       0.00000000 </v>
   <v>       0.00000000       0.20000000       0.00000000 </v>
   <v>       0.04000000       0.20000000       0.00000000 </v>
   <v>       0.08000000       0.20000000       0.00000000 </v>
   <v>       0.12000000       0.20000000       0.00000000 </v>
   <v>       0.16000000       0.20000000       0.00000000 </v>
   <v>       0.20000000       0.20000000       0.00000000 </v>
   <v>       0.24000000       0.20000000       0.00000000 </v>
   <v>       0.28000000       0.20000000       0.00000000 </v>
   <v>       0.32000000       0.20000000       0.00000000 </v>
   <v>       0.36000000       0.20000000       0.00000000 </v>
   <v>       0.40000000       0.20000000       0.00000000 </v>
   <v>       0.44000000       0.20000000       0.00000000 </v>
   <v>       0.48000000       0.20000000       0.00000000 </v>
   <v>       0.00000000       0.25000000       0.00000000 </v>
   <v>       0.04000000       0.25000000       0.00000000 </v>
   <v>       0.08000000       0.25000000       0.00000000 </v>
   <v>       0.12000000       0.25000000       0.00000000 </v>
   <v>       0.16000000       0.25000000       0.00000000 </v>
   <v>       0.20000000       0.25000000       0.00000000 </v>
   <v>       0.24000000       0.25000000       0.00000000 </v>
   <v>       0.28000000       0.25000000       0.00000000 </v>
   <v>       0.32000000       0.25000000       0.00000000 </v>
   <v>       0.36000000       0.25000000       0.00000000 </v>
   <v>       0.40000000       0.25000000       0.00000000 </v>
   <v>       0.44000000       0.25000000       0.00000000 </v>
   <v>       0.48000000       0.25000000       0.00000000 </v>
   <v>       0.00000000       0.30000000       0.00000000 </v>
   <v>       0.04000000       0.30000000       0.00000000 </v>
   <v>       0.08000000       0.30000000       0.00000000 </v>
   <v>       0.12000000       0.30000000       0.00000000 </v>
   <v>       0.16000000       0.30000000       0.00000000 </v>
   <v>       0.20000000       0.30000000       0.00000000 </v>
   <v>       0.24000000       0.30000000       0.00000000 </v>
   <v>       0.28000000       0.30000000       0.00000000 </v>
   <v>       0.32000000       0.30000000       0.00000000 </v>
   <v>       0.36000000       0.30000000       0.00000000 </v>
   <v>       0.40000000       0.30000000       0.00000000 </v>
   <v>       0.44000000       0.30000000       0.00000000 </v>
   <v>       0.48000000       0.30000000       0.00000000 </v>
   <v>       0.00000000       0.35000000       0.00000000 </v>
   <v>       0.04000000       0.35000000       0.00000000 </v>
   <v>       0.08000000       0.35000000       0.00000000 </v>
   <v>       0.12000000       0.35000000       0.00000000 </v>
   <v>       0.16000000       0.35000000       0.00000000 </v>
   <v>       0.20000000       0.35000000       0.00000000 </v>
   <v>       0.24000000       0.35000000       0.00000000 </v>
   <v>       0.28000000       0.35000000       0.00000000 </v>
   <v>       0.32000000       0.35000000       0.00000000 </v>
   <v>       0.36000000       0.35000000       0.00000000 </v>
   <v>       0.40000000       0.35000000       0.00000000 </v>
   <v>       0.44000000       0.35000000       0.00000000 </v>
   <v>       0.48000000       0.35000000       0.00000000 </v>
   <v>       0.00000000       0.40000000       0.00000000 </v>
   <v>       0.04000000       0.40000000       0.00000000 </v>
   <v>       0.08000000       0.40000000       0.00000000 </v>
   <v>       0.12000000       0.40000000       0.00000000 </v>
   <v>       0.16000000       0.40000000       0.00000000 </v>
   <v>       0.20000000       0.40000000       0.00000000 </v>
   <v>       0.24000000       0.40000000       0.00000000 </v>
   <v>       0.28000000       0.40000000       0.00000000 </v>
   <v>       0.32000000       0.40000000       0.00000000 </v>
   <v>       0.36000000       0.40000000       0.00000000 </v>
   <v>       0.40000000       0.40000000       0.00000000 </v>
   <v>       0.44000000       0.40000000       0.00000000 </v>
   <v>       0.48000000       0.40000000       0.00000000 </v>
   <v>       0.00000000       0.45000000       0.00000000 </v>
   <v>       0.04000000       0.45000000       0.00000000 </v>
   <v>       0.08000000       0.45000000       0.00000000 </v>
   <v>       0.12000000       0.45000000       0.00000000 </v>
   <v>       0.16000000       0.45000000       0.00000000 </v>
   <v>       0.20000000       0.45000000       0.00000000 </v>
   <v>       0.24000000       0.45000000       0.00000000 </v>
   <v>       0.28000000       0.45000000       0.00000000 </v>
   <v>       0.32000000       0.45000000       0.00000000 </v>
   <v>       0.36000000       0.45000000       0.00000000 </v>
   <v>       0.40000000       0.45000000       0.00000000 </v>
   <v>       0.44000000       0.45000000       0.00000000 </v>
   <v>       0.48000000       0.45000000       0.00000000 </v>
   <v>       0.00000000       0.50000000       0.00000000 </v>
   <v>       0.04000000       0.50000000       0.00000000 </v>
   <v>       0.08000000       0.50000000       0.00000000 </v>
   <v>       0.12000000       0.50000000       0.00000000 </v>
   <v>       0.16000000       0.50000000       0.00000000 </v>
   <v>       0.20000000       0.50000000       0.00000000 </v>
   <v>       0.24000000       0.50000000       0.00000000 </v>
   <v>       0.28000000       0.50000000       0.00000000 </v>
   <v>       0.32000000       0.50000000       0.00000000 </v>
   <v>       0.36000000       0.50000000       0.00000000 </v>
   <v>       0.40000000       0.50000000       0.00000000 </v>
   <v>       0.44000000       0.50000000       0.00000000 </v>
   <v>       0.48000000       0.50000000       0.00000000 </v>
   <v>       0.00000000       0.00000000       0.12500000 </v>
   <v>       0.04000000       0.00000000       0.12500000 </v>
   <v>       0.08000000       0.00000000       0.12500000 </v>
   <v>       0.12000000       0.00000000       0.12500000 </v>
   <v>       0.16000000       0.00000000       0.12500000 </v>
   <v>       0.20000000       0.00000000       0.12500000 </v>
   <v>       0.24000000       0.00000000       0.12500000 </v>
   <v>       0.28000000       0.00000000       0.12500000 </v>
   <v>       0.32000000       0.00000000       0.12500000 </v>
   <v>       0.36000000       0.00000000       0.12500000 </v>
   <v>       0.40000000       0.00000000       0.12500000 </v>
   <v>       0.44000000       0.00000000       0.12500000 </v>
   <v>       0.48000000       0.00000000       0.12500000 </v>
   <v>       0.00000000       0.05000000       0.12500000 </v>
   <v>       0.04000000       0.05000000       0.12500000 </v>
   <v>       0.08000000       0.05000000       0.12500000 </v>
   <v>       0.12000000       0.05000000       0.12500000 </v>
   <v>       0.16000000       0.05000000       0.12500000 </v>
   <v>       0.20000000       0.05000000       0.12500000 </v>
   <v>       0.24000000       0.05000000       0.12500000 </v>
   <v>       0.28000000       0.05000000       0.12500000 </v>
   <v>       0.32000000       0.05000000       0.12500000 </v>
   <v>       0.36000000       0.05000000       0.12500000 </v>
   <v>       0.40000000       0.05000000       0.12500000 </v>
   <v>       0.44000000       0.05000000       0.12500000 </v>
   <v>       0.48000000       0.05000000       0.12500000 </v>
   <v>       0.00000000       0.10000000       0.12500000 </v>
   <v>       0.04000000       0.10000000       0.12500000 </v>
   <v>       0.08000000       0.10000000       0.12500000 </v>
   <v>       0.12000000       0.10000000       0.12500000 </v>
   <v>       0.16000000       0.10000000       0.12500000 </v>
   <v>       0.20000000       0.10000000       0.12500000 </v>
   <v>       0.24000000       0.10000000       0.12500000 </v>
   <v>       0.28000000       0.10000000       0.12500000 </v>
   <v>       0.32000000       0.10000000       0.12500000 </v>
   <v>       0.36000000       0.10000000       0.12500000 </v>
   <v>       0.40000000       0.10000000       0.12500000 </v>
   <v>       0.44000000       0.10000000       0.12500000 </v>
   <v>       0.48000000       0.10000000       0.12500000 </v>
   <v>       0.00000000       0.15000000       0.12500000 </v>
   <v>       0.04000000       0.15000000       0.12500000 </v>
   <v>       0.08000000       0.15000000       0.12500000 </v>
   <v>       0.12000000       0.15000000       0.12500000 </v>
   <v>       0.16000000       0.15000000       0.12500000 </v>
   <v>       0.20000000       0.15000000       0.12500000 </v>
   <v>       0.24000000       0.15000000       0.12500000 </v>
   <v>       0.28000000       0.15000000       0.12500000 </v>
   <v>       0.32000000       0.15000000       0.12500000 </v>
   <v>       0.36000000       0.15000000       0.12500000 </v>
   <v>       0.40000000       0.15000000       0.12500000 </v>
   <v>       0.44000000       0.15000000       0.12500000 </v>
   <v>       0.48000000       0.15000000       0.12500000 </v>
   <v>       0.00000000       0.20000000       0.12500000 </v>
   <v>       0.04000000       0.20000000       0.12500000 </v>
   <v>       0.08000000       0.20000000       0.12500000 </v>
   <v>       0.12000000       0.20000000       0.12500000 </v>
   <v>       0.16000000       0.20000000       0.12500000 </v>
   <v>       0.20000000       0.20000000       0.12500000 </v>
   <v>       0.24000000       0.20000000       0.12500000 </v>
   <v>       0.28000000       0.20000000       0.12500000 </v>
   <v>       0.32000000       0.20000000       0.12500000 </v>
   <v>       0.36000000       0.20000000       0.12500000 </v>
   <v>       0.40000000       0.20000000       0.12500000 </v>
   <v>       0.44000000       0.20000000       0.12500000 </v>
   <v>       0.48000000       0.20000000       0.12500000 </v>
   <v>       0.00000000       0.25000000       0.12500000 </v>
   <v>       0.04000000       0.25000000       0.12500000 </v>
   <v>       0.08000000       0.25000000       0.12500000 </v>
   <v>       0.12000000       0.25000000       0.12500000 </v>
   <v>       0.16000000       0.25000000       0.12500000 </v>
   <v>       0.20000000       0.25000000       0.12500000 </v>
   <v>       0.24000000       0.25000000       0.12500000 </v>
   <v>       0.28000000       0.25000000       0.12500000 </v>
   <v>       0.32000000       0.25000000       0.12500000 </v>
   <v>       0.36000000       0.25000000       0.12500000 </v>
   <v>       0.40000000       0.25000000       0.12500000 </v>
   <v>       0.44000000       0.25000000       0.12500000 </v>
   <v>       0.48000000       0.25000000       0.12500000 </v>
   <v>       0.00000000       0.30000000       0.12500000 </v>
   <v>       0.04000000       0.30000000       0.12500000 </v>
   <v>       0.08000000       0.30000000       0.12500000 </v>
   <v>       0.12000000       0.30000000       0.12500000 </v>
   <v>       0.16000000       0.30000000       0.12500000 </v>
   <v>       0.20000000       0.30000000       0.12500000 </v>
   <v>       0.24000000       0.30000000       0.12500000 </v>
   <v>       0.28000000       0.30000000       0.12500000 </v>
   <v>       0.32000000       0.30000000       0.12500000 </v>
   <v>       0.36000000       0.30000000       0.12500000 </v>
   <v>       0.40000000       0.30000000       0.12500000 </v>
   <v>       0.44000000       0.30000000       0.12500000 </v>
   <v>       0.48000000       0.30000000       0.12500000 </v>
   <v>       0.00000000       0.35000000       0.12500000 </v>
   <v>       0.04000000       0.35000000       0.12500000 </v>
   <v>       0.08000000       0.35000000       0.12500000 </v>
   <v>       0.12000000       0.35000000       0.12500000 </v>
   <v>       0.16000000       0.35000000       0.12500000 </v>
   <v>       0.20000000       0.35000000       0.12500000 </v>
   <v>       0.24000000       0.35000000       0.12500000 </v>
   <v>       0.28000000       0.35000000       0.12500000 </v>
   <v>       0.32000000       0.35000000       0.12500000 </v>
   <v>       0.36000000       0.35000000       0.12500000 </v>
   <v>       0.40000000       0.35000000       0.12500000 </v>
   <v>       0.44000000       0.35000000       0.12500000 </v>
   <v>       0.48000000       0.35000000       0.12500000 </v>
   <v>       0.00000000       0.40000000       0.12500000 </v>
   <v>       0.04000000       0.40000000       0.12500000 </v>
   <v>       0.08000000       0.40000000       0.12500000 </v>
   <v>       0.12000000       0.40000000       0.12500000 </v>
   <v>       0.16000000       0.40000000       0.12500000 </v>
   <v>       0.20000000       0.40000000       0.12500000 </v>
   <v>       0.24000000       0.40000000       0.12500000 </v>
   <v>       0.28000000       0.40000000       0.12500000 </v>
   <v>       0.32000000       0.40000000       0.12500000 </v>
   <v>       0.36000000       0.40000000       0.12500000 </v>
   <v>       0.40000000       0.40000000       0.12500000 </v>
   <v>       0.44000000       0.40000000       0.12500000 </v>
   <v>       0.48000000       0.40000000       0.12500000 </v>
   <v>       0.00000000       0.45000000       0.12500000 </v>
   <v>       0.04000000       0.45000000       0.12500000 </v>
   <v>       0.08000000       0.45000000       0.12500000 </v>
   <v>       0.12000000       0.45000000       0.12500000 </v>
   <v>       0.16000000       0.45000000       0.12500000 </v>
   <v>       0.20000000       0.45000000       0.12500000 </v>
   <v>       0.24000000       0.45000000       0.12500000 </v>
   <v>       0.28000000       0.45000000       0.12500000 </v>
   <v>       0.32000000       0.45000000       0.12500000 </v>
   <v>       0.36000000       0.45000000       0.12500000 </v>
   <v>       0.40000000       0.45000000       0.12500000 </v>
   <v>       0.44000000       0.45000000       0.12500000 </v>
   <v>       0.48000000       0.45000000       0.12500000 </v>
   <v>       0.00000000       0.50000000       0.12500000 </v>
   <v>       0.04000000       0.50000000       0.12500000 </v>
   <v>       0.08000000       0.50000000       0.12500000 </v>
   <v>       0.12000000       0.50000000       0.12500000 </v>
   <v>       0.16000000       0.50000000       0.12500000 </v>
   <v>       0.20000000       0.50000000       0.12500000 </v>
   <v>       0.24000000       0.50000000       0.12500000 </v>
   <v>       0.28000000       0.50000000       0.12500000 </v>
   <v>       0.32000000       0.50000000       0.12500000 </v>
   <v>       0.36000000       0.50000000       0.12500000 </v>
   <v>       0.40000000       0.50000000       0.12500000 </v>
   <v>       0.44000000       0.50000000       0.12500000 </v>
   <v>       0.48000000       0.50000000       0.12500000 </v>
   <v>       0.00000000       0.00000000       0.25000000 </v>
   <v>       0.04000000       0.00000000       0.25000000 </v>
   <v>       0.08000000       0.00000000       0.25000000 </v>
   <v>       0.12000000       0.00000000       0.25000000 </v>
   <v>       0.16000000       0.00000000       0.25000000 </v>
   <v>       0.20000000       0.00000000       0.25000000 </v>
   <v>       0.24000000       0.00000000       0.25000000 </v>
   <v>       0.28000000       0.00000000       0.25000000 </v>
   <v>       0.32000000       0.00000000       0.25000000 </v>
   <v>       0.36000000       0.00000000       0.25000000 </v>
   <v>       0.40000000       0.00000000       0.25000000 </v>
   <v>       0.44000000       0.00000000       0.25000000 </v>
   <v>       0.48000000       0.00000000       0.25000000 </v>
   <v>       0.00000000       0.05000000       0.25000000 </v>
   <v>       0.04000000       0.05000000       0.25000000 </v>
   <v>       0.08000000       0.05000000       0.25000000 </v>
   <v>       0.12000000       0.05000000       0.25000000 </v>
   <v>       0.16000000       0.05000000       0.25000000 </v>
   <v>       0.20000000       0.05000000       0.25000000 </v>
   <v>       0.24000000       0.05000000       0.25000000 </v>
   <v>       0.28000000       0.05000000       0.25000000 </v>
   <v>       0.32000000       0.05000000       0.25000000 </v>
   <v>       0.36000000       0.05000000       0.25000000 </v>
   <v>       0.40000000       0.05000000       0.25000000 </v>
   <v>       0.44000000       0.05000000       0.25000000 </v>
   <v>       0.48000000       0.05000000       0.25000000 </v>
   <v>       0.00000000       0.10000000       0.25000000 </v>
   <v>       0.04000000       0.10000000       0.25000000 </v>
   <v>       0.08000000       0.10000000       0.25000000 </v>
   <v>       0.12000000       0.10000000       0.25000000 </v>
   <v>       0.16000000       0.10000000       0.25000000 </v>
   <v>       0.20000000       0.10000000       0.25000000 </v>
   <v>       0.24000000       0.10000000       0.25000000 </v>
   <v>       0.28000000       0.10000000       0.25000000 </v>
   <v>       0.32000000       0.10000000       0.25000000 </v>
   <v>       0.36000000       0.10000000       0.25000000 </v>
   <v>       0.40000000       0.10000000       0.25000000 </v>
   <v>       0.44000000       0.10000000       0.25000000 </v>
   <v>       0.48000000       0.10000000       0.25000000 </v>
   <v>       0.00000000       0.15000000       0.25000000 </v>
   <v>       0.04000000       0.15000000       0.25000000 </v>
   <v>       0.08000000       0.15000000       0.25000000 </v>
   <v>       0.12000000       0.15000000       0.25000000 </v>
   <v>       0.16000000       0.15000000       0.25000000 </v>
   <v>       0.20000000       0.15000000       0.25000000 </v>
   <v>       0.24000000       0.15000000       0.25000000 </v>
   <v>       0.28000000       0.15000000       0.25000000 </v>
   <v>       0.32000000       0.15000000       0.25000000 </v>
   <v>       0.36000000       0.15000000       0.25000000 </v>
   <v>       0.40000000       0.15000000       0.25000000 </v>
   <v>       0.44000000       0.15000000       0.25000000 </v>
   <v>       0.48000000       0.15000000       0.25000000 </v>
   <v>       0.00000000       0.20000000       0.25000000 </v>
   <v>       0.04000000       0.20000000       0.25000000 </v>
   <v>       0.08000000       0.20000000       0.25000000 </v>
   <v>       0.12000000       0.20000000       0.25000000 </v>
   <v>       0.16000000       0.20000000       0.25000000 </v>
   <v>       0.20000000       0.20000000       0.25000000 </v>
   <v>       0.24000000       0.20000000       0.25000000 </v>
   <v>       0.28000000       0.20000000       0.25000000 </v>
   <v>       0.32000000       0.20000000       0.25000000 </v>
   <v>       0.36000000       0.20000000       0.25000000 </v>
   <v>       0.40000000       0.20000000       0.25000000 </v>
   <v>       0.44000000       0.20000000       0.25000000 </v>
   <v>       0.48000000       0.20000000       0.25000000 </v>
   <v>       0.00000000       0.25000000       0.25000000 </v>
   <v>       0.04000000       0.25000000       0.25000000 </v>
   <v>       0.08000000       0.25000000       0.25000000 </v>
   <v>       0.12000000       0.25000000       0.25000000 </v>
   <v>       0.16000000       0.25000000       0.25000000 </v>
   <v>       0.20000000       0.25000000       0.25000000 </v>
   <v>       0.24000000       0.25000000       0.25000000 </v>
   <v>       0.28000000       0.25000000       0.25000000 </v>
   <v>       0.32000000       0.25000000       0.25000000 </v>
   <v>       0.36000000       0.25000000       0.25000000 </v>
   <v>       0.40000000       0.25000000       0.25000000 </v>
   <v>       0.44000000       0.25000000       0.25000000 </v>
   <v>       0.48000000       0.25000000       0.25000000 </v>
   <v>       0.00000000       0.30000000       0.25000000 </v>
   <v>       0.04000000       0.30000000       0.25000000 </v>
   <v>       0.08000000       0.30000000       0.25000000 </v>
   <v>       0.12000000       0.30000000       0.25000000 </v>
   <v>       0.16000000       0.30000000       0.25000000 </v>
   <v>       0.20000000       0.30000000       0.25000000 </v>
   <v>       0.24000000       0.30000000       0.25000000 </v>
   <v>       0.28000000       0.30000000       0.25000000 </v>
   <v>       0.32000000       0.30000000       0.25000000 </v>
   <v>       0.36000000       0.30000000       0.25000000 </v>
   <v>       0.40000000       0.30000000       0.25000000 </v>
   <v>       0.44000000       0.30000000       0.25000000 </v>
   <v>       0.48000000       0.30000000       0.25000000 </v>
   <v>       0.00000000       0.35000000       0.25000000 </v>
   <v>       0.04000000       0.35000000       0.25000000 </v>
   <v>       0.08000000       0.35000000       0.25000000 </v>
   <v>       0.12000000       0.35000000       0.25000000 </v>
   <v>       0.16000000       0.35000000       0.25000000 </v>
   <v>       0.20000000       0.35000000       0.25000000 </v>
   <v>       0.24000000       0.35000000       0.25000000 </v>
   <v>       0.28000000       0.35000000       0.25000000 </v>
   <v>       0.32000000       0.35000000       0.25000000 </v>
   <v>       0.36000000       0.35000000       0.25000000 </v>
   <v>       0.40000000       0.35000000       0.25000000 </v>
   <v>       0.44000000       0.35000000       0.25000000 </v>
   <v>       0.48000000       0.35000000       0.25000000 </v>
   <v>       0.00000000       0.40000000       0.25000000 </v>
   <v>       0.04000000       0.40000000       0.25000000 </v>
   <v>       0.08000000       0.40000000       0.25000000 </v>
   <v>       0.12000000       0.40000000       0.25000000 </v>
   <v>       0.16000000       0.40000000       0.25000000 </v>
   <v>       0.20000000       0.40000000       0.25000000 </v>
   <v>       0.24000000       0.40000000       0.25000000 </v>
   <v>       0.28000000       0.40000000       0.25000000 </v>
   <v>       0.32000000       0.40000000       0.25000000 </v>
   <v>       0.36000000       0.40000000       0.25000000 </v>
   <v>       0.40000000       0.40000000       0.25000000 </v>
   <v>       0.44000000       0.40000000       0.25000000 </v>
   <v>       0.48000000       0.40000000       0.25000000 </v>
   <v>       0.00000000       0.45000000       0.25000000 </v>
   <v>       0.04000000       0.45000000       0.25000000 </v>
   <v>       0.08000000       0.45000000       0.25000000 </v>
   <v>       0.12000000       0.45000000       0.25000000 </v>
   <v>       0.16000000       0.45000000       0.25000000 </v>
   <v>       0.20000000       0.45000000       0.25000000 </v>
   <v>       0.24000000       0.45000000       0.25000000 </v>
   <v>       0.28000000       0.45000000       0.25000000 </v>
   <v>       0.32000000       0.45000000       0.25000000 </v>
   <v>       0.36000000       0.45000000       0.25000000 </v>
   <v>       0.40000000       0.45000000       0.25000000 </v>
   <v>       0.44000000       0.45000000       0.25000000 </v>
   <v>       0.48000000       0.45000000       0.25000000 </v>
   <v>       0.00000000       0.50000000       0.25000000 </v>
   <v>       0.04000000       0.50000000       0.25000000 </v>
   <v>       0.08000000       0.50000000       0.25000000 </v>
   <v>       0.12000000       0.50000000       0.25000000 </v>
   <v>       0.16000000       0.50000000       0.25000000 </v>
   <v>       0.20000000       0.50000000       0.25000000 </v>
   <v>       0.24000000       0.50000000       0.25000000 </v>
   <v>       0.28000000       0.50000000       0.25000000 </v>
   <v>       0.32000000       0.50000000       0.25000000 </v>
   <v>       0.36000000       0.50000000       0.25000000 </v>
   <v>       0.40000000       0.50000000       0.25000000 </v>
   <v>       0.44000000       0.50000000       0.25000000 </v>
   <v>       0.48000000       0.50000000       0.25000000 </v>
   <v>       0.00000000       0.00000000       0.37500000 </v>
   <v>       0.04000000       0.00000000       0.37500000 </v>
   <v>       0.08000000       0.00000000       0.37500000 </v>
   <v>       0.12000000       0.00000000       0.37500000 </v>
   <v>       0.16000000       0.00000000       0.37500000 </v>
   <v>       0.20000000       0.00000000       0.37500000 </v>
   <v>       0.24000000       0.00000000       0.37500000 </v>
   <v>       0.28000000       0.00000000       0.37500000 </v>
   <v>       0.32000000       0.00000000       0.37500000 </v>
   <v>       0.36000000       0.00000000       0.37500000 </v>
   <v>       0.40000000       0.00000000       0.37500000 </v>
   <v>       0.44000000       0.00000000       0.37500000 </v>
   <v>       0.48000000       0.00000000       0.37500000 </v>
   <v>       0.00000000       0.05000000       0.37500000 </v>
   <v>       0.04000000       0.05000000       0.37500000 </v>
   <v>       0.08000000       0.05000000       0.37500000 </v>
   <v>       0.12000000       0.05000000       0.37500000 </v>
   <v>       0.16000000       0.05000000       0.37500000 </v>
   <v>       0.20000000       0.05000000       0.37500000 </v>
   <v>       0.24000000       0.05000000       0.37500000 </v>
   <v>       0.28000000       0.05000000       0.37500000 </v>
   <v>       0.32000000       0.05000000       0.37500000 </v>
   <v>       0.36000000       0.05000000       0.37500000 </v>
   <v>       0.40000000       0.05000000       0.37500000 </v>
   <v>       0.44000000       0.05000000       0.37500000 </v>
   <v>       0.48000000       0.05000000       0.37500000 </v>
   <v>       0.00000000       0.10000000       0.37500000 </v>
   <v>       0.04000000       0.10000000       0.37500000 </v>
   <v>       0.08000000       0.10000000       0.37500000 </v>
   <v>       0.12000000       0.10000000       0.37500000 </v>
   <v>       0.16000000       0.10000000       0.37500000 </v>
   <v>       0.20000000       0.10000000       0.37500000 </v>
   <v>       0.24000000       0.10000000       0.37500000 </v>
   <v>       0.28000000       0.10000000       0.37500000 </v>
   <v>       0.32000000       0.10000000       0.37500000 </v>
   <v>       0.36000000       0.10000000       0.37500000 </v>
   <v>       0.40000000       0.10000000       0.37500000 </v>
   <v>       0.44000000       0.10000000       0.37500000 </v>
   <v>       0.48000000       0.10000000       0.37500000 </v>
   <v>       0.00000000       0.15000000       0.37500000 </v>
   <v>       0.04000000       0.15000000       0.37500000 </v>
   <v>       0.08000000       0.15000000       0.37500000 </v>
   <v>       0.12000000       0.15000000       0.37500000 </v>
   <v>       0.16000000       0.15000000       0.37500000 </v>
   <v>       0.20000000       0.15000000       0.37500000 </v>
   <v>       0.24000000       0.15000000       0.37500000 </v>
   <v>       0.28000000       0.15000000       0.37500000 </v>
   <v>       0.32000000       0.15000000       0.37500000 </v>
   <v>       0.36000000       0.15000000       0.37500000 </v>
   <v>       0.40000000       0.15000000       0.37500000 </v>
   <v>       0.44000000       0.15000000       0.37500000 </v>
   <v>       0.48000000       0.15000000       0.37500000 </v>
   <v>       0.00000000       0.20000000       0.37500000 </v>
   <v>       0.04000000       0.20000000       0.37500000 </v>
   <v>       0.08000000       0.20000000       0.37500000 </v>
   <v>       0.12000000       0.20000000       0.37500000 </v>
   <v>       0.16000000       0.20000000       0.37500000 </v>
   <v>       0.20000000       0.20000000       0.37500000 </v>
   <v>       0.24000000       0.20000000       0.37500000 </v>
   <v>       0.28000000       0.20000000       0.37500000 </v>
   <v>       0.32000000       0.20000000       0.37500000 </v>
   <v>       0.36000000       0.20000000       0.37500000 </v>
   <v>       0.40000000       0.20000000       0.37500000 </v>
   <v>       0.44000000       0.20000000       0.37500000 </v>
   <v>       0.48000000       0.20000000       0.37500000 </v>
   <v>       0.00000000       0.25000000       0.37500000 </v>
   <v>       0.04000000       0.25000000       0.37500000 </v>
   <v>       0.08000000       0.25000000       0.37500000 </v>
   <v>       0.12000000       0.25000000       0.37500000 </v>
   <v>       0.16000000       0.25000000       0.37500000 </v>
   <v>       0.20000000       0.25000000       0.37500000 </v>
   <v>       0.24000000       0.25000000       0.37500000 </v>
   <v>       0.28000000       0.25000000       0.37500000 </v>
   <v>       0.32000000       0.25000000       0.37500000 </v>
   <v>       0.36000000       0.25000000       0.37500000 </v>
   <v>       0.40000000       0.25000000       0.37500000 </v>
   <v>       0.44000000       0.25000000       0.37500000 </v>
   <v>       0.48000000       0.25000000       0.37500000 </v>
   <v>       0.00000000       0.30000000       0.37500000 </v>
   <v>       0.04000000       0.30000000       0.37500000 </v>
   <v>       0.08000000       0.30000000       0.37500000 </v>
   <v>       0.12000000       0.30000000       0.37500000 </v>
   <v>       0.16000000       0.30000000       0.37500000 </v>
   <v>       0.20000000       0.30000000       0.37500000 </v>
   <v>       0.24000000       0.30000000       0.37500000 </v>
   <v>       0.28000000       0.30000000       0.37500000 </v>
   <v>       0.32000000       0.30000000       0.37500000 </v>
   <v>       0.36000000       0.30000000       0.37500000 </v>
   <v>       0.40000000       0.30000000       0.37500000 </v>
   <v>       0.44000000       0.30000000       0.37500000 </v>
   <v>       0.48000000       0.30000000       0.37500000 </v>
   <v>       0.00000000       0.35000000       0.37500000 </v>
   <v>       0.04000000       0.35000000       0.37500000 </v>
   <v>       0.08000000       0.35000000       0.37500000 </v>
   <v>       0.12000000       0.35000000       0.37500000 </v>
   <v>       0.16000000       0.35000000       0.37500000 </v>
   <v>       0.20000000       0.35000000       0.37500000 </v>
   <v>       0.24000000       0.35000000       0.37500000 </v>
   <v>       0.28000000       0.35000000       0.37500000 </v>
   <v>       0.32000000       0.35000000       0.37500000 </v>
   <v>       0.36000000       0.35000000       0.37500000 </v>
   <v>       0.40000000       0.35000000       0.37500000 </v>
   <v>       0.44000000       0.35000000       0.37500000 </v>
   <v>       0.48000000       0.35000000       0.37500000 </v>
   <v>       0.00000000       0.40000000       0.37500000 </v>
   <v>       0.04000000       0.40000000       0.37500000 </v>
   <v>       0.08000000       0.40000000       0.37500000 </v>
   <v>       0.12000000       0.40000000       0.37500000 </v>
   <v>       0.16000000       0.40000000       0.37500000 </v>
   <v>       0.20000000       0.40000000       0.37500000 </v>
   <v>       0.24000000       0.40000000       0.37500000 </v>
   <v>       0.28000000       0.40000000       0.37500000 </v>
   <v>       0.32000000       0.40000000       0.37500000 </v>
   <v>       0.36000000       0.40000000       0.37500000 </v>
   <v>       0.40000000       0.40000000       0.37500000 </v>
   <v>       0.44000000       0.40000000       0.37500000 </v>
   <v>       0.48000000       0.40000000       0.37500000 </v>
   <v>       0.00000000       0.45000000       0.37500000 </v>
   <v>       0.04000000       0.45000000       0.37500000 </v>
   <v>       0.08000000       0.45000000       0.37500000 </v>
   <v>       0.12000000       0.45000000       0.37500000 </v>
   <v>       0.16000000       0.45000000       0.37500000 </v>
   <v>       0.20000000       0.45000000       0.37500000 </v>
   <v>       0.24000000       0.45000000       0.37500000 </v>
   <v>       0.28000000       0.45000000       0.37500000 </v>
   <v>       0.32000000       0.45000000       0.37500000 </v>
   <v>       0.36000000       0.45000000       0.37500000 </v>
   <v>       0.40000000       0.45000000       0.37500000 </v>
   <v>       0.44000000       0.45000000       0.37500000 </v>
   <v>       0.48000000       0.45000000       0.37500000 </v>
   <v>       0.00000000       0.50000000       0.37500000 </v>
   <v>       0.04000000       0.50000000       0.37500000 </v>
   <v>       0.08000000       0.50000000       0.37500000 </v>
   <v>       0.12000000       0.50000000       0.37500000 </v>
   <v>       0.16000000       0.50000000       0.37500000 </v>
   <v>       0.20000000       0.50000000       0.37500000 </v>
   <v>       0.24000000       0.50000000       0.37500000 </v>
   <v>       0.28000000       0.50000000       0.37500000 </v>
   <v>       0.32000000       0.50000000       0.37500000 </v>
   <v>       0.36000000       0.50000000       0.37500000 </v>
   <v>       0.40000000       0.50000000       0.37500000 </v>
   <v>       0.44000000       0.50000000       0.37500000 </v>
   <v>       0.48000000       0.50000000       0.37500000 </v>
   <v>       0.00000000       0.00000000       0.50000000 </v>
   <v>       0.04000000       0.00000000       0.50000000 </v>
   <v>       0.08000000       0.00000000       0.50000000 </v>
   <v>       0.12000000       0.00000000       0.50000000 </v>
   <v>       0.16000000       0.00000000       0.50000000 </v>
   <v>       0.20000000       0.00000000       0.50000000 </v>
   <v>       0.24000000       0.00000000       0.50000000 </v>
   <v>       0.28000000       0.00000000       0.50000000 </v>
   <v>       0.32000000       0.00000000       0.50000000 </v>
   <v>       0.36000000       0.00000000       0.50000000 </v>
   <v>       0.40000000       0.00000000       0.50000000 </v>
   <v>       0.44000000       0.00000000       0.50000000 </v>
   <v>       0.48000000       0.00000000       0.50000000 </v>
   <v>       0.00000000       0.05000000       0.50000000 </v>
   <v>       0.04000000       0.05000000       0.50000000 </v>
   <v>       0.08000000       0.05000000       0.50000000 </v>
   <v>       0.12000000       0.05000000       0.50000000 </v>
   <v>       0.16000000       0.05000000       0.50000000 </v>
   <v>       0.20000000       0.05000000       0.50000000 </v>
   <v>       0.24000000       0.05000000       0.50000000 </v>
   <v>       0.28000000       0.05000000       0.50000000 </v>
   <v>       0.32000000       0.05000000       0.50000000 </v>
   <v>       0.36000000       0.05000000       0.50000000 </v>
   <v>       0.40000000       0.05000000       0.50000000 </v>
   <v>       0.44000000       0.05000000       0.50000000 </v>
   <v>       0.48000000       0.05000000       0.50000000 </v>
   <v>       0.00000000       0.10000000       0.50000000 </v>
   <v>       0.04000000       0.10000000       0.50000000 </v>
   <v>       0.08000000       0.10000000       0.50000000 </v>
   <v>       0.12000000       0.10000000       0.50000000 </v>
   <v>       0.16000000       0.10000000       0.50000000 </v>
   <v>       0.20000000       0.10000000       0.50000000 </v>
   <v>       0.24000000       0.10000000       0.50000000 </v>
   <v>       0.28000000       0.10000000       0.50000000 </v>
   <v>       0.32000000       0.10000000       0.50000000 </v>
   <v>       0.36000000       0.10000000       0.50000000 </v>
   <v>       0.40000000       0.10000000       0.50000000 </v>
   <v>       0.44000000       0.10000000       0.50000000 </v>
   <v>       0.48000000       0.10000000       0.50000000 </v>
   <v>       0.00000000       0.15000000       0.50000000 </v>
   <v>       0.04000000       0.15000000       0.50000000 </v>
   <v>       0.08000000       0.15000000       0.50000000 </v>
   <v>       0.12000000       0.15000000       0.50000000 </v>
   <v>       0.16000000       0.15000000       0.50000000 </v>
   <v>       0.20000000       0.15000000       0.50000000 </v>
   <v>       0.24000000       0.15000000       0.50000000 </v>
   <v>       0.28000000       0.15000000       0.50000000 </v>
   <v>       0.32000000       0.15000000       0.50000000 </v>
   <v>       0.36000000       0.15000000       0.50000000 </v>
   <v>       0.40000000       0.15000000       0.50000000 </v>
   <v>       0.44000000       0.15000000       0.50000000 </v>
   <v>       0.48000000       0.15000000       0.50000000 </v>
   <v>       0.00000000       0.20000000       0.50000000 </v>
   <v>       0.04000000       0.20000000       0.50000000 </v>
   <v>       0.08000000       0.20000000       0.50000000 </v>
   <v>       0.12000000       0.20000000       0.50000000 </v>
   <v>       0.16000000       0.20000000       0.50000000 </v>
   <v>       0.20000000       0.20000000       0.50000000 </v>
   <v>       0.24000000       0.20000000       0.50000000 </v>
   <v>       0.28000000       0.20000000       0.50000000 </v>
   <v>       0.32000000       0.20000000       0.50000000 </v>
   <v>       0.36000000       0.20000000       0.50000000 </v>
   <v>       0.40000000       0.20000000       0.50000000 </v>
   <v>       0.44000000       0.20000000       0.50000000 </v>
   <v>       0.48000000       0.20000000       0.50000000 </v>
   <v>       0.00000000       0.25000000       0.50000000 </v>
   <v>       0.04000000       0.25000000       0.50000000 </v>
   <v>       0.08000000       0.25000000       0.50000000 </v>
   <v>       0.12000000       0.25000000       0.50000000 </v>
   <v>       0.16000000       0.25000000       0.50000000 </v>
   <v>       0.20000000       0.25000000       0.50000000 </v>
   <v>       0.24000000       0.25000000       0.50000000 </v>
   <v>       0.28000000       0.25000000       0.50000000 </v>
   <v>       0.32000000       0.25000000       0.50000000 </v>
   <v>       0.36000000       0.25000000       0.50000000 </v>
   <v>       0.40000000       0.25000000       0.50000000 </v>
   <v>       0.44000000       0.25000000       0.50000000 </v>
   <v>       0.48000000       0.25000000       0.50000000 </v>
   <v>       0.00000000       0.30000000       0.50000000 </v>
   <v>       0.04000000       0.30000000       0.50000000 </v>
   <v>       0.08000000       0.30000000       0.50000000 </v>
   <v>       0.12000000       0.30000000       0.50000000 </v>
   <v>       0.16000000       0.30000000       0.50000000 </v>
   <v>       0.20000000       0.30000000       0.50000000 </v>
   <v>       0.24000000       0.30000000       0.50000000 </v>
   <v>       0.28000000       0.30000000       0.50000000 </v>
   <v>       0.32000000       0.30000000       0.50000000 </v>
   <v>       0.36000000       0.30000000       0.50000000 </v>
   <v>       0.40000000       0.30000000       0.50000000 </v>
   <v>       0.44000000       0.30000000       0.50000000 </v>
   <v>       0.48000000       0.30000000       0.50000000 </v>
   <v>       0.00000000       0.35000000       0.50000000 </v>
   <v>       0.04000000       0.35000000       0.50000000 </v>
   <v>       0.08000000       0.35000000       0.50000000 </v>
   <v>       0.12000000       0.35000000       0.50000000 </v>
   <v>       0.16000000       0.35000000       0.50000000 </v>
   <v>       0.20000000       0.35000000       0.50000000 </v>
   <v>       0.24000000       0.35000000       0.50000000 </v>
   <v>       0.28000000       0.35000000       0.50000000 </v>
   <v>       0.32000000       0.35000000       0.50000000 </v>
   <v>       0.36000000       0.35000000       0.50000000 </v>
   <v>       0.40000000       0.35000000       0.50000000 </v>
   <v>       0.44000000       0.35000000       0.50000000 </v>
   <v>       0.48000000       0.35000000       0.50000000 </v>
   <v>       0.00000000       0.40000000       0.50000000 </v>
   <v>       0.04000000       0.40000000       0.50000000 </v>
   <v>       0.08000000       0.40000000       0.50000000 </v>
   <v>       0.12000000       0.40000000       0.50000000 </v>
   <v>       0.16000000       0.40000000       0.50000000 </v>
   <v>       0.20000000       0.40000000       0.50000000 </v>
   <v>       0.24000000       0.40000000       0.50000000 </v>
   <v>       0.28000000       0.40000000       0.50000000 </v>
   <v>       0.32000000       0.40000000       0.50000000 </v>
   <v>       0.36000000       0.40000000       0.50000000 </v>
   <v>       0.40000000       0.40000000       0.50000000 </v>
   <v>       0.44000000       0.40000000       0.50000000 </v>
   <v>       0.48000000       0.40000000       0.50000000 </v>
   <v>       0.00000000       0.45000000       0.50000000 </v>
   <v>       0.04000000       0.45000000       0.50000000 </v>
   <v>       0.08000000       0.45000000       0.50000000 </v>
   <v>       0.12000000       0.45000000       0.50000000 </v>
   <v>       0.16000000       0.45000000       0.50000000 </v>
   <v>       0.20000000       0.45000000       0.50000000 </v>
   <v>       0.24000000       0.45000000       0.50000000 </v>
   <v>       0.28000000       0.45000000       0.50000000 </v>
   <v>       0.32000000       0.45000000       0.50000000 </v>
   <v>       0.36000000       0.45000000       0.50000000 </v>
   <v>       0.40000000       0.45000000       0.50000000 </v>
   <v>       0.44000000       0.45000000       0.50000000 </v>
   <v>       0.48000000       0.45000000       0.50000000 </v>
   <v>       0.00000000       0.50000000       0.50000000 </v>
   <v>       0.04000000       0.50000000       0.50000000 </v>
   <v>       0.08000000       0.50000000       0.50000000 </v>
   <v>       0.12000000       0.50000000       0.50000000 </v>
   <v>       0.16000000       0.50000000       0.50000000 </v>
   <v>       0.20000000       0.50000000       0.50000000 </v>
   <v>       0.24000000       0.50000000       0.50000000 </v>
   <v>       0.28000000       0.50000000       0.50000000 </v>
   <v>       0.32000000       0.50000000       0.50000000 </v>
   <v>       0.36000000       0.50000000       0.50000000 </v>
   <v>       0.40000000       0.50000000       0.50000000 </v>
   <v>       0.44000000       0.50000000       0.50000000 </v>
   <v>       0.48000000       0.50000000       0.50000000 </v>
  </varray>
  <varray name="weights" >
   <v>       0.00025000 </v>
   <v>       0.00050000 </v>
   <v>       0.00050000 </v>
   <v>       0.00050000 </v>
   <v>       0.00050000 </v>
   <v>       0.00050000 </v>
   <v>       0.00050000 </v>
   <v>       0.00050000 </v>
   <v>       0.00050000 </v>
   <v>       0.00050000 </v>
   <v>       0.00050000 </v>
   <v>       0.00050000 </v>
   <v>       0.00050000 </v>
   <v>       0.00050000 </v>
   <v>       0.00100000 </v>
   <v>       0.00100000 </v>
   <v>       0.00100000 </v>
   <v>       0.00100000 </v>
   <v>       0.00100000 </v>
   <v>       0.00100000 </v>
   <v>       0.00100000 </v>
   <v>       0.00100000 </v>
   <v>       0.00100000 </v>
   <v>       0.00100000 </v>
   <v>       0.00100000 </v>
   <v>       0.00100000 </v>
   <v>       0.00050000 </v>
   <v>       0.00100000 </v>
   <v>       0.00100000 </v>
   <v>       0.00100000 </v>
   <v>       0.00100000 </v>
   <v>       0.00100000 </v>
   <v>       0.00100000 </v>
   <v>       0.00100000 </v>
   <v>       0.00100000 </v>
   <v>       0.00100000 </v>
   <v>       0.00100000 </v>
   <v>       0.00100000 </v>
   <v>       0.00100000 </v>
   <v>       0.00050000 </v>
   <v>       0.00100000 </v>
   <v>       0.00100000 </v>
   <v>       0.00100000 </v>
   <v>       0.00100000 </v>
   <v>       0.00100000 </v>
   <v>       0.00100000 </v>
   <v>       0.00100000 </v>
   <v>       0.00100000 </v>
   <v>       0.00100000 </v>
   <v>       0.00100000 </v>
   <v>       0.00100000 </v>
   <v>       0.00100000 </v>
   <v>       0.00050000 </v>
   <v>       0.00100000 </v>
   <v>       0.00100000 </v>
   <v>       0.00100000 </v>
   <v>       0.00100000 </v>
   <v>       0.00100000 </v>
   <v>       0.00100000 </v>
   <v>       0.00100000 </v>
   <v>       0.00100000 </v>
   <v>       0.00100000 </v>
   <v>       0.00100000 </v>
   <v>       0.00100000 </v>
   <v>       0.00100000 </v>
   <v>       0.00050000 </v>
   <v>       0.00100000 </v>
   <v>       0.00100000 </v>
   <v>       0.00100000 </v>
   <v>       0.00100000 </v>
   <v>       0.00100000 </v>
   <v>       0.00100000 </v>
   <v>       0.00100000 </v>
   <v>       0.00100000 </v>
   <v>       0.00100000 </v>
   <v>       0.00100000 </v>
   <v>       0.00100000 </v>
   <v>       0.00100000 </v>
   <v>       0.00050000 </v>
   <v>       0.00100000 </v>
   <v>       0.00100000 </v>
   <v>       0.00100000 </v>
   <v>       0.00100000 </v>
   <v>       0.00100000 </v>
   <v>       0.00100000 </v>
   <v>       0.00100000 </v>
   <v>       0.00100000 </v>
   <v>       0.00100000 </v>
   <v>       0.00100000 </v>
   <v>       0.00100000 </v>
   <v>       0.00100000 </v>
   <v>       0.00050000 </v>
   <v>       0.00100000 </v>
   <v>       0.00100000 </v>
   <v>       0.00100000 </v>
   <v>       0.00100000 </v>
   <v>       0.00100000 </v>
   <v>       0.00100000 </v>
   <v>       0.00100000 </v>
   <v>       0.00100000 </v>
   <v>       0.00100000 </v>
   <v>       0.00100000 </v>
   <v>       0.00100000 </v>
   <v>       0.00100000 </v>
   <v>       0.00050000 </v>
   <v>       0.00100000 </v>
   <v>       0.00100000 </v>
   <v>       0.00100000 </v>
   <v>       0.00100000 </v>
   <v>       0.00100000 </v>
   <v>       0.00100000 </v>
   <v>       0.00100000 </v>
   <v>       0.00100000 </v>
   <v>       0.00100000 </v>
   <v>       0.00100000 </v>
   <v>       0.00100000 </v>
   <v>       0.00100000 </v>
   <v>       0.00050000 </v>
   <v>       0.00100000 </v>
   <v>       0.00100000 </v>
   <v>       0.00100000 </v>
   <v>       0.00100000 </v>
   <v>       0.00100000 </v>
   <v>       0.00100000 </v>
   <v>       0.00100000 </v>
   <v>       0.00100000 </v>
   <v>       0.00100000 </v>
   <v>       0.00100000 </v>
   <v>       0.00100000 </v>
   <v>       0.00100000 </v>
   <v>       0.00025000 </v>
   <v>       0.00050000 </v>
   <v>       0.00050000 </v>
   <v>       0.00050000 </v>
   <v>       0.00050000 </v>
   <v>       0.00050000 </v>
   <v>       0.00050000 </v>
   <v>       0.00050000 </v>
   <v>       0.00050000 </v>
   <v>       0.00050000 </v>
   <v>       0.00050000 </v>
   <v>       0.00050000 </v>
   <v>       0.00050000 </v>
   <v>       0.00050000 </v>
   <v>       0.00100000 </v>
   <v>       0.00100000 </v>
   <v>       0.00100000 </v>
   <v>       0.00100000 </v>
   <v>       0.00100000 </v>
   <v>       0.00100000 </v>
   <v>       0.00100000 </v>
   <v>       0.00100000 </v>
   <v>       0.00100000 </v>
   <v>       0.00100000 </v>
   <v>       0.00100000 </v>
   <v>       0.00100000 </v>
   <v>       0.00100000 </v>
   <v>       0.00200000 </v>
   <v>       0.00200000 </v>
   <v>       0.00200000 </v>
   <v>       0.00200000 </v>
   <v>       0.00200000 </v>
   <v>       0.00200000 </v>
   <v>       0.00200000 </v>
   <v>       0.00200000 </v>
   <v>       0.00200000 </v>
   <v>       0.00200000 </v>
   <v>       0.00200000 </v>
   <v>       0.00200000 </v>
   <v>       0.00100000 </v>
   <v>       0.00200000 </v>
   <v>       0.00200000 </v>
   <v>       0.00200000 </v>
   <v>       0.00200000 </v>
   <v>       0.00200000 </v>
   <v>       0.00200000 </v>
   <v>       0.00200000 </v>
   <v>       0.00200000 </v>
   <v>       0.00200000 </v>
   <v>       0.00200000 </v>
   <v>       0.00200000 </v>
   <v>       0.00200000 </v>
   <v>       0.00100000 </v>
   <v>       0.00200000 </v>
   <v>       0.00200000 </v>
   <v>       0.00200000 </v>
   <v>       0.00200000 </v>
   <v>       0.00200000 </v>
   <v>       0.00200000 </v>
   <v>       0.00200000 </v>
   <v>       0.00200000 </v>
   <v>       0.00200000 </v>
   <v>       0.00200000 </v>
   <v>       0.00200000 </v>
   <v>       0.00200000 </v>
   <v>       0.00100000 </v>
   <v>       0.00200000 </v>
   <v>       0.00200000 </v>
   <v>       0.00200000 </v>
   <v>       0.00200000 </v>
   <v>       0.00200000 </v>
   <v>       0.00200000 </v>
   <v>       0.00200000 </v>
   <v>       0.00200000 </v>
   <v>       0.00200000 </v>
   <v>       0.00200000 </v>
   <v>       0.00200000 </v>
   <v>       0.00200000 </v>
   <v>       0.00100000 </v>
   <v>       0.00200000 </v>
   <v>       0.00200000 </v>
   <v>       0.00200000 </v>
   <v>       0.00200000 </v>
   <v>       0.00200000 </v>
   <v>       0.00200000 </v>
   <v>       0.00200000 </v>
   <v>       0.00200000 </v>
   <v>       0.00200000 </v>
   <v>       0.00200000 </v>
   <v>       0.00200000 </v>
   <v>       0.00200000 </v>
   <v>       0.00100000 </v>
   <v>       0.00200000 </v>
   <v>       0.00200000 </v>
   <v>       0.00200000 </v>
   <v>       0.00200000 </v>
   <v>       0.00200000 </v>
   <v>       0.00200000 </v>
   <v>       0.00200000 </v>
   <v>       0.00200000 </v>
   <v>       0.00200000 </v>
   <v>       0.00200000 </v>
   <v>       0.00200000 </v>
   <v>       0.00200000 </v>
   <v>       0.00100000 </v>
   <v>       0.00200000 </v>
   <v>       0.00200000 </v>
   <v>       0.00200000 </v>
   <v>       0.00200000 </v>
   <v>       0.00200000 </v>
   <v>       0.00200000 </v>
   <v>       0.00200000 </v>
   <v>       0.00200000 </v>
   <v>       0.00200000 </v>
   <v>       0.00200000 </v>
   <v>       0.00200000 </v>
   <v>       0.00200000 </v>
   <v>       0.00100000 </v>
   <v>       0.00200000 </v>
   <v>       0.00200000 </v>
   <v>       0.00200000 </v>
   <v>       0.00200000 </v>
   <v>       0.00200000 </v>
   <v>       0.00200000 </v>
   <v>       0.00200000 </v>
   <v>       0.00200000 </v>
   <v>       0.00200000 </v>
   <v>       0.00200000 </v>
   <v>       0.00200000 </v>
   <v>       0.00200000 </v>
   <v>       0.00100000 </v>
   <v>       0.00200000 </v>
   <v>       0.00200000 </v>
   <v>       0.00200000 </v>
   <v>       0.00200000 </v>
   <v>       0.00200000 </v>
   <v>       0.00200000 </v>
   <v>       0.00200000 </v>
   <v>       0.00200000 </v>
   <v>       0.00200000 </v>
   <v>       0.00200000 </v>
   <v>       0.00200000 </v>
   <v>       0.00200000 </v>
   <v>       0.00050000 </v>
   <v>       0.00100000 </v>
   <v>       0.00100000 </v>
   <v>       0.00100000 </v>
   <v>       0.00100000 </v>
   <v>       0.00100000 </v>
   <v>       0.00100000 </v>
   <v>       0.00100000 </v>
   <v>       0.00100000 </v>
   <v>       0.00100000 </v>
   <v>       0.00100000 </v>
   <v>       0.00100000 </v>
   <v>       0.00100000 </v>
   <v>       0.00050000 </v>
   <v>       0.00100000 </v>
   <v>       0.00100000 </v>
   <v>       0.00100000 </v>
   <v>       0.00100000 </v>
   <v>       0.00100000 </v>
   <v>       0.00100000 </v>
   <v>       0.00100000 </v>
   <v>       0.00100000 </v>
   <v>       0.00100000 </v>
   <v>       0.00100000 </v>
   <v>       0.00100000 </v>
   <v>       0.00100000 </v>
   <v>       0.00100000 </v>
   <v>       0.00200000 </v>
   <v>       0.00200000 </v>
   <v>       0.00200000 </v>
   <v>       0.00200000 </v>
   <v>       0.00200000 </v>
   <v>       0.00200000 </v>
   <v>       0.00200000 </v>
   <v>       0.00200000 </v>
   <v>       0.00200000 </v>
   <v>       0.00200000 </v>
   <v>       0.00200000 </v>
   <v>       0.00200000 </v>
   <v>       0.00100000 </v>
   <v>       0.00200000 </v>
   <v>       0.00200000 </v>
   <v>       0.00200000 </v>
   <v>       0.00200000 </v>
   <v>       0.00200000 </v>
   <v>       0.00200000 </v>
   <v>       0.00200000 </v>
   <v>       0.00200000 </v>
   <v>       0.00200000 </v>
   <v>       0.00200000 </v>
   <v>       0.00200000 </v>
   <v>       0.00200000 </v>
   <v>       0.00100000 </v>
   <v>       0.00200000 </v>
   <v>       0.00200000 </v>
   <v>       0.00200000 </v>
   <v>       0.00200000 </v>
   <v>       0.00200000 </v>
   <v>       0.00200000 </v>
   <v>       0.00200000 </v>
   <v>       0.00200000 </v>
   <v>       0.00200000 </v>
   <v>       0.00200000 </v>
   <v>       0.00200000 </v>
   <v>       0.00200000 </v>
   <v>       0.00100000 </v>
   <v>       0.00200000 </v>
   <v>       0.00200000 </v>
   <v>       0.00200000 </v>
   <v>       0.00200000 </v>
   <v>       0.00200000 </v>
   <v>       0.00200000 </v>
   <v>       0.00200000 </v>
   <v>       0.00200000 </v>
   <v>       0.00200000 </v>
   <v>       0.00200000 </v>
   <v>       0.00200000 </v>
   <v>       0.00200000 </v>
   <v>       0.00100000 </v>
   <v>       0.00200000 </v>
   <v>       0.00200000 </v>
   <v>       0.00200000 </v>
   <v>       0.00200000 </v>
   <v>       0.00200000 </v>
   <v>       0.00200000 </v>
   <v>       0.00200000 </v>
   <v>       0.00200000 </v>
   <v>       0.00200000 </v>
   <v>       0.00200000 </v>
   <v>       0.00200000 </v>
   <v>       0.00200000 </v>
   <v>       0.00100000 </v>
   <v>       0.00200000 </v>
   <v>       0.00200000 </v>
   <v>       0.00200000 </v>
   <v>       0.00200000 </v>
   <v>       0.00200000 </v>
   <v>       0.00200000 </v>
   <v>       0.00200000 </v>
   <v>       0.00200000 </v>
   <v>       0.00200000 </v>
   <v>       0.00200000 </v>
   <v>       0.00200000 </v>
   <v>       0.00200000 </v>
   <v>       0.00100000 </v>
   <v>       0.00200000 </v>
   <v>       0.00200000 </v>
   <v>       0.00200000 </v>
   <v>       0.00200000 </v>
   <v>       0.00200000 </v>
   <v>       0.00200000 </v>
   <v>       0.00200000 </v>
   <v>       0.00200000 </v>
   <v>       0.00200000 </v>
   <v>       0.00200000 </v>
   <v>       0.00200000 </v>
   <v>       0.00200000 </v>
   <v>       0.00100000 </v>
   <v>       0.00200000 </v>
   <v>       0.00200000 </v>
   <v>       0.00200000 </v>
   <v>       0.00200000 </v>
   <v>       0.00200000 </v>
   <v>       0.00200000 </v>
   <v>       0.00200000 </v>
   <v>       0.00200000 </v>
   <v>       0.00200000 </v>
   <v>       0.00200000 </v>
   <v>       0.00200000 </v>
   <v>       0.00200000 </v>
   <v>       0.00100000 </v>
   <v>       0.00200000 </v>
   <v>       0.00200000 </v>
   <v>       0.00200000 </v>
   <v>       0.00200000 </v>
   <v>       0.00200000 </v>
   <v>       0.00200000 </v>
   <v>       0.00200000 </v>
   <v>       0.00200000 </v>
   <v>       0.00200000 </v>
   <v>       0.00200000 </v>
   <v>       0.00200000 </v>
   <v>       0.00200000 </v>
   <v>       0.00050000 </v>
   <v>       0.00100000 </v>
   <v>       0.00100000 </v>
   <v>       0.00100000 </v>
   <v>       0.00100000 </v>
   <v>       0.00100000 </v>
   <v>       0.00100000 </v>
   <v>       0.00100000 </v>
   <v>       0.00100000 </v>
   <v>       0.00100000 </v>
   <v>       0.00100000 </v>
   <v>       0.00100000 </v>
   <v>       0.00100000 </v>
   <v>       0.00050000 </v>
   <v>       0.00100000 </v>
   <v>       0.00100000 </v>
   <v>       0.00100000 </v>
   <v>       0.00100000 </v>
   <v>       0.00100000 </v>
   <v>       0.00100000 </v>
   <v>       0.00100000 </v>
   <v>       0.00100000 </v>
   <v>       0.00100000 </v>
   <v>       0.00100000 </v>
   <v>       0.00100000 </v>
   <v>       0.00100000 </v>
   <v>       0.00100000 </v>
   <v>       0.00200000 </v>
   <v>       0.00200000 </v>
   <v>       0.00200000 </v>
   <v>       0.00200000 </v>
   <v>       0.00200000 </v>
   <v>       0.00200000 </v>
   <v>       0.00200000 </v>
   <v>       0.00200000 </v>
   <v>       0.00200000 </v>
   <v>       0.00200000 </v>
   <v>       0.00200000 </v>
   <v>       0.00200000 </v>
   <v>       0.00100000 </v>
   <v>       0.00200000 </v>
   <v>       0.00200000 </v>
   <v>       0.00200000 </v>
   <v>       0.00200000 </v>
   <v>       0.00200000 </v>
   <v>       0.00200000 </v>
   <v>       0.00200000 </v>
   <v>       0.00200000 </v>
   <v>       0.00200000 </v>
   <v>       0.00200000 </v>
   <v>       0.00200000 </v>
   <v>       0.00200000 </v>
   <v>       0.00100000 </v>
   <v>       0.00200000 </v>
   <v>       0.00200000 </v>
   <v>       0.00200000 </v>
   <v>       0.00200000 </v>
   <v>       0.00200000 </v>
   <v>       0.00200000 </v>
   <v>       0.00200000 </v>
   <v>       0.00200000 </v>
   <v>       0.00200000 </v>
   <v>       0.00200000 </v>
   <v>       0.00200000 </v>
   <v>       0.00200000 </v>
   <v>       0.00100000 </v>
   <v>       0.00200000 </v>
   <v>       0.00200000 </v>
   <v>       0.00200000 </v>
   <v>       0.00200000 </v>
   <v>       0.00200000 </v>
   <v>       0.00200000 </v>
   <v>       0.00200000 </v>
   <v>       0.00200000 </v>
   <v>       0.00200000 </v>
   <v>       0.00200000 </v>
   <v>       0.00200000 </v>
   <v>       0.00200000 </v>
   <v>       0.00100000 </v>
   <v>       0.00200000 </v>
   <v>       0.00200000 </v>
   <v>       0.00200000 </v>
   <v>       0.00200000 </v>
   <v>       0.00200000 </v>
   <v>       0.00200000 </v>
   <v>       0.00200000 </v>
   <v>       0.00200000 </v>
   <v>       0.00200000 </v>
   <v>       0.00200000 </v>
   <v>       0.00200000 </v>
   <v>       0.00200000 </v>
   <v>       0.00100000 </v>
   <v>       0.00200000 </v>
   <v>       0.00200000 </v>
   <v>       0.00200000 </v>
   <v>       0.00200000 </v>
   <v>       0.00200000 </v>
   <v>       0.00200000 </v>
   <v>       0.00200000 </v>
   <v>       0.00200000 </v>
   <v>       0.00200000 </v>
   <v>       0.00200000 </v>
   <v>       0.00200000 </v>
   <v>       0.00200000 </v>
   <v>       0.00100000 </v>
   <v>       0.00200000 </v>
   <v>       0.00200000 </v>
   <v>       0.00200000 </v>
   <v>       0.00200000 </v>
   <v>       0.00200000 </v>
   <v>       0.00200000 </v>
   <v>       0.00200000 </v>
   <v>       0.00200000 </v>
   <v>       0.00200000 </v>
   <v>       0.00200000 </v>
   <v>       0.00200000 </v>
   <v>       0.00200000 </v>
   <v>       0.00100000 </v>
   <v>       0.00200000 </v>
   <v>       0.00200000 </v>
   <v>       0.00200000 </v>
   <v>       0.00200000 </v>
   <v>       0.00200000 </v>
   <v>       0.00200000 </v>
   <v>       0.00200000 </v>
   <v>       0.00200000 </v>
   <v>       0.00200000 </v>
   <v>       0.00200000 </v>
   <v>       0.00200000 </v>
   <v>       0.00200000 </v>
   <v>       0.00100000 </v>
   <v>       0.00200000 </v>
   <v>       0.00200000 </v>
   <v>       0.00200000 </v>
   <v>       0.00200000 </v>
   <v>       0.00200000 </v>
   <v>       0.00200000 </v>
   <v>       0.00200000 </v>
   <v>       0.00200000 </v>
   <v>       0.00200000 </v>
   <v>       0.00200000 </v>
   <v>       0.00200000 </v>
   <v>       0.00200000 </v>
   <v>       0.00050000 </v>
   <v>       0.00100000 </v>
   <v>       0.00100000 </v>
   <v>       0.00100000 </v>
   <v>       0.00100000 </v>
   <v>       0.00100000 </v>
   <v>       0.00100000 </v>
   <v>       0.00100000 </v>
   <v>       0.00100000 </v>
   <v>       0.00100000 </v>
   <v>       0.00100000 </v>
   <v>       0.00100000 </v>
   <v>       0.00100000 </v>
   <v>       0.00025000 </v>
   <v>       0.00050000 </v>
   <v>       0.00050000 </v>
   <v>       0.00050000 </v>
   <v>       0.00050000 </v>
   <v>       0.00050000 </v>
   <v>       0.00050000 </v>
   <v>       0.00050000 </v>
   <v>       0.00050000 </v>
   <v>       0.00050000 </v>
   <v>       0.00050000 </v>
   <v>       0.00050000 </v>
   <v>       0.00050000 </v>
   <v>       0.00050000 </v>
   <v>       0.00100000 </v>
   <v>       0.00100000 </v>
   <v>       0.00100000 </v>
   <v>       0.00100000 </v>
   <v>       0.00100000 </v>
   <v>       0.00100000 </v>
   <v>       0.00100000 </v>
   <v>       0.00100000 </v>
   <v>       0.00100000 </v>
   <v>       0.00100000 </v>
   <v>       0.00100000 </v>
   <v>       0.00100000 </v>
   <v>       0.00050000 </v>
   <v>       0.00100000 </v>
   <v>       0.00100000 </v>
   <v>       0.00100000 </v>
   <v>       0.00100000 </v>
   <v>       0.00100000 </v>
   <v>       0.00100000 </v>
   <v>       0.00100000 </v>
   <v>       0.00100000 </v>
   <v>       0.00100000 </v>
   <v>       0.00100000 </v>
   <v>       0.00100000 </v>
   <v>       0.00100000 </v>
   <v>       0.00050000 </v>
   <v>       0.00100000 </v>
   <v>       0.00100000 </v>
   <v>       0.00100000 </v>
   <v>       0.00100000 </v>
   <v>       0.00100000 </v>
   <v>       0.00100000 </v>
   <v>       0.00100000 </v>
   <v>       0.00100000 </v>
   <v>       0.00100000 </v>
   <v>       0.00100000 </v>
   <v>       0.00100000 </v>
   <v>       0.00100000 </v>
   <v>       0.00050000 </v>
   <v>       0.00100000 </v>
   <v>       0.00100000 </v>
   <v>       0.00100000 </v>
   <v>       0.00100000 </v>
   <v>       0.00100000 </v>
   <v>       0.00100000 </v>
   <v>       0.00100000 </v>
   <v>       0.00100000 </v>
   <v>       0.00100000 </v>
   <v>       0.00100000 </v>
   <v>       0.00100000 </v>
   <v>       0.00100000 </v>
   <v>       0.00050000 </v>
   <v>       0.00100000 </v>
   <v>       0.00100000 </v>
   <v>       0.00100000 </v>
   <v>       0.00100000 </v>
   <v>       0.00100000 </v>
   <v>       0.00100000 </v>
   <v>       0.00100000 </v>
   <v>       0.00100000 </v>
   <v>       0.00100000 </v>
   <v>       0.00100000 </v>
   <v>       0.00100000 </v>
   <v>       0.00100000 </v>
   <v>       0.00050000 </v>
   <v>       0.00100000 </v>
   <v>       0.00100000 </v>
   <v>       0.00100000 </v>
   <v>       0.00100000 </v>
   <v>       0.00100000 </v>
   <v>       0.00100000 </v>
   <v>       0.00100000 </v>
   <v>       0.00100000 </v>
   <v>       0.00100000 </v>
   <v>       0.00100000 </v>
   <v>       0.00100000 </v>
   <v>       0.00100000 </v>
   <v>       0.00050000 </v>
   <v>       0.00100000 </v>
   <v>       0.00100000 </v>
   <v>       0.00100000 </v>
   <v>       0.00100000 </v>
   <v>       0.00100000 </v>
   <v>       0.00100000 </v>
   <v>       0.00100000 </v>
   <v>       0.00100000 </v>
   <v>       0.00100000 </v>
   <v>       0.00100000 </v>
   <v>       0.00100000 </v>
   <v>       0.00100000 </v>
   <v>       0.00050000 </v>
   <v>       0.00100000 </v>
   <v>       0.00100000 </v>
   <v>       0.00100000 </v>
   <v>       0.00100000 </v>
   <v>       0.00100000 </v>
   <v>       0.00100000 </v>
   <v>       0.00100000 </v>
   <v>       0.00100000 </v>
   <v>       0.00100000 </v>
   <v>       0.00100000 </v>
   <v>       0.00100000 </v>
   <v>       0.00100000 </v>
   <v>       0.00050000 </v>
   <v>       0.00100000 </v>
   <v>       0.00100000 </v>
   <v>       0.00100000 </v>
   <v>       0.00100000 </v>
   <v>       0.00100000 </v>
   <v>       0.00100000 </v>
   <v>       0.00100000 </v>
   <v>       0.00100000 </v>
   <v>       0.00100000 </v>
   <v>       0.00100000 </v>
   <v>       0.00100000 </v>
   <v>       0.00100000 </v>
   <v>       0.00025000 </v>
   <v>       0.00050000 </v>
   <v>       0.00050000 </v>
   <v>       0.00050000 </v>
   <v>       0.00050000 </v>
   <v>       0.00050000 </v>
   <v>       0.00050000 </v>
   <v>       0.00050000 </v>
   <v>       0.00050000 </v>
   <v>       0.00050000 </v>
   <v>       0.00050000 </v>
   <v>       0.00050000 </v>
   <v>       0.00050000 </v>
  </varray>
 </kpoints>
 <parameters>
  <separator name="general" >
   <i type="string" name="SYSTEM">unknown system</i>
   <i type="logical" name="LCOMPAT"> F  </i>
  </separator>
  <separator name="electronic" >
   <i type="string" name="PREC">accura</i>
   <i name="ENMAX">    500.00000000</i>
   <i name="ENAUG">    586.98000000</i>
   <i name="EDIFF">      0.00000100</i>
   <i type="int" name="IALGO">    68</i>
   <i type="int" name="IWAVPR">    11</i>
   <i type="int" name="NBANDS">    40</i>
   <i name="NELECT">     66.00000000</i>
   <i type="int" name="TURBO">     0</i>
   <i type="int" name="IRESTART">     0</i>
   <i type="int" name="NREBOOT">     0</i>
   <i type="int" name="NMIN">     0</i>
   <i name="EREF">      0.00000000</i>
   <separator name="electronic smearing" >
    <i type="int" name="ISMEAR">     1</i>
    <i name="SIGMA">      0.30000000</i>
    <i name="KSPACING">      0.50000000</i>
    <i type="logical" name="KGAMMA"> T  </i>
   </separator>
   <separator name="electronic projectors" >
    <i type="logical" name="LREAL"> F  </i>
    <v name="ROPT">      0.00000000      0.00000000</v>
    <i type="int" name="LMAXPAW">  -100</i>
    <i type="int" name="LMAXMIX">     2</i>
    <i type="logical" name="NLSPLINE"> F  </i>
   </separator>
   <separator name="electronic startup" >
    <i type="int" name="ISTART">     0</i>
    <i type="int" name="ICHARG">     2</i>
    <i type="int" name="INIWAV">     1</i>
   </separator>
   <separator name="electronic spin" >
    <i type="int" name="ISPIN">     1</i>
    <i type="logical" name="LNONCOLLINEAR"> F  </i>
    <v name="MAGMOM">      1.00000000      1.00000000      1.00000000      1.00000000      1.00000000      1.00000000</v>
    <i name="NUPDOWN">     -1.00000000</i>
    <i type="logical" name="LSORBIT"> F  </i>
    <v name="SAXIS">      0.00000000      0.00000000      1.00000000</v>
    <i type="logical" name="LSPIRAL"> F  </i>
    <v name="QSPIRAL">      0.00000000      0.00000000      0.00000000</v>
    <i type="logical" name="LZEROZ"> F  </i>
   </separator>
   <separator name="electronic exchange-correlation" >
    <i type="logical" name="LASPH"> F  </i>
    <i type="logical" name="LMETAGGA"> F  </i>
   </separator>
   <separator name="electronic convergence" >
    <i type="int" name="NELM">   200</i>
    <i type="int" name="NELMDL">     0</i>
    <i type="int" name="NELMIN">     4</i>
    <i name="ENINI">    500.00000000</i>
    <separator name="electronic convergence detail" >
     <i type="logical" name="LDIAG"> T  </i>
     <i type="logical" name="LSUBROT"> F  </i>
     <i name="WEIMIN">      0.00100000</i>
     <i name="EBREAK">      0.00000001</i>
     <i name="DEPER">      0.30000000</i>
     <i type="int" name="NRMM">     4</i>
     <i name="TIME">      0.40000000</i>
    </separator>
   </separator>
   <separator name="electronic mixer" >
    <i name="AMIX">      0.40000000</i>
    <i name="BMIX">      1.00000000</i>
    <i name="AMIN">      0.10000000</i>
    <i name="AMIX_MAG">      1.60000000</i>
    <i name="BMIX_MAG">      1.00000000</i>
    <separator name="electronic mixer details" >
     <i type="int" name="IMIX">     4</i>
     <i type="int" name="MAXMIX">   -45</i>
     <i name="WC">    100.00000000</i>
     <i type="int" name="INIMIX">     1</i>
     <i type="int" name="MIXPRE">     1</i>
     <i type="int" name="MREMOVE">     5</i>
    </separator>
   </separator>
   <separator name="electronic dipolcorrection" >
    <i type="logical" name="LDIPOL"> F  </i>
    <i type="logical" name="LMONO"> F  </i>
    <i type="int" name="IDIPOL">     0</i>
    <i name="EPSILON">      1.00000000</i>
    <v name="DIPOL">   -100.00000000   -100.00000000   -100.00000000</v>
    <i name="EFIELD">      0.00000000</i>
   </separator>
  </separator>
  <separator name="grids" >
   <i type="int" name="NGX">    20</i>
   <i type="int" name="NGY">    28</i>
   <i type="int" name="NGZ">    64</i>
   <i type="int" name="NGXF">    40</i>
   <i type="int" name="NGYF">    56</i>
   <i type="int" name="NGZF">   128</i>
   <i type="logical" name="ADDGRID"> T  </i>
  </separator>
  <separator name="ionic" >
   <i type="int" name="NSW">    30</i>
   <i type="int" name="IBRION">     2</i>
   <i type="int" name="ISIF">     3</i>
   <i name="PSTRESS">      0.00000000</i>
   <i name="EDIFFG">     -0.02000000</i>
   <i type="int" name="NFREE">     1</i>
   <i name="POTIM">      0.50000000</i>
   <i name="SMASS">     -3.00000000</i>
   <i name="SCALEE">      1.00000000</i>
  </separator>
  <separator name="ionic md" >
   <i name="TEBEG">      0.00010000</i>
   <i name="TEEND">      0.00010000</i>
   <i type="int" name="NBLOCK">     1</i>
   <i type="int" name="KBLOCK">    30</i>
   <i type="int" name="NPACO">   256</i>
   <i name="APACO">     16.00000000</i>
  </separator>
  <separator name="symmetry" >
   <i type="int" name="ISYM">     2</i>
   <i name="SYMPREC">      0.00001000</i>
  </separator>
  <separator name="dos" >
   <i type="logical" name="LORBIT"> F  </i>
   <v name="RWIGS">     -1.00000000     -1.00000000</v>
   <i type="int" name="NEDOS">   301</i>
   <i name="EMIN">     10.00000000</i>
   <i name="EMAX">    -10.00000000</i>
   <i name="EFERMI">      0.00000000</i>
  </separator>
  <separator name="writing" >
   <i type="int" name="NWRITE">     2</i>
   <i type="logical" name="LWAVE"> F  </i>
   <i type="logical" name="LCHARG"> F  </i>
   <i type="logical" name="LPARD"> F  </i>
   <i type="logical" name="LVTOT"> F  </i>
   <i type="logical" name="LVHAR"> F  </i>
   <i type="logical" name="LELF"> F  </i>
   <i type="logical" name="LOPTICS"> F  </i>
   <v name="STM">      0.00000000      0.00000000      0.00000000      0.00000000      0.00000000      0.00000000      0.00000000</v>
  </separator>
  <separator name="performance" >
   <i type="int" name="NPAR">     4</i>
   <i type="int" name="NSIM">     4</i>
   <i type="int" name="NBLK">    -1</i>
   <i type="logical" name="LPLANE"> T  </i>
   <i type="logical" name="LSCALAPACK"> T  </i>
   <i type="logical" name="LSCAAWARE"> F  </i>
   <i type="logical" name="LSCALU"> F  </i>
   <i type="logical" name="LASYNC"> F  </i>
   <i type="logical" name="LORBITALREAL"> F  </i>
  </separator>
  <separator name="miscellaneous" >
   <i type="int" name="IDIOT">     3</i>
   <i type="logical" name="LMUSIC"> F  </i>
   <v name="POMASS">     63.54600000    196.96600000</v>
   <v name="DARWINR">      0.00000000      0.00000000</v>
   <v name="DARWINV">      1.00000000      1.00000000</v>
   <i type="logical" name="LCORR"> T  </i>
  </separator>
  <i type="logical" name="GGA_COMPAT"> T  </i>
  <i type="logical" name="LBERRY"> F  </i>
  <i type="int" name="ICORELEVEL">     0</i>
  <i type="logical" name="LDAU"> F  </i>
  <i type="int" name="I_CONSTRAINED_M">     0</i>
  <separator name="electronic exchange-correlation" >
   <i type="string" name="GGA">--</i>
   <i type="int" name="VOSKOWN">     0</i>
   <i type="logical" name="LHFCALC"> F  </i>
   <i type="string" name="PRECFOCK"></i>
   <i type="logical" name="LSYMGRAD"> F  </i>
   <i type="logical" name="LHFONE"> F  </i>
   <i type="logical" name="LRHFCALC"> F  </i>
   <i type="logical" name="LTHOMAS"> F  </i>
   <i type="logical" name="LMODELHF"> F  </i>
   <i name="ENCUT4O">     -1.00000000</i>
   <i type="int" name="EXXOEP">     0</i>
   <i type="int" name="FOURORBIT">     0</i>
   <i name="AEXX">      0.00000000</i>
   <i name="HFALPHA">      0.00000000</i>
   <i name="MCALPHA">      0.00000000</i>
   <i name="ALDAX">      1.00000000</i>
   <i name="AGGAX">      1.00000000</i>
   <i name="ALDAC">      1.00000000</i>
   <i name="AGGAC">      1.00000000</i>
   <i type="int" name="NKREDX">     1</i>
   <i type="int" name="NKREDY">     1</i>
   <i type="int" name="NKREDZ">     1</i>
   <i type="logical" name="SHIFTRED"> F  </i>
   <i type="logical" name="ODDONLY"> F  </i>
   <i type="logical" name="EVENONLY"> F  </i>
   <i type="int" name="LMAXFOCK">     0</i>
   <i type="int" name="NMAXFOCKAE">     0</i>
   <i type="logical" name="LFOCKAEDFT"> F  </i>
   <i name="HFSCREEN">      0.00000000</i>
   <i name="HFSCREENC">      0.00000000</i>
   <i type="int" name="NBANDSGWLOW">     0</i>
  </separator>
  <separator name="vdW DFT" >
   <i type="logical" name="LUSE_VDW"> F  </i>
   <i name="Zab_VDW">     -0.84910000</i>
   <i name="PARAM1">      0.12340000</i>
   <i name="PARAM2">      1.00000000</i>
   <i name="PARAM3">      0.00000000</i>
  </separator>
  <separator name="model GW" >
   <i type="int" name="MODEL_GW">     0</i>
   <i name="MODEL_EPS0">      8.47668156</i>
   <i name="MODEL_ALPHA">      1.00000000</i>
  </separator>
  <separator name="linear response parameters" >
   <i type="logical" name="LEPSILON"> F  </i>
   <i type="logical" name="LRPA"> F  </i>
   <i type="logical" name="LNABLA"> F  </i>
   <i type="logical" name="LVEL"> F  </i>
   <i type="int" name="KINTER">     0</i>
   <i name="CSHIFT">      0.10000000</i>
   <i name="OMEGAMAX">     -1.00000000</i>
   <i name="DEG_THRESHOLD">      0.00200000</i>
  </separator>
  <separator name="orbital magnetization" >
   <i type="logical" name="NUCIND"> F  </i>
   <v name="MAGPOS">      0.00000000      0.00000000      0.00000000</v>
   <i type="logical" name="LNICSALL"> T  </i>
   <i type="logical" name="ORBITALMAG"> F  </i>
   <i type="logical" name="LMAGBLOCH"> F  </i>
   <i type="logical" name="LCHIMAG"> F  </i>
   <i type="logical" name="LGAUGE"> T  </i>
   <i type="int" name="MAGATOM">     0</i>
   <v name="MAGDIPOL">      0.00000000      0.00000000      0.00000000</v>
   <v name="AVECCONST">      0.00000000      0.00000000      0.00000000</v>
  </separator>
  <separator name="response functions" >
   <i type="logical" name="LADDER"> F  </i>
   <i type="logical" name="LFXC"> F  </i>
   <i type="logical" name="LHARTREE"> T  </i>
   <i type="int" name="IBSE">     0</i>
   <i type="logical" name="LTCTE"> F  </i>
   <i type="logical" name="LTETE"> F  </i>
   <i type="logical" name="LTRIPLET"> F  </i>
   <i type="logical" name="LFXCEPS"> F  </i>
   <i type="logical" name="LFXHEG"> F  </i>
   <i type="logical" name="L2ORDER"> F  </i>
   <i type="logical" name="LUSEW"> F  </i>
   <i name="ENCUTGW">     -2.00000000</i>
   <i name="ENCUTGWSOFT">     -2.00000000</i>
   <i name="ENCUTLF">     -1.00000000</i>
   <i type="int" name="LMAXMP2">    -1</i>
   <i name="SCISSOR">      0.00000000</i>
   <i type="int" name="NOMEGA">     0</i>
   <i type="int" name="NOMEGAR">     0</i>
   <i type="int" name="NBANDSGW">    -1</i>
   <i type="int" name="NBANDSO">    -1</i>
   <i type="int" name="NBANDSV">    -1</i>
   <i type="int" name="NELM">   200</i>
   <i type="int" name="DIM">     3</i>
   <i type="int" name="ANTIRES">     0</i>
   <i name="OMEGAMAX">    -30.00000000</i>
   <i name="OMEGAMIN">    -30.00000000</i>
   <i name="OMEGATL">   -200.00000000</i>
   <i type="int" name="OMEGAGRID">     0</i>
   <i name="CSHIFT">     -0.10000000</i>
   <i type="logical" name="SELFENERGY"> F  </i>
   <i type="logical" name="LSPECTRAL"> F  </i>
   <i type="logical" name="ODDONLYGW"> F  </i>
   <i type="logical" name="EVENONLYGW"> F  </i>
   <i type="int" name="NKREDLFX">     1</i>
   <i type="int" name="NKREDLFY">     1</i>
   <i type="int" name="NKREDLFZ">     1</i>
   <i type="int" name="MAXMEM">  1800</i>
   <i type="int" name="TELESCOPE">     0</i>
   <i type="int" name="TAUPAR">     1</i>
  </separator>
  <separator name="External order field" >
   <i name="OFIELD_KAPPA">      0.00000000</i>
   <v name="OFIELD_K">      0.00000000      0.00000000      0.00000000</v>
   <i name="OFIELD_Q6_NEAR">      0.00000000</i>
   <i name="OFIELD_Q6_FAR">      0.00000000</i>
   <i name="OFIELD_A">      0.00000000</i>
  </separator>
 </parameters>
 <atominfo>
  <atoms>       6 </atoms>
  <types>       2 </types>
  <array name="atoms" >
   <dimension dim="1">ion</dimension>
   <field type="string">element</field>
   <field type="int">atomtype</field>
   <set>
    <rc><c>Cu</c><c>   1</c></rc>
    <rc><c>Cu</c><c>   1</c></rc>
    <rc><c>Cu</c><c>   1</c></rc>
    <rc><c>Cu</c><c>   1</c></rc>
    <rc><c>Au</c><c>   2</c></rc>
    <rc><c>Au</c><c>   2</c></rc>
   </set>
  </array>
  <array name="atomtypes" >
   <dimension dim="1">type</dimension>
   <field type="int">atomspertype</field>
   <field type="string">element</field>
   <field>mass</field>
   <field>valence</field>
   <field type="string">pseudopotential</field>
   <set>
[...]
       <r>    5.2844    1.0000 </r>
       <r>    5.6049    1.0000 </r>
       <r>    5.6049    1.0000 </r>
       <r>    5.9199    1.0000 </r>
       <r>    5.9199    1.0000 </r>
       <r>    6.0496    1.0000 </r>
       <r>    6.0496    1.0000 </r>
       <r>    6.1679    1.0000 </r>
       <r>    6.1679    1.0000 </r>
       <r>    8.1104    0.0013 </r>
       <r>    8.1104    0.0013 </r>
       <r>    8.2974   -0.0294 </r>
       <r>    8.2974   -0.0294 </r>
       <r>   11.9327    0.0000 </r>
       <r>   11.9327    0.0000 </r>
       <r>   12.2772    0.0000 </r>
       <r>   12.2772    0.0000 </r>
       <r>   12.8065    0.0000 </r>
       <r>   12.8067    0.0000 </r>
      </set>
      <set comment="kpoint 714">
       <r>    1.5591    1.0000 </r>
       <r>    1.5591    1.0000 </r>
       <r>    2.0209    1.0000 </r>
       <r>    2.0209    1.0000 </r>
       <r>    3.0669    1.0000 </r>
       <r>    3.0669    1.0000 </r>
       <r>    3.4486    1.0000 </r>
       <r>    3.4486    1.0000 </r>
       <r>    4.1688    1.0000 </r>
       <r>    4.1688    1.0000 </r>
       <r>    4.4306    1.0000 </r>
       <r>    4.4306    1.0000 </r>
       <r>    4.6714    1.0000 </r>
       <r>    4.6714    1.0000 </r>
       <r>    4.7653    1.0000 </r>
       <r>    4.7653    1.0000 </r>
       <r>    4.9819    1.0000 </r>
       <r>    4.9819    1.0000 </r>
       <r>    5.2591    1.0000 </r>
       <r>    5.2591    1.0000 </r>
       <r>    5.4445    1.0000 </r>
       <r>    5.4445    1.0000 </r>
       <r>    5.6418    1.0000 </r>
       <r>    5.6418    1.0000 </r>
       <r>    6.0189    1.0000 </r>
       <r>    6.0189    1.0000 </r>
       <r>    6.1018    1.0000 </r>
       <r>    6.1018    1.0000 </r>
       <r>    6.1986    1.0000 </r>
       <r>    6.1986    1.0000 </r>
       <r>    8.4746   -0.0068 </r>
       <r>    8.4746   -0.0068 </r>
       <r>    8.6752   -0.0004 </r>
       <r>    8.6752   -0.0004 </r>
       <r>   11.5790    0.0000 </r>
       <r>   11.5790    0.0000 </r>
       <r>   12.1043    0.0000 </r>
       <r>   12.1043    0.0000 </r>
       <r>   13.0658    0.0000 </r>
       <r>   13.0658    0.0000 </r>
      </set>
      <set comment="kpoint 715">
       <r>    1.5230    1.0000 </r>
       <r>    1.5230    1.0000 </r>
       <r>    1.9852    1.0000 </r>
       <r>    1.9852    1.0000 </r>
       <r>    3.0944    1.0000 </r>
       <r>    3.0944    1.0000 </r>
       <r>    3.4578    1.0000 </r>
       <r>    3.4578    1.0000 </r>
       <r>    4.1560    1.0000 </r>
       <r>    4.1560    1.0000 </r>
       <r>    4.4315    1.0000 </r>
       <r>    4.4315    1.0000 </r>
       <r>    4.6883    1.0000 </r>
       <r>    4.6883    1.0000 </r>
       <r>    4.7774    1.0000 </r>
       <r>    4.7774    1.0000 </r>
       <r>    4.9997    1.0000 </r>
       <r>    4.9997    1.0000 </r>
       <r>    5.2596    1.0000 </r>
       <r>    5.2596    1.0000 </r>
       <r>    5.5378    1.0000 </r>
       <r>    5.5378    1.0000 </r>
       <r>    5.6558    1.0000 </r>
       <r>    5.6558    1.0000 </r>
       <r>    6.0816    1.0000 </r>
       <r>    6.0816    1.0000 </r>
       <r>    6.1374    1.0000 </r>
       <r>    6.1374    1.0000 </r>
       <r>    6.2177    1.0000 </r>
       <r>    6.2177    1.0000 </r>
       <r>    8.7315   -0.0002 </r>
       <r>    8.7315   -0.0002 </r>
       <r>    8.9872    0.0000 </r>
       <r>    8.9872    0.0000 </r>
       <r>   11.1652    0.0000 </r>
       <r>   11.1652    0.0000 </r>
       <r>   11.8633    0.0000 </r>
       <r>   11.8633    0.0000 </r>
       <r>   13.5266    0.0000 </r>
       <r>   13.5276    0.0000 </r>
      </set>
     </set>
    </set>
   </array>
  </eigenvalues>
  <separator name="orbital magnetization" >
   <v name="MAGDIPOLOUT">      0.00000000      0.00000000      0.00000000</v>
  </separator>
  <dos>
   <i name="efermi">      7.85955298 </i>
   <total>
    <array>
     <dimension dim="1">gridpoints</dimension>
     <dimension dim="2">spin</dimension>
     <field>energy</field>
     <field>total</field>
     <field>integrated</field>
     <set>
      <set comment="spin 1">
       <r>    -4.4399     0.0000     0.0000 </r>
       <r>    -4.3611     0.0000     0.0000 </r>
       <r>    -4.2824     0.0000     0.0000 </r>
       <r>    -4.2036     0.0000     0.0000 </r>
       <r>    -4.1248     0.0000     0.0000 </r>
       <r>    -4.0461     0.0000     0.0000 </r>
       <r>    -3.9673     0.0000     0.0000 </r>
       <r>    -3.8886     0.0000     0.0000 </r>
       <r>    -3.8098     0.0000     0.0000 </r>
       <r>    -3.7310     0.0000     0.0000 </r>
       <r>    -3.6523     0.0000     0.0000 </r>
       <r>    -3.5735     0.0000     0.0000 </r>
       <r>    -3.4948     0.0000     0.0000 </r>
       <r>    -3.4160     0.0000     0.0000 </r>
       <r>    -3.3372     0.0000     0.0000 </r>
       <r>    -3.2585     0.0000     0.0000 </r>
       <r>    -3.1797     0.0000     0.0000 </r>
       <r>    -3.1009     0.0000     0.0000 </r>
       <r>    -3.0222     0.0000     0.0000 </r>
       <r>    -2.9434     0.0000     0.0000 </r>
       <r>    -2.8647     0.0000     0.0000 </r>
       <r>    -2.7859     0.0000     0.0000 </r>
       <r>    -2.7071     0.0000     0.0000 </r>
       <r>    -2.6284     0.0000     0.0000 </r>
       <r>    -2.5496     0.0000     0.0000 </r>
       <r>    -2.4709     0.0000     0.0000 </r>
       <r>    -2.3921     0.0000     0.0000 </r>
       <r>    -2.3133     0.0000     0.0000 </r>
       <r>    -2.2346     0.0000     0.0000 </r>
       <r>    -2.1558    -0.0001     0.0000 </r>
       <r>    -2.0771    -0.0004     0.0000 </r>
       <r>    -1.9983    -0.0010    -0.0001 </r>
       <r>    -1.9195    -0.0024    -0.0003 </r>
       <r>    -1.8408    -0.0046    -0.0007 </r>
       <r>    -1.7620    -0.0069    -0.0012 </r>
       <r>    -1.6833    -0.0074    -0.0018 </r>
       <r>    -1.6045    -0.0019    -0.0020 </r>
       <r>    -1.5257     0.0143    -0.0008 </r>
       <r>    -1.4470     0.0451     0.0027 </r>
       <r>    -1.3682     0.0904     0.0098 </r>
       <r>    -1.2895     0.1459     0.0213 </r>
       <r>    -1.2107     0.2044     0.0374 </r>
       <r>    -1.1319     0.2580     0.0577 </r>
       <r>    -1.0532     0.3012     0.0815 </r>
       <r>    -0.9744     0.3317     0.1076 </r>
       <r>    -0.8957     0.3510     0.1352 </r>
       <r>    -0.8169     0.3636     0.1639 </r>
       <r>    -0.7381     0.3758     0.1935 </r>
       <r>    -0.6594     0.3932     0.2244 </r>
       <r>    -0.5806     0.4185     0.2574 </r>
       <r>    -0.5019     0.4506     0.2929 </r>
       <r>    -0.4231     0.4862     0.3312 </r>
       <r>    -0.3443     0.5220     0.3723 </r>
       <r>    -0.2656     0.5570     0.4162 </r>
       <r>    -0.1868     0.5917     0.4628 </r>
       <r>    -0.1081     0.6259     0.5121 </r>
       <r>    -0.0293     0.6590     0.5640 </r>
       <r>     0.0495     0.6915     0.6184 </r>
       <r>     0.1282     0.7257     0.6756 </r>
       <r>     0.2070     0.7643     0.7358 </r>
       <r>     0.2857     0.8088     0.7995 </r>
       <r>     0.3645     0.8604     0.8672 </r>
       <r>     0.4433     0.9228     0.9399 </r>
       <r>     0.5220     1.0032     1.0189 </r>
       <r>     0.6008     1.1067     1.1061 </r>
       <r>     0.6795     1.2279     1.2028 </r>
       <r>     0.7583     1.3494     1.3091 </r>
       <r>     0.8371     1.4496     1.4233 </r>
       <r>     0.9158     1.5179     1.5428 </r>
       <r>     0.9946     1.5627     1.6659 </r>
       <r>     1.0733     1.6096     1.7927 </r>
       <r>     1.1521     1.6966     1.9263 </r>
       <r>     1.2309     1.8736     2.0739 </r>
       <r>     1.3096     2.1959     2.2468 </r>
       <r>     1.3884     2.6931     2.4589 </r>
       <r>     1.4672     3.3260     2.7209 </r>
       <r>     1.5459     3.9824     3.0345 </r>
       <r>     1.6247     4.5432     3.3923 </r>
       <r>     1.7034     4.9739     3.7841 </r>
       <r>     1.7822     5.3475     4.2053 </r>
       <r>     1.8610     5.7636     4.6592 </r>
       <r>     1.9397     6.2370     5.1504 </r>
       <r>     2.0185     6.6673     5.6756 </r>
       <r>     2.0972     6.9152     6.2202 </r>
       <r>     2.1760     6.9081     6.7643 </r>
       <r>     2.2548     6.6839     7.2907 </r>
       <r>     2.3335     6.3545     7.7912 </r>
       <r>     2.4123     6.0399     8.2669 </r>
       <r>     2.4910     5.8267     8.7258 </r>
       <r>     2.5698     5.7615     9.1796 </r>
       <r>     2.6486     5.8623     9.6413 </r>
       <r>     2.7273     6.1296    10.1241 </r>
       <r>     2.8061     6.5485    10.6398 </r>
       <r>     2.8848     7.0736    11.1970 </r>
       <r>     2.9636     7.6082    11.7962 </r>
       <r>     3.0424     8.0146    12.4274 </r>
       <r>     3.1211     8.1826    13.0719 </r>
       <r>     3.1999     8.1130    13.7109 </r>
       <r>     3.2786     7.9355    14.3359 </r>
       <r>     3.3574     7.8230    14.9520 </r>
       <r>     3.4362     7.8693    15.5718 </r>
       <r>     3.5149     8.0372    16.2048 </r>
       <r>     3.5937     8.2288    16.8529 </r>
       <r>     3.6724     8.4251    17.5165 </r>
       <r>     3.7512     8.7697    18.2072 </r>
       <r>     3.8300     9.4937    18.9549 </r>
       <r>     3.9087    10.7045    19.7980 </r>
       <r>     3.9875    12.2063    20.7594 </r>
       <r>     4.0662    13.5412    21.8259 </r>
       <r>     4.1450    14.2676    22.9496 </r>
       <r>     4.2238    14.2791    24.0742 </r>
       <r>     4.3025    13.9029    25.1692 </r>
       <r>     4.3813    13.6863    26.2472 </r>
       <r>     4.4600    14.0205    27.3514 </r>
       <r>     4.5388    14.8714    28.5227 </r>
       <r>     4.6176    15.8026    29.7673 </r>
       <r>     4.6963    16.2764    31.0492 </r>
       <r>     4.7751    16.0322    32.3120 </r>
       <r>     4.8538    15.2857    33.5159 </r>
       <r>     4.9326    14.6038    34.6661 </r>
       <r>     5.0114    14.5377    35.8110 </r>
       <r>     5.0901    15.2679    37.0136 </r>
       <r>     5.1689    16.5032    38.3133 </r>
       <r>     5.2476    17.6824    39.7060 </r>
       <r>     5.3264    18.3250    41.1493 </r>
       <r>     5.4052    18.2985    42.5905 </r>
       <r>     5.4839    17.8421    43.9958 </r>
       <r>     5.5627    17.3608    45.3631 </r>
       <r>     5.6415    17.1632    46.7149 </r>
       <r>     5.7202    17.3593    48.0821 </r>
       <r>     5.7990    17.9707    49.4975 </r>
       <r>     5.8777    19.0755    50.9999 </r>
       <r>     5.9565    20.7424    52.6336 </r>
       <r>     6.0353    22.7418    54.4247 </r>
       <r>     6.1140    24.3386    56.3416 </r>
       <r>     6.1928    24.5044    58.2716 </r>
       <r>     6.2715    22.5110    60.0446 </r>
       <r>     6.3503    18.4639    61.4988 </r>
       <r>     6.4291    13.3275    62.5485 </r>
       <r>     6.5078     8.4106    63.2109 </r>
       <r>     6.5866     4.7075    63.5817 </r>
       <r>     6.6653     2.5389    63.7816 </r>
       <r>     6.7441     1.6383    63.9107 </r>
       <r>     6.8229     1.4928    64.0282 </r>
       <r>     6.9016     1.6520    64.1583 </r>
       <r>     6.9804     1.8519    64.3042 </r>
       <r>     7.0591     1.9877    64.4607 </r>
       <r>     7.1379     2.0410    64.6215 </r>
       <r>     7.2167     2.0304    64.7814 </r>
       <r>     7.2954     1.9878    64.9380 </r>
       <r>     7.3742     1.9425    65.0910 </r>
       <r>     7.4529     1.9093    65.2413 </r>
       <r>     7.5317     1.8888    65.3901 </r>
       <r>     7.6105     1.8773    65.5380 </r>
       <r>     7.6892     1.8704    65.6853 </r>
       <r>     7.7680     1.8609    65.8318 </r>
       <r>     7.8467     1.8391    65.9767 </r>
       <r>     7.9255     1.8028    66.1187 </r>
       <r>     8.0043     1.7633    66.2575 </r>
       <r>     8.0830     1.7368    66.3943 </r>
       <r>     8.1618     1.7292    66.5305 </r>
       <r>     8.2405     1.7301    66.6668 </r>
       <r>     8.3193     1.7235    66.8025 </r>
       <r>     8.3981     1.7038    66.9367 </r>
       <r>     8.4768     1.6801    67.0691 </r>
       <r>     8.5556     1.6648    67.2002 </r>
       <r>     8.6343     1.6609    67.3310 </r>
       <r>     8.7131     1.6609    67.4618 </r>
       <r>     8.7919     1.6583    67.5924 </r>
       <r>     8.8706     1.6551    67.7228 </r>
       <r>     8.9494     1.6560    67.8532 </r>
       <r>     9.0281     1.6580    67.9838 </r>
       <r>     9.1069     1.6489    68.1137 </r>
       <r>     9.1857     1.6190    68.2412 </r>
       <r>     9.2644     1.5709    68.3649 </r>
       <r>     9.3432     1.5179    68.4844 </r>
       <r>     9.4219     1.4724    68.6004 </r>
       <r>     9.5007     1.4374    68.7136 </r>
       <r>     9.5795     1.4094    68.8246 </r>
       <r>     9.6582     1.3860    68.9338 </r>
       <r>     9.7370     1.3684    69.0416 </r>
       <r>     9.8157     1.3568    69.1484 </r>
       <r>     9.8945     1.3471    69.2545 </r>
       <r>     9.9733     1.3326    69.3595 </r>
       <r>    10.0520     1.3088    69.4626 </r>
       <r>    10.1308     1.2756    69.5630 </r>
       <r>    10.2096     1.2369    69.6604 </r>
       <r>    10.2883     1.1983    69.7548 </r>
       <r>    10.3671     1.1675    69.8468 </r>
       <r>    10.4458     1.1545    69.9377 </r>
       <r>    10.5246     1.1664    70.0296 </r>
       <r>    10.6034     1.2002    70.1241 </r>
       <r>    10.6821     1.2410    70.2218 </r>
       <r>    10.7609     1.2738    70.3222 </r>
       <r>    10.8396     1.2996    70.4245 </r>
       <r>    10.9184     1.3399    70.5301 </r>
       <r>    10.9972     1.4224    70.6421 </r>
       <r>    11.0759     1.5546    70.7645 </r>
       <r>    11.1547     1.7117    70.8993 </r>
       <r>    11.2334     1.8485    71.0449 </r>
       <r>    11.3122     1.9289    71.1968 </r>
       <r>    11.3910     1.9458    71.3501 </r>
       <r>    11.4697     1.9158    71.5010 </r>
       <r>    11.5485     1.8605    71.6475 </r>
       <r>    11.6272     1.7937    71.7888 </r>
       <r>    11.7060     1.7263    71.9248 </r>
       <r>    11.7848     1.6736    72.0566 </r>
       <r>    11.8635     1.6526    72.1867 </r>
       <r>    11.9423     1.6688    72.3182 </r>
       <r>    12.0210     1.7076    72.4527 </r>
       <r>    12.0998     1.7399    72.5897 </r>
       <r>    12.1786     1.7380    72.7266 </r>
       <r>    12.2573     1.6921    72.8598 </r>
       <r>    12.3361     1.6174    72.9872 </r>
       <r>    12.4148     1.5480    73.1092 </r>
       <r>    12.4936     1.5198    73.2289 </r>
       <r>    12.5724     1.5498    73.3509 </r>
       <r>    12.6511     1.6263    73.4790 </r>
       <r>    12.7299     1.7169    73.6142 </r>
       <r>    12.8086     1.7921    73.7554 </r>
       <r>    12.8874     1.8438    73.9006 </r>
       <r>    12.9662     1.8852    74.0491 </r>
       <r>    13.0449     1.9339    74.2014 </r>
       <r>    13.1237     1.9937    74.3584 </r>
       <r>    13.2024     2.0532    74.5201 </r>
       <r>    13.2812     2.0984    74.6854 </r>
       <r>    13.3600     2.1269    74.8529 </r>
       <r>    13.4387     2.1477    75.0221 </r>
       <r>    13.5175     2.1696    75.1929 </r>
       <r>    13.5962     2.1911    75.3655 </r>
       <r>    13.6750     2.2035    75.5391 </r>
       <r>    13.7538     2.2006    75.7124 </r>
       <r>    13.8325     2.1840    75.8844 </r>
       <r>    13.9113     2.1576    76.0543 </r>
       <r>    13.9900     2.1212    76.2214 </r>
       <r>    14.0688     2.0705    76.3845 </r>
       <r>    14.1476     2.0035    76.5423 </r>
       <r>    14.2263     1.9256    76.6939 </r>
       <r>    14.3051     1.8502    76.8396 </r>
       <r>    14.3838     1.7960    76.9811 </r>
       <r>    14.4626     1.7781    77.1211 </r>
       <r>    14.5414     1.7992    77.2628 </r>
       <r>    14.6201     1.8441    77.4081 </r>
       <r>    14.6989     1.8851    77.5566 </r>
       <r>    14.7777     1.8954    77.7058 </r>
       <r>    14.8564     1.8619    77.8525 </r>
       <r>    14.9352     1.7902    77.9935 </r>
       <r>    15.0139     1.7013    78.1275 </r>
       <r>    15.0927     1.6216    78.2552 </r>
       <r>    15.1715     1.5703    78.3789 </r>
       <r>    15.2502     1.5497    78.5009 </r>
       <r>    15.3290     1.5460    78.6227 </r>
       <r>    15.4077     1.5427    78.7442 </r>
       <r>    15.4865     1.5379    78.8653 </r>
       <r>    15.5653     1.5496    78.9873 </r>
       <r>    15.6440     1.6026    79.1136 </r>
       <r>    15.7228     1.7034    79.2477 </r>
       <r>    15.8015     1.8206    79.3911 </r>
       <r>    15.8803     1.8874    79.5398 </r>
       <r>    15.9591     1.8288    79.6838 </r>
       <r>    16.0378     1.6041    79.8102 </r>
       <r>    16.1166     1.2362    79.9075 </r>
       <r>    16.1953     0.8073    79.9711 </r>
       <r>    16.2741     0.4186    80.0041 </r>
       <r>    16.3529     0.1414    80.0152 </r>
       <r>    16.4316    -0.0083    80.0145 </r>
       <r>    16.5104    -0.0593    80.0099 </r>
       <r>    16.5891    -0.0567    80.0054 </r>
       <r>    16.6679    -0.0371    80.0025 </r>
       <r>    16.7467    -0.0192    80.0010 </r>
       <r>    16.8254    -0.0082    80.0003 </r>
       <r>    16.9042    -0.0030    80.0001 </r>
       <r>    16.9829    -0.0009    80.0000 </r>
       <r>    17.0617    -0.0003    80.0000 </r>
       <r>    17.1405    -0.0001    80.0000 </r>
       <r>    17.2192     0.0000    80.0000 </r>
       <r>    17.2980     0.0000    80.0000 </r>
       <r>    17.3767     0.0000    80.0000 </r>
       <r>    17.4555     0.0000    80.0000 </r>
       <r>    17.5343     0.0000    80.0000 </r>
       <r>    17.6130     0.0000    80.0000 </r>
       <r>    17.6918     0.0000    80.0000 </r>
       <r>    17.7705     0.0000    80.0000 </r>
       <r>    17.8493     0.0000    80.0000 </r>
       <r>    17.9281     0.0000    80.0000 </r>
       <r>    18.0068     0.0000    80.0000 </r>
       <r>    18.0856     0.0000    80.0000 </r>
       <r>    18.1643     0.0000    80.0000 </r>
       <r>    18.2431     0.0000    80.0000 </r>
       <r>    18.3219     0.0000    80.0000 </r>
       <r>    18.4006     0.0000    80.0000 </r>
       <r>    18.4794     0.0000    80.0000 </r>
       <r>    18.5581     0.0000    80.0000 </r>
       <r>    18.6369     0.0000    80.0000 </r>
       <r>    18.7157     0.0000    80.0000 </r>
       <r>    18.7944     0.0000    80.0000 </r>
       <r>    18.8732     0.0000    80.0000 </r>
       <r>    18.9519     0.0000    80.0000 </r>
       <r>    19.0307     0.0000    80.0000 </r>
       <r>    19.1095     0.0000    80.0000 </r>
       <r>    19.1882     0.0000    80.0000 </r>
      </set>
     </set>
    </array>
   </total>
  </dos>
 </calculation>
 <structure name="finalpos" >
  <crystal>
   <varray name="basis" >
    <v>       0.00000000       1.95456488       1.95456488 </v>
    <v>       3.53132928       0.00000000       0.00000000 </v>
    <v>       0.00000000       6.14055416      -6.14055416 </v>
   </varray>
   <i name="volume">     84.76681563 </i>
   <varray name="rec_basis" >
    <v>       0.00000000       0.25581141       0.25581141 </v>
    <v>       0.28317948       0.00000000       0.00000000 </v>
    <v>       0.00000000       0.08142588      -0.08142588 </v>
   </varray>
  </crystal>
  <varray name="positions" >
   <v>       0.00000000       0.00000000       0.36515165 </v>
   <v>       0.50000000       0.50000000       0.50971065 </v>
   <v>       0.00000000       0.00000000       0.65695601 </v>
   <v>       0.50000000       0.50000000       0.80151501 </v>
   <v>       0.00000000       0.00000000       0.97362445 </v>
   <v>       0.50000000       0.50000000       0.19304221 </v>
  </varray>
 </structure>
</modeling>
