<?xml version="1.0" encoding="ISO-8859-1"?>
<modeling>
 <generator>
  <i name="program" type="string">vasp </i>
  <i name="version" type="string">5.3.5  </i>
  <i name="subversion" type="string">31Mar14 (build Jun 20 2014 13:15:13) complex                          parallel </i>
  <i name="platform" type="string">LinuxIFC </i>
  <i name="date" type="string">2025 12 16 </i>
  <i name="time" type="string">17:43:03 </i>
 </generator>
 <incar>
  <i type="string" name="PREC">accurate</i>
  <i type="int" name="IALGO">    68</i>
  <i type="logical" name="ADDGRID"> T  </i>
  <i type="int" name="NELM">   100</i>
  <i type="int" name="NELMIN">     4</i>
  <i type="int" name="IBRION">     2</i>
  <i name="EDIFF">      0.00000100</i>
  <i name="EDIFFG">     -0.02000000</i>
  <i type="int" name="NSW">    30</i>
  <i type="int" name="ISIF">     3</i>
  <i name="ENCUT">    600.00000000</i>
  <i type="logical" name="LREAL"> F  </i>
  <i type="int" name="ISMEAR">     0</i>
  <i name="SIGMA">      0.10000000</i>
  <i type="logical" name="LWAVE"> F  </i>
  <i type="logical" name="LCHARG"> F  </i>
  <i type="int" name="NELM">   100</i>
 </incar>
 <kpoints>
  <generation param="Auto">
   <i name="subdivisionlength">     20.00000000 </i>
   <v type="int" name="divisions">       4        4        4 </v>
   <v name="usershift">      0.00000000       0.00000000       0.00000000 </v>
   <v name="genvec1">      0.25000000       0.00000000       0.00000000 </v>
   <v name="genvec2">      0.00000000       0.25000000       0.00000000 </v>
   <v name="genvec3">      0.00000000       0.00000000       0.25000000 </v>
   <v name="shift">      0.00000000       0.00000000       0.00000000 </v>
  </generation>
  <varray name="kpointlist" >
   <v>       0.00000000       0.00000000       0.00000000 </v>
   <v>       0.25000000       0.00000000       0.00000000 </v>
   <v>       0.50000000       0.00000000       0.00000000 </v>
   <v>       0.00000000       0.25000000       0.00000000 </v>
   <v>       0.25000000       0.25000000       0.00000000 </v>
   <v>       0.50000000       0.25000000       0.00000000 </v>
   <v>      -0.25000000       0.25000000       0.00000000 </v>
   <v>       0.00000000       0.50000000       0.00000000 </v>
   <v>       0.25000000       0.50000000       0.00000000 </v>
   <v>       0.50000000       0.50000000       0.00000000 </v>
   <v>       0.00000000       0.00000000       0.25000000 </v>
   <v>       0.25000000       0.00000000       0.25000000 </v>
   <v>       0.50000000       0.00000000       0.25000000 </v>
   <v>      -0.25000000       0.00000000       0.25000000 </v>
   <v>       0.00000000       0.25000000       0.25000000 </v>
   <v>       0.25000000       0.25000000       0.25000000 </v>
   <v>       0.50000000       0.25000000       0.25000000 </v>
   <v>      -0.25000000       0.25000000       0.25000000 </v>
   <v>       0.00000000       0.50000000       0.25000000 </v>
   <v>       0.25000000       0.50000000       0.25000000 </v>
   <v>       0.50000000       0.50000000       0.25000000 </v>
   <v>      -0.25000000       0.50000000       0.25000000 </v>
   <v>       0.00000000      -0.25000000       0.25000000 </v>
   <v>       0.25000000      -0.25000000       0.25000000 </v>
   <v>       0.50000000      -0.25000000       0.25000000 </v>
   <v>      -0.25000000      -0.25000000       0.25000000 </v>
   <v>       0.00000000       0.00000000       0.50000000 </v>
   <v>       0.25000000       0.00000000       0.50000000 </v>
   <v>       0.50000000       0.00000000       0.50000000 </v>
   <v>       0.00000000       0.25000000       0.50000000 </v>
   <v>       0.25000000       0.25000000       0.50000000 </v>
   <v>       0.50000000       0.25000000       0.50000000 </v>
   <v>      -0.25000000       0.25000000       0.50000000 </v>
   <v>       0.00000000       0.50000000       0.50000000 </v>
   <v>       0.25000000       0.50000000       0.50000000 </v>
   <v>       0.50000000       0.50000000       0.50000000 </v>
  </varray>
  <varray name="weights" >
   <v>       0.01562500 </v>
   <v>       0.03125000 </v>
   <v>       0.01562500 </v>
   <v>       0.03125000 </v>
   <v>       0.03125000 </v>
   <v>       0.03125000 </v>
   <v>       0.03125000 </v>
   <v>       0.01562500 </v>
   <v>       0.03125000 </v>
   <v>       0.01562500 </v>
   <v>       0.03125000 </v>
   <v>       0.03125000 </v>
   <v>       0.03125000 </v>
   <v>       0.03125000 </v>
   <v>       0.03125000 </v>
   <v>       0.03125000 </v>
   <v>       0.03125000 </v>
   <v>       0.03125000 </v>
   <v>       0.03125000 </v>
   <v>       0.03125000 </v>
   <v>       0.03125000 </v>
   <v>       0.03125000 </v>
   <v>       0.03125000 </v>
   <v>       0.03125000 </v>
   <v>       0.03125000 </v>
   <v>       0.03125000 </v>
   <v>       0.01562500 </v>
   <v>       0.03125000 </v>
   <v>       0.01562500 </v>
   <v>       0.03125000 </v>
   <v>       0.03125000 </v>
   <v>       0.03125000 </v>
   <v>       0.03125000 </v>
   <v>       0.01562500 </v>
   <v>       0.03125000 </v>
   <v>       0.01562500 </v>
  </varray>
 </kpoints>
 <parameters>
  <separator name="general" >
   <i type="string" name="SYSTEM">unknown system</i>
   <i type="logical" name="LCOMPAT"> F  </i>
  </separator>
  <separator name="electronic" >
   <i type="string" name="PREC">accura</i>
   <i name="ENMAX">    600.00000000</i>
   <i name="ENAUG">    644.87300000</i>
   <i name="EDIFF">      0.00000100</i>
   <i type="int" name="IALGO">    68</i>
   <i type="int" name="IWAVPR">    11</i>
   <i type="int" name="NBANDS">    44</i>
   <i name="NELECT">     64.00000000</i>
   <i type="int" name="TURBO">     0</i>
   <i type="int" name="IRESTART">     0</i>
   <i type="int" name="NREBOOT">     0</i>
   <i type="int" name="NMIN">     0</i>
   <i name="EREF">      0.00000000</i>
   <separator name="electronic smearing" >
    <i type="int" name="ISMEAR">     0</i>
    <i name="SIGMA">      0.10000000</i>
    <i name="KSPACING">      0.50000000</i>
    <i type="logical" name="KGAMMA"> T  </i>
   </separator>
   <separator name="electronic projectors" >
    <i type="logical" name="LREAL"> F  </i>
    <v name="ROPT">      0.00000000      0.00000000      0.00000000      0.00000000</v>
    <i type="int" name="LMAXPAW">  -100</i>
    <i type="int" name="LMAXMIX">     2</i>
    <i type="logical" name="NLSPLINE"> F  </i>
   </separator>
   <separator name="electronic startup" >
    <i type="int" name="ISTART">     0</i>
    <i type="int" name="ICHARG">     2</i>
    <i type="int" name="INIWAV">     1</i>
   </separator>
   <separator name="electronic spin" >
    <i type="int" name="ISPIN">     1</i>
    <i type="logical" name="LNONCOLLINEAR"> F  </i>
    <v name="MAGMOM">      1.00000000      1.00000000      1.00000000      1.00000000      1.00000000      1.00000000      1.00000000      1.00000000      1.00000000      1.00000000      1.00000000      1.00000000      1.00000000      1.00000000      1.00000000      1.00000000</v>
    <i name="NUPDOWN">     -1.00000000</i>
    <i type="logical" name="LSORBIT"> F  </i>
    <v name="SAXIS">      0.00000000      0.00000000      1.00000000</v>
    <i type="logical" name="LSPIRAL"> F  </i>
    <v name="QSPIRAL">      0.00000000      0.00000000      0.00000000</v>
    <i type="logical" name="LZEROZ"> F  </i>
   </separator>
   <separator name="electronic exchange-correlation" >
    <i type="logical" name="LASPH"> F  </i>
    <i type="logical" name="LMETAGGA"> F  </i>
   </separator>
   <separator name="electronic convergence" >
    <i type="int" name="NELM">   100</i>
    <i type="int" name="NELMDL">     0</i>
    <i type="int" name="NELMIN">     4</i>
    <i name="ENINI">    600.00000000</i>
    <separator name="electronic convergence detail" >
     <i type="logical" name="LDIAG"> T  </i>
     <i type="logical" name="LSUBROT"> F  </i>
     <i name="WEIMIN">      0.00100000</i>
     <i name="EBREAK">      0.00000001</i>
     <i name="DEPER">      0.30000000</i>
     <i type="int" name="NRMM">     4</i>
     <i name="TIME">      0.40000000</i>
    </separator>
   </separator>
   <separator name="electronic mixer" >
    <i name="AMIX">      0.40000000</i>
    <i name="BMIX">      1.00000000</i>
    <i name="AMIN">      0.10000000</i>
    <i name="AMIX_MAG">      1.60000000</i>
    <i name="BMIX_MAG">      1.00000000</i>
    <separator name="electronic mixer details" >
     <i type="int" name="IMIX">     4</i>
     <i type="int" name="MAXMIX">   -45</i>
     <i name="WC">    100.00000000</i>
     <i type="int" name="INIMIX">     1</i>
     <i type="int" name="MIXPRE">     1</i>
     <i type="int" name="MREMOVE">     5</i>
    </separator>
   </separator>
   <separator name="electronic dipolcorrection" >
    <i type="logical" name="LDIPOL"> F  </i>
    <i type="logical" name="LMONO"> F  </i>
    <i type="int" name="IDIPOL">     0</i>
    <i name="EPSILON">      1.00000000</i>
    <v name="DIPOL">   -100.00000000   -100.00000000   -100.00000000</v>
    <i name="EFIELD">      0.00000000</i>
   </separator>
  </separator>
  <separator name="grids" >
   <i type="int" name="NGX">    48</i>
   <i type="int" name="NGY">    48</i>
   <i type="int" name="NGZ">    50</i>
   <i type="int" name="NGXF">    96</i>
   <i type="int" name="NGYF">    96</i>
   <i type="int" name="NGZF">   100</i>
   <i type="logical" name="ADDGRID"> T  </i>
  </separator>
  <separator name="ionic" >
   <i type="int" name="NSW">    30</i>
   <i type="int" name="IBRION">     2</i>
   <i type="int" name="ISIF">     3</i>
   <i name="PSTRESS">      0.00000000</i>
   <i name="EDIFFG">     -0.02000000</i>
   <i type="int" name="NFREE">     1</i>
   <i name="POTIM">      0.50000000</i>
   <i name="SMASS">     -3.00000000</i>
   <i name="SCALEE">      1.00000000</i>
  </separator>
  <separator name="ionic md" >
   <i name="TEBEG">      0.00010000</i>
   <i name="TEEND">      0.00010000</i>
   <i type="int" name="NBLOCK">     1</i>
   <i type="int" name="KBLOCK">    30</i>
   <i type="int" name="NPACO">   256</i>
   <i name="APACO">     16.00000000</i>
  </separator>
  <separator name="symmetry" >
   <i type="int" name="ISYM">     2</i>
   <i name="SYMPREC">      0.00001000</i>
  </separator>
  <separator name="dos" >
   <i type="logical" name="LORBIT"> F  </i>
   <v name="RWIGS">     -1.00000000     -1.00000000     -1.00000000     -1.00000000</v>
   <i type="int" name="NEDOS">   301</i>
   <i name="EMIN">     10.00000000</i>
   <i name="EMAX">    -10.00000000</i>
   <i name="EFERMI">      0.00000000</i>
  </separator>
  <separator name="writing" >
   <i type="int" name="NWRITE">     2</i>
   <i type="logical" name="LWAVE"> F  </i>
   <i type="logical" name="LCHARG"> F  </i>
   <i type="logical" name="LPARD"> F  </i>
   <i type="logical" name="LVTOT"> F  </i>
   <i type="logical" name="LVHAR"> F  </i>
   <i type="logical" name="LELF"> F  </i>
   <i type="logical" name="LOPTICS"> F  </i>
   <v name="STM">      0.00000000      0.00000000      0.00000000      0.00000000      0.00000000      0.00000000      0.00000000</v>
  </separator>
  <separator name="performance" >
   <i type="int" name="NPAR">     4</i>
   <i type="int" name="NSIM">     4</i>
   <i type="int" name="NBLK">    -1</i>
   <i type="logical" name="LPLANE"> T  </i>
   <i type="logical" name="LSCALAPACK"> T  </i>
   <i type="logical" name="LSCAAWARE"> F  </i>
   <i type="logical" name="LSCALU"> F  </i>
   <i type="logical" name="LASYNC"> F  </i>
   <i type="logical" name="LORBITALREAL"> F  </i>
  </separator>
  <separator name="miscellaneous" >
   <i type="int" name="IDIOT">     3</i>
   <i type="logical" name="LMUSIC"> F  </i>
   <v name="POMASS">     28.08500000     26.98100000     12.01100000     14.00100000</v>
   <v name="DARWINR">      0.00000000      0.00000000      0.00000000      0.00000000</v>
   <v name="DARWINV">      1.00000000      1.00000000      1.00000000      1.00000000</v>
   <i type="logical" name="LCORR"> T  </i>
  </separator>
  <i type="logical" name="GGA_COMPAT"> T  </i>
  <i type="logical" name="LBERRY"> F  </i>
  <i type="int" name="ICORELEVEL">     0</i>
  <i type="logical" name="LDAU"> F  </i>
  <i type="int" name="I_CONSTRAINED_M">     0</i>
  <separator name="electronic exchange-correlation" >
   <i type="string" name="GGA">--</i>
   <i type="int" name="VOSKOWN">     0</i>
   <i type="logical" name="LHFCALC"> F  </i>
   <i type="string" name="PRECFOCK"></i>
   <i type="logical" name="LSYMGRAD"> F  </i>
   <i type="logical" name="LHFONE"> F  </i>
   <i type="logical" name="LRHFCALC"> F  </i>
   <i type="logical" name="LTHOMAS"> F  </i>
   <i type="logical" name="LMODELHF"> F  </i>
   <i name="ENCUT4O">     -1.00000000</i>
   <i type="int" name="EXXOEP">     0</i>
   <i type="int" name="FOURORBIT">     0</i>
   <i name="AEXX">      0.00000000</i>
   <i name="HFALPHA">      0.00000000</i>
   <i name="MCALPHA">      0.00000000</i>
   <i name="ALDAX">      1.00000000</i>
   <i name="AGGAX">      1.00000000</i>
   <i name="ALDAC">      1.00000000</i>
   <i name="AGGAC">      1.00000000</i>
   <i type="int" name="NKREDX">     1</i>
   <i type="int" name="NKREDY">     1</i>
   <i type="int" name="NKREDZ">     1</i>
   <i type="logical" name="SHIFTRED"> F  </i>
   <i type="logical" name="ODDONLY"> F  </i>
   <i type="logical" name="EVENONLY"> F  </i>
   <i type="int" name="LMAXFOCK">     0</i>
   <i type="int" name="NMAXFOCKAE">     0</i>
   <i type="logical" name="LFOCKAEDFT"> F  </i>
   <i name="HFSCREEN">      0.00000000</i>
   <i name="HFSCREENC">      0.00000000</i>
   <i type="int" name="NBANDSGWLOW">     0</i>
  </separator>
  <separator name="vdW DFT" >
   <i type="logical" name="LUSE_VDW"> F  </i>
   <i name="Zab_VDW">     -0.84910000</i>
   <i name="PARAM1">      0.12340000</i>
   <i name="PARAM2">      1.00000000</i>
   <i name="PARAM3">      0.00000000</i>
  </separator>
  <separator name="model GW" >
   <i type="int" name="MODEL_GW">     0</i>
   <i name="MODEL_EPS0">      6.39718082</i>
   <i name="MODEL_ALPHA">      1.00000000</i>
  </separator>
  <separator name="linear response parameters" >
   <i type="logical" name="LEPSILON"> F  </i>
   <i type="logical" name="LRPA"> F  </i>
   <i type="logical" name="LNABLA"> F  </i>
   <i type="logical" name="LVEL"> F  </i>
   <i type="int" name="KINTER">     0</i>
   <i name="CSHIFT">      0.10000000</i>
   <i name="OMEGAMAX">     -1.00000000</i>
   <i name="DEG_THRESHOLD">      0.00200000</i>
  </separator>
  <separator name="orbital magnetization" >
   <i type="logical" name="NUCIND"> F  </i>
   <v name="MAGPOS">      0.00000000      0.00000000      0.00000000</v>
   <i type="logical" name="LNICSALL"> T  </i>
   <i type="logical" name="ORBITALMAG"> F  </i>
   <i type="logical" name="LMAGBLOCH"> F  </i>
   <i type="logical" name="LCHIMAG"> F  </i>
   <i type="logical" name="LGAUGE"> T  </i>
   <i type="int" name="MAGATOM">     0</i>
   <v name="MAGDIPOL">      0.00000000      0.00000000      0.00000000</v>
   <v name="AVECCONST">      0.00000000      0.00000000      0.00000000</v>
  </separator>
  <separator name="response functions" >
   <i type="logical" name="LADDER"> F  </i>
   <i type="logical" name="LFXC"> F  </i>
   <i type="logical" name="LHARTREE"> T  </i>
   <i type="int" name="IBSE">     0</i>
   <i type="logical" name="LTCTE"> F  </i>
   <i type="logical" name="LTETE"> F  </i>
   <i type="logical" name="LTRIPLET"> F  </i>
   <i type="logical" name="LFXCEPS"> F  </i>
   <i type="logical" name="LFXHEG"> F  </i>
   <i type="logical" name="L2ORDER"> F  </i>
   <i type="logical" name="LUSEW"> F  </i>
   <i name="ENCUTGW">     -2.00000000</i>
   <i name="ENCUTGWSOFT">     -2.00000000</i>
   <i name="ENCUTLF">     -1.00000000</i>
   <i type="int" name="LMAXMP2">    -1</i>
   <i name="SCISSOR">      0.00000000</i>
   <i type="int" name="NOMEGA">     0</i>
   <i type="int" name="NOMEGAR">     0</i>
   <i type="int" name="NBANDSGW">    -1</i>
   <i type="int" name="NBANDSO">    -1</i>
   <i type="int" name="NBANDSV">    -1</i>
   <i type="int" name="NELM">   100</i>
   <i type="int" name="DIM">     3</i>
   <i type="int" name="ANTIRES">     0</i>
   <i name="OMEGAMAX">    -30.00000000</i>
   <i name="OMEGAMIN">    -30.00000000</i>
   <i name="OMEGATL">   -200.00000000</i>
   <i type="int" name="OMEGAGRID">     0</i>
   <i name="CSHIFT">     -0.10000000</i>
   <i type="logical" name="SELFENERGY"> F  </i>
   <i type="logical" name="LSPECTRAL"> F  </i>
   <i type="logical" name="ODDONLYGW"> F  </i>
   <i type="logical" name="EVENONLYGW"> F  </i>
   <i type="int" name="NKREDLFX">     1</i>
   <i type="int" name="NKREDLFY">     1</i>
   <i type="int" name="NKREDLFZ">     1</i>
   <i type="int" name="MAXMEM">  1800</i>
   <i type="int" name="TELESCOPE">     0</i>
   <i type="int" name="TAUPAR">     1</i>
  </separator>
  <separator name="External order field" >
   <i name="OFIELD_KAPPA">      0.00000000</i>
   <v name="OFIELD_K">      0.00000000      0.00000000      0.00000000</v>
   <i name="OFIELD_Q6_NEAR">      0.00000000</i>
   <i name="OFIELD_Q6_FAR">      0.00000000</i>
   <i name="OFIELD_A">      0.00000000</i>
  </separator>
 </parameters>
 <atominfo>
  <atoms>      16 </atoms>
  <types>       4 </types>
  <array name="atoms" >
   <dimension dim="1">ion</dimension>
   <field type="string">element</field>
   <field type="int">atomtype</field>
   <set>
    <rc><c>Si</c><c>   1</c></rc>
    <rc><c>Si</c><c>   1</c></rc>
    <rc><c>Si</c><c>   1</c></rc>
    <rc><c>Si</c><c>   1</c></rc>
    <rc><c>Al</c><c>   2</c></rc>
    <rc><c>Al</c><c>   2</c></rc>
    <rc><c>Al</c><c>   2</c></rc>
    <rc><c>Al</c><c>   2</c></rc>
    <rc><c>C </c><c>   3</c></rc>
    <rc><c>C </c><c>   3</c></rc>
    <rc><c>C </c><c>   3</c></rc>
    <rc><c>C </c><c>   3</c></rc>
    <rc><c>N </c><c>   4</c></rc>
    <rc><c>N </c><c>   4</c></rc>
    <rc><c>N </c><c>   4</c></rc>
    <rc><c>N </c><c>   4</c></rc>
   </set>
  </array>
  <array name="atomtypes" >
   <dimension dim="1">type</dimension>
   <field type="int">atomspertype</field>
   <field type="string">element</field>
   <field>mass</field>
   <field>valence</field>
   <field type="string">pseudopotential</field>
   <set>
    <rc><c>   4</c><c>Si</c><c>     28.08500000</c><c>      4.00000000</c><c>  PAW_PBE Si 05Jan2001                  </c></rc>
    <rc><c>   4</c><c>Al</c><c>     26.98100000</c><c>      3.00000000</c><c>  PAW_PBE Al 04Jan2001                  </c></rc>
    <rc><c>   4</c><c>C </c><c>     12.01100000</c><c>      4.00000000</c><c>  PAW_PBE C 08Apr2002                   </c></rc>
    <rc><c>   4</c><c>N </c><c>     14.00100000</c><c>      5.00000000</c><c>  PAW_PBE N_s 07Sep2000                 </c></rc>
   </set>
  </array>
 </atominfo>
 <structure name="initialpos" >
  <crystal>
   <varray name="basis" >
    <v>       5.90597594      -0.01465364       0.00583126 </v>
    <v>      -2.60170024       5.31930866       0.01240845 </v>
    <v>      -1.64673546      -2.63714254       5.42765938 </v>
   </varray>
   <i name="volume">    170.59148842 </i>
   <varray name="rec_basis" >
    <v>       0.16943470       0.08265775       0.09156699 </v>
    <v>       0.00037609       0.18796499       0.09144085 </v>
    <v>      -0.00018289      -0.00051852       0.18393406 </v>
   </varray>
  </crystal>
  <varray name="positions" >
   <v>       0.65731849       0.66662347       0.33070424 </v>
   <v>       0.65316716       0.66978401       0.83150270 </v>
   <v>       0.57975957       0.07274122       0.65840604 </v>
   <v>       0.08539936       0.58266227       0.66128828 </v>
   <v>       0.16853365       0.17163575       0.33630230 </v>
   <v>       0.16533892       0.17465582       0.83458713 </v>
   <v>       0.58599795       0.08398811       0.17129602 </v>
   <v>       0.09067324       0.58727193       0.17371703 </v>
   <v>       0.77164606       0.87424912       0.16044179 </v>
   <v>       0.76076679       0.88667644       0.66198458 </v>
   <v>       0.28901300       0.39908366       0.17169774 </v>
   <v>       0.27368102       0.41344393       0.67157706 </v>
   <v>       0.36982289       0.98521606       0.35325364 </v>
   <v>       0.35198618       0.96834686       0.81635760 </v>
   <v>       0.85880436       0.49252045       0.35225598 </v>
   <v>       0.83809137       0.47110089       0.81462786 </v>
  </varray>
 </structure>
 <calculation>
  <scstep>
   <time name="dav">    1.22    1.22</time>
   <time name="total">    1.31    1.32</time>
   <energy>
    <i name="alphaZ">     63.75813890 </i>
    <i name="ewald">  -2270.84148988 </i>
    <i name="hartreedc">   -358.64892424 </i>
    <i name="XCdc">     -5.56427107 </i>
    <i name="pawpsdc">   1871.13760811 </i>
    <i name="pawaedc">  -1679.96522576 </i>
    <i name="eentropy">     -0.01117966 </i>
    <i name="bandstr">    444.19036906 </i>
    <i name="atom">   2273.20978491 </i>
    <i name="e_fr_energy">    337.26481038 </i>
    <i name="e_wo_entrp">    337.27599004 </i>
    <i name="e_0_energy">    337.27040021 </i>
   </energy>
  </scstep>
  <scstep>
   <time name="dav">    1.36    1.36</time>
   <time name="total">    1.36    1.37</time>
   <energy>
    <i name="e_fr_energy">   -101.15597055 </i>
    <i name="e_wo_entrp">   -101.15597055 </i>
    <i name="e_0_energy">   -101.15597055 </i>
   </energy>
  </scstep>
  <scstep>
   <time name="dav">    1.45    1.45</time>
   <time name="total">    1.45    1.46</time>
   <energy>
    <i name="e_fr_energy">   -134.00947421 </i>
    <i name="e_wo_entrp">   -134.00947421 </i>
    <i name="e_0_energy">   -134.00947421 </i>
   </energy>
  </scstep>
  <scstep>
   <time name="dav">    1.44    1.44</time>
   <time name="total">    1.44    1.46</time>
   <energy>
    <i name="e_fr_energy">   -134.85533077 </i>
    <i name="e_wo_entrp">   -134.85533077 </i>
    <i name="e_0_energy">   -134.85533077 </i>
   </energy>
  </scstep>
  <scstep>
   <time name="dav">    1.39    1.39</time>
   <time name="total">    1.55    1.56</time>
   <energy>
    <i name="e_fr_energy">   -134.88149169 </i>
    <i name="e_wo_entrp">   -134.88149169 </i>
    <i name="e_0_energy">   -134.88149169 </i>
   </energy>
  </scstep>
  <scstep>
   <time name="diag">    0.28    0.28</time>
   <time name="diis">    1.00    1.00</time>
   <time name="orth">    0.04    0.04</time>
   <time name="total">    1.57    1.59</time>
   <energy>
    <i name="e_fr_energy">   -116.73597045 </i>
    <i name="e_wo_entrp">   -116.73597045 </i>
    <i name="e_0_energy">   -116.73597045 </i>
   </energy>
  </scstep>
  <scstep>
   <time name="diag">    0.28    0.28</time>
   <time name="diis">    1.00    1.00</time>
   <time name="orth">    0.04    0.04</time>
   <time name="total">    1.57    1.58</time>
   <energy>
    <i name="e_fr_energy">   -116.53562873 </i>
    <i name="e_wo_entrp">   -116.53562873 </i>
    <i name="e_0_energy">   -116.53562873 </i>
   </energy>
  </scstep>
  <scstep>
   <time name="diag">    0.28    0.28</time>
   <time name="diis">    0.98    0.98</time>
   <time name="orth">    0.04    0.04</time>
   <time name="total">    1.54    1.55</time>
   <energy>
    <i name="e_fr_energy">   -116.68481223 </i>
    <i name="e_wo_entrp">   -116.68481223 </i>
    <i name="e_0_energy">   -116.68481223 </i>
   </energy>
  </scstep>
  <scstep>
   <time name="diag">    0.28    0.28</time>
   <time name="diis">    0.96    0.96</time>
   <time name="orth">    0.04    0.04</time>
   <time name="total">    1.53    1.54</time>
   <energy>
    <i name="e_fr_energy">   -116.38861096 </i>
    <i name="e_wo_entrp">   -116.38861096 </i>
    <i name="e_0_energy">   -116.38861096 </i>
   </energy>
  </scstep>
  <scstep>
   <time name="diag">    0.28    0.28</time>
   <time name="diis">    0.97    0.97</time>
   <time name="orth">    0.04    0.04</time>
   <time name="total">    1.54    1.55</time>
   <energy>
    <i name="e_fr_energy">   -116.39517303 </i>
    <i name="e_wo_entrp">   -116.39517303 </i>
    <i name="e_0_energy">   -116.39517303 </i>
   </energy>
  </scstep>
  <scstep>
   <time name="diag">    0.28    0.28</time>
   <time name="diis">    0.92    0.93</time>
   <time name="orth">    0.04    0.04</time>
   <time name="total">    1.49    1.50</time>
   <energy>
    <i name="e_fr_energy">   -116.39305957 </i>
    <i name="e_wo_entrp">   -116.39305957 </i>
    <i name="e_0_energy">   -116.39305957 </i>
   </energy>
  </scstep>
  <scstep>
   <time name="diag">    0.28    0.28</time>
   <time name="diis">    0.97    0.97</time>
   <time name="orth">    0.04    0.04</time>
   <time name="total">    1.53    1.54</time>
   <energy>
    <i name="e_fr_energy">   -116.39290828 </i>
    <i name="e_wo_entrp">   -116.39290828 </i>
    <i name="e_0_energy">   -116.39290828 </i>
   </energy>
  </scstep>
  <scstep>
   <time name="diag">    0.28    0.28</time>
   <time name="diis">    0.92    0.92</time>
   <time name="orth">    0.04    0.04</time>
   <time name="total">    1.48    1.50</time>
   <energy>
    <i name="e_fr_energy">   -116.39292037 </i>
    <i name="e_wo_entrp">   -116.39292037 </i>
    <i name="e_0_energy">   -116.39292037 </i>
   </energy>
  </scstep>
  <scstep>
   <time name="diag">    0.28    0.28</time>
   <time name="diis">    0.92    0.92</time>
   <time name="orth">    0.04    0.04</time>
   <time name="total">    1.48    1.50</time>
   <energy>
    <i name="e_fr_energy">   -116.39292177 </i>
    <i name="e_wo_entrp">   -116.39292177 </i>
    <i name="e_0_energy">   -116.39292177 </i>
   </energy>
  </scstep>
  <scstep>
   <time name="diag">    0.28    0.28</time>
   <time name="diis">    0.65    0.65</time>
   <time name="orth">    0.04    0.04</time>
   <time name="total">    1.06    1.07</time>
   <energy>
    <i name="alphaZ">     63.75813890 </i>
    <i name="ewald">  -2270.84148988 </i>
    <i name="hartreedc">   -466.45266079 </i>
    <i name="XCdc">      4.03761007 </i>
    <i name="pawpsdc">  10069.79335862 </i>
    <i name="pawaedc">  -9882.76937462 </i>
    <i name="eentropy">      0.00000000 </i>
    <i name="bandstr">     92.87171119 </i>
    <i name="atom">   2273.20978491 </i>
    <i name="e_fr_energy">   -116.39292158 </i>
    <i name="e_wo_entrp">   -116.39292158 </i>
    <i name="e_0_energy">   -116.39292158 </i>
   </energy>
  </scstep>
  <structure>
   <crystal>
    <varray name="basis" >
     <v>       5.90597594      -0.01465364       0.00583126 </v>
     <v>      -2.60170024       5.31930866       0.01240845 </v>
     <v>      -1.64673546      -2.63714254       5.42765938 </v>
    </varray>
    <i name="volume">    170.59148842 </i>
    <varray name="rec_basis" >
     <v>       0.16943470       0.08265775       0.09156699 </v>
     <v>       0.00037609       0.18796499       0.09144085 </v>
     <v>      -0.00018289      -0.00051852       0.18393406 </v>
    </varray>
   </crystal>
   <varray name="positions" >
    <v>       0.65731849       0.66662347       0.33070424 </v>
    <v>       0.65316716       0.66978401       0.83150270 </v>
    <v>       0.57975957       0.07274122       0.65840604 </v>
    <v>       0.08539936       0.58266227       0.66128828 </v>
    <v>       0.16853365       0.17163575       0.33630230 </v>
    <v>       0.16533892       0.17465582       0.83458713 </v>
    <v>       0.58599795       0.08398811       0.17129602 </v>
    <v>       0.09067324       0.58727193       0.17371703 </v>
    <v>       0.77164606       0.87424912       0.16044179 </v>
    <v>       0.76076679       0.88667644       0.66198458 </v>
    <v>       0.28901300       0.39908366       0.17169774 </v>
    <v>       0.27368102       0.41344393       0.67157706 </v>
    <v>       0.36982289       0.98521606       0.35325364 </v>
    <v>       0.35198618       0.96834686       0.81635760 </v>
    <v>       0.85880436       0.49252045       0.35225598 </v>
    <v>       0.83809137       0.47110089       0.81462786 </v>
   </varray>
  </structure>
  <varray name="forces" >
   <v>      -0.00090001       0.00361160       0.00390283 </v>
   <v>      -0.00047315       0.00113253       0.00936867 </v>
   <v>       0.01088573      -0.00782505      -0.00785918 </v>
   <v>       0.00211148       0.00549201      -0.00382786 </v>
   <v>       0.00443864      -0.00097552       0.00274546 </v>
   <v>       0.00220311      -0.00552091       0.01399510 </v>
   <v>       0.00180978      -0.00074884       0.00310531 </v>
   <v>      -0.00067943       0.00743130       0.00204409 </v>
   <v>       0.00579160      -0.00465024      -0.01000087 </v>
   <v>      -0.00428476       0.00181508      -0.00179012 </v>
   <v>      -0.01178754      -0.00096106      -0.01181411 </v>
   <v>       0.00180739      -0.00403432      -0.00365682 </v>
   <v>      -0.00274355       0.00304794       0.00435375 </v>
   <v>      -0.00500236       0.00079121      -0.00316641 </v>
   <v>      -0.00360773      -0.00055935       0.00131059 </v>
   <v>       0.00043080       0.00195361       0.00128954 </v>
  </varray>
  <varray name="stress" >
   <v>       0.11639700       0.21738960      -0.00218007 </v>
   <v>       0.21738964       0.26326030      -0.07163292 </v>
   <v>      -0.00217990      -0.07163274      -0.21988841 </v>
  </varray>
  <energy>
   <i name="e_fr_energy">   -116.39292158 </i>
   <i name="e_wo_entrp">   -116.39292158 </i>
   <i name="e_0_energy">      0.00000000 </i>
  </energy>
  <time name="totalsc">   24.89   25.16</time>
  <eigenvalues>
   <array>
    <dimension dim="1">band</dimension>
    <dimension dim="2">kpoint</dimension>
    <dimension dim="3">spin</dimension>
    <field>eigene</field>
    <field>occ</field>
    <set>
     <set comment="spin 1">
      <set comment="kpoint 1">
       <r>   -9.3463    1.0000 </r>
       <r>   -7.5853    1.0000 </r>
       <r>   -7.5265    1.0000 </r>
       <r>   -7.2982    1.0000 </r>
       <r>   -4.5733    1.0000 </r>
       <r>   -3.1435    1.0000 </r>
       <r>   -2.9799    1.0000 </r>
       <r>   -2.1512    1.0000 </r>
       <r>   -1.2017    1.0000 </r>
       <r>   -0.5685    1.0000 </r>
       <r>    0.0680    1.0000 </r>
       <r>    0.4088    1.0000 </r>
       <r>    0.8329    1.0000 </r>
       <r>    1.0131    1.0000 </r>
       <r>    2.3551    1.0000 </r>
       <r>    2.4748    1.0000 </r>
       <r>    3.2735    1.0000 </r>
       <r>    3.3843    1.0000 </r>
       <r>    4.1723    1.0000 </r>
       <r>    4.6733    1.0000 </r>
       <r>    4.7732    1.0000 </r>
       <r>    4.8341    1.0000 </r>
       <r>    5.0768    1.0000 </r>
       <r>    5.1513    1.0000 </r>
       <r>    5.1857    1.0000 </r>
       <r>    6.0898    1.0000 </r>
       <r>    6.3315    1.0000 </r>
       <r>    6.4850    1.0000 </r>
       <r>    7.0622    1.0000 </r>
       <r>    7.1131    1.0000 </r>
       <r>    8.0073    1.0000 </r>
       <r>    8.3226    1.0000 </r>
       <r>    9.7279    0.0000 </r>
       <r>   10.2237    0.0000 </r>
       <r>   10.8793    0.0000 </r>
       <r>   11.3458    0.0000 </r>
       <r>   11.8941    0.0000 </r>
       <r>   12.0421    0.0000 </r>
       <r>   12.2341    0.0000 </r>
       <r>   13.3406    0.0000 </r>
       <r>   13.4407    0.0000 </r>
       <r>   13.6600    0.0000 </r>
       <r>   14.6148    0.0000 </r>
       <r>   14.7763    0.0000 </r>
      </set>
      <set comment="kpoint 2">
       <r>   -9.1401    1.0000 </r>
       <r>   -7.9343    1.0000 </r>
       <r>   -7.5250    1.0000 </r>
       <r>   -7.2787    1.0000 </r>
       <r>   -4.6266    1.0000 </r>
       <r>   -3.4257    1.0000 </r>
       <r>   -2.8688    1.0000 </r>
       <r>   -2.4725    1.0000 </r>
       <r>   -0.7916    1.0000 </r>
       <r>   -0.1902    1.0000 </r>
       <r>    0.4355    1.0000 </r>
       <r>    0.8210    1.0000 </r>
       <r>    1.0433    1.0000 </r>
       <r>    1.9504    1.0000 </r>
       <r>    2.1796    1.0000 </r>
       <r>    2.6025    1.0000 </r>
       <r>    2.9000    1.0000 </r>
       <r>    3.1695    1.0000 </r>
       <r>    3.9567    1.0000 </r>
       <r>    4.1483    1.0000 </r>
       <r>    4.2158    1.0000 </r>
       <r>    4.4714    1.0000 </r>
       <r>    4.7362    1.0000 </r>
       <r>    5.2374    1.0000 </r>
       <r>    5.4135    1.0000 </r>
       <r>    5.8240    1.0000 </r>
       <r>    6.1723    1.0000 </r>
       <r>    6.2412    1.0000 </r>
       <r>    6.5685    1.0000 </r>
       <r>    6.6795    1.0000 </r>
       <r>    7.2286    1.0000 </r>
       <r>    8.1715    1.0000 </r>
       <r>   10.6833    0.0000 </r>
       <r>   10.8334    0.0000 </r>
       <r>   11.2342    0.0000 </r>
       <r>   11.6673    0.0000 </r>
       <r>   12.2661    0.0000 </r>
       <r>   12.6370    0.0000 </r>
       <r>   12.8845    0.0000 </r>
       <r>   13.6775    0.0000 </r>
       <r>   13.9164    0.0000 </r>
       <r>   14.4390    0.0000 </r>
       <r>   14.6895    0.0000 </r>
       <r>   15.1375    0.0000 </r>
      </set>
      <set comment="kpoint 3">
       <r>   -8.6622    1.0000 </r>
       <r>   -8.5131    1.0000 </r>
       <r>   -7.5325    1.0000 </r>
       <r>   -7.2871    1.0000 </r>
       <r>   -4.6596    1.0000 </r>
       <r>   -3.7063    1.0000 </r>
       <r>   -2.8156    1.0000 </r>
       <r>   -2.6221    1.0000 </r>
       <r>   -0.1452    1.0000 </r>
       <r>    0.2635    1.0000 </r>
       <r>    0.8291    1.0000 </r>
       <r>    1.1139    1.0000 </r>
       <r>    1.4829    1.0000 </r>
       <r>    1.9171    1.0000 </r>
       <r>    2.2822    1.0000 </r>
       <r>    2.4658    1.0000 </r>
       <r>    2.9326    1.0000 </r>
       <r>    2.9767    1.0000 </r>
       <r>    3.7000    1.0000 </r>
       <r>    3.9568    1.0000 </r>
       <r>    4.2682    1.0000 </r>
       <r>    4.3869    1.0000 </r>
       <r>    4.5371    1.0000 </r>
       <r>    4.7110    1.0000 </r>
       <r>    4.9691    1.0000 </r>
       <r>    5.1445    1.0000 </r>
       <r>    5.8239    1.0000 </r>
       <r>    6.0955    1.0000 </r>
       <r>    6.3811    1.0000 </r>
       <r>    6.4704    1.0000 </r>
       <r>    6.8429    1.0000 </r>
       <r>    8.0020    1.0000 </r>
       <r>   11.4783    0.0000 </r>
       <r>   11.6759    0.0000 </r>
       <r>   11.8816    0.0000 </r>
       <r>   11.9670    0.0000 </r>
       <r>   12.8848    0.0000 </r>
       <r>   13.0631    0.0000 </r>
       <r>   13.5883    0.0000 </r>
       <r>   13.7136    0.0000 </r>
       <r>   14.1285    0.0000 </r>
       <r>   14.5229    0.0000 </r>
       <r>   14.6747    0.0000 </r>
       <r>   14.9709    0.0000 </r>
      </set>
      <set comment="kpoint 4">
       <r>   -9.1407    1.0000 </r>
       <r>   -7.9332    1.0000 </r>
       <r>   -7.5283    1.0000 </r>
       <r>   -7.2793    1.0000 </r>
       <r>   -4.6124    1.0000 </r>
       <r>   -3.3916    1.0000 </r>
       <r>   -2.9297    1.0000 </r>
       <r>   -2.4695    1.0000 </r>
       <r>   -0.7915    1.0000 </r>
       <r>   -0.1776    1.0000 </r>
       <r>    0.4388    1.0000 </r>
       <r>    0.8405    1.0000 </r>
       <r>    1.1430    1.0000 </r>
       <r>    1.8364    1.0000 </r>
       <r>    2.0866    1.0000 </r>
       <r>    2.5127    1.0000 </r>
       <r>    2.9724    1.0000 </r>
       <r>    3.2615    1.0000 </r>
       <r>    3.9252    1.0000 </r>
       <r>    4.1539    1.0000 </r>
       <r>    4.2969    1.0000 </r>
       <r>    4.5947    1.0000 </r>
       <r>    4.7209    1.0000 </r>
       <r>    5.0711    1.0000 </r>
       <r>    5.3309    1.0000 </r>
       <r>    5.8228    1.0000 </r>
       <r>    6.2418    1.0000 </r>
       <r>    6.3509    1.0000 </r>
       <r>    6.4801    1.0000 </r>
       <r>    6.7097    1.0000 </r>
       <r>    7.1616    1.0000 </r>
       <r>    8.1731    1.0000 </r>
       <r>   10.6908    0.0000 </r>
       <r>   10.9125    0.0000 </r>
       <r>   11.2485    0.0000 </r>
       <r>   11.7559    0.0000 </r>
       <r>   12.1634    0.0000 </r>
       <r>   12.6425    0.0000 </r>
       <r>   12.9904    0.0000 </r>
       <r>   13.5893    0.0000 </r>
       <r>   14.0346    0.0000 </r>
       <r>   14.3858    0.0000 </r>
       <r>   14.6363    0.0000 </r>
       <r>   15.3084    0.0000 </r>
      </set>
      <set comment="kpoint 5">
       <r>   -8.6921    1.0000 </r>
       <r>   -8.4777    1.0000 </r>
       <r>   -7.5398    1.0000 </r>
       <r>   -7.2811    1.0000 </r>
       <r>   -4.7457    1.0000 </r>
       <r>   -3.5241    1.0000 </r>
       <r>   -2.8929    1.0000 </r>
       <r>   -2.6190    1.0000 </r>
       <r>   -0.0280    1.0000 </r>
       <r>    0.0580    1.0000 </r>
       <r>    0.8447    1.0000 </r>
       <r>    1.1774    1.0000 </r>
       <r>    1.5185    1.0000 </r>
       <r>    1.7149    1.0000 </r>
       <r>    2.3053    1.0000 </r>
       <r>    2.5487    1.0000 </r>
       <r>    2.8152    1.0000 </r>
       <r>    3.0569    1.0000 </r>
       <r>    3.4904    1.0000 </r>
       <r>    4.2024    1.0000 </r>
       <r>    4.3032    1.0000 </r>
       <r>    4.4363    1.0000 </r>
       <r>    4.4616    1.0000 </r>
       <r>    4.9832    1.0000 </r>
       <r>    5.2027    1.0000 </r>
       <r>    5.3021    1.0000 </r>
       <r>    5.4362    1.0000 </r>
       <r>    5.8990    1.0000 </r>
       <r>    6.3651    1.0000 </r>
       <r>    6.5110    1.0000 </r>
       <r>    6.6825    1.0000 </r>
       <r>    8.0149    1.0000 </r>
       <r>   11.4106    0.0000 </r>
       <r>   11.7028    0.0000 </r>
       <r>   11.8127    0.0000 </r>
       <r>   12.2517    0.0000 </r>
       <r>   12.7434    0.0000 </r>
       <r>   13.2192    0.0000 </r>
       <r>   13.6307    0.0000 </r>
       <r>   13.8049    0.0000 </r>
       <r>   14.1411    0.0000 </r>
       <r>   14.3290    0.0000 </r>
       <r>   14.4937    0.0000 </r>
       <r>   15.0286    0.0000 </r>
      </set>
      <set comment="kpoint 6">
       <r>   -8.9984    1.0000 </r>
       <r>   -8.0230    1.0000 </r>
       <r>   -7.5291    1.0000 </r>
       <r>   -7.2795    1.0000 </r>
       <r>   -5.1649    1.0000 </r>
       <r>   -3.3493    1.0000 </r>
       <r>   -2.7812    1.0000 </r>
       <r>   -2.4711    1.0000 </r>
       <r>   -0.4715    1.0000 </r>
       <r>   -0.0671    1.0000 </r>
       <r>    0.6957    1.0000 </r>
       <r>    1.0700    1.0000 </r>
       <r>    1.7026    1.0000 </r>
       <r>    2.0065    1.0000 </r>
       <r>    2.2995    1.0000 </r>
       <r>    2.7518    1.0000 </r>
       <r>    2.7711    1.0000 </r>
       <r>    3.0431    1.0000 </r>
       <r>    3.4481    1.0000 </r>
       <r>    3.9542    1.0000 </r>
       <r>    4.0525    1.0000 </r>
       <r>    4.3248    1.0000 </r>
       <r>    4.7368    1.0000 </r>
       <r>    4.9418    1.0000 </r>
       <r>    5.1071    1.0000 </r>
       <r>    5.6564    1.0000 </r>
       <r>    6.0196    1.0000 </r>
       <r>    6.3470    1.0000 </r>
       <r>    6.4062    1.0000 </r>
       <r>    6.4615    1.0000 </r>
       <r>    7.0966    1.0000 </r>
       <r>    8.1472    1.0000 </r>
       <r>   10.7726    0.0000 </r>
       <r>   11.0328    0.0000 </r>
       <r>   11.5127    0.0000 </r>
       <r>   12.0976    0.0000 </r>
       <r>   12.2591    0.0000 </r>
       <r>   12.6064    0.0000 </r>
       <r>   13.2178    0.0000 </r>
       <r>   13.5861    0.0000 </r>
       <r>   14.2304    0.0000 </r>
       <r>   14.5517    0.0000 </r>
       <r>   14.7650    0.0000 </r>
       <r>   15.0279    0.0000 </r>
      </set>
      <set comment="kpoint 7">
       <r>   -9.2473    1.0000 </r>
       <r>   -7.5976    1.0000 </r>
       <r>   -7.5721    1.0000 </r>
       <r>   -7.2942    1.0000 </r>
       <r>   -5.0651    1.0000 </r>
       <r>   -3.2499    1.0000 </r>
       <r>   -2.8142    1.0000 </r>
       <r>   -2.2460    1.0000 </r>
       <r>   -0.8935    1.0000 </r>
       <r>   -0.3025    1.0000 </r>
       <r>    0.3594    1.0000 </r>
       <r>    0.6489    1.0000 </r>
       <r>    1.0242    1.0000 </r>
       <r>    1.6191    1.0000 </r>
       <r>    1.7639    1.0000 </r>
       <r>    3.1191    1.0000 </r>
       <r>    3.3106    1.0000 </r>
       <r>    3.5710    1.0000 </r>
       <r>    3.6619    1.0000 </r>
       <r>    3.7307    1.0000 </r>
       <r>    4.2600    1.0000 </r>
       <r>    4.8533    1.0000 </r>
       <r>    5.1092    1.0000 </r>
       <r>    5.2226    1.0000 </r>
       <r>    5.3664    1.0000 </r>
       <r>    5.9536    1.0000 </r>
       <r>    6.1629    1.0000 </r>
       <r>    6.2592    1.0000 </r>
       <r>    6.5318    1.0000 </r>
       <r>    7.0555    1.0000 </r>
       <r>    7.9665    1.0000 </r>
       <r>    8.3101    1.0000 </r>
       <r>   10.0191    0.0000 </r>
       <r>   10.3897    0.0000 </r>
       <r>   10.9263    0.0000 </r>
       <r>   11.3614    0.0000 </r>
       <r>   11.6754    0.0000 </r>
       <r>   11.9022    0.0000 </r>
       <r>   12.2083    0.0000 </r>
       <r>   14.0547    0.0000 </r>
       <r>   14.3400    0.0000 </r>
       <r>   14.5527    0.0000 </r>
       <r>   14.9138    0.0000 </r>
       <r>   15.2677    0.0000 </r>
      </set>
      <set comment="kpoint 8">
       <r>   -8.6633    1.0000 </r>
       <r>   -8.5138    1.0000 </r>
       <r>   -7.5359    1.0000 </r>
       <r>   -7.2882    1.0000 </r>
       <r>   -4.6320    1.0000 </r>
       <r>   -3.6601    1.0000 </r>
       <r>   -2.9209    1.0000 </r>
       <r>   -2.6132    1.0000 </r>
       <r>   -0.1569    1.0000 </r>
       <r>    0.2490    1.0000 </r>
       <r>    1.1011    1.0000 </r>
       <r>    1.2665    1.0000 </r>
       <r>    1.5353    1.0000 </r>
       <r>    1.7099    1.0000 </r>
       <r>    1.9931    1.0000 </r>
       <r>    2.2120    1.0000 </r>
       <r>    2.9038    1.0000 </r>
       <r>    3.1189    1.0000 </r>
       <r>    3.6966    1.0000 </r>
       <r>    4.2454    1.0000 </r>
       <r>    4.3630    1.0000 </r>
       <r>    4.4516    1.0000 </r>
       <r>    4.5100    1.0000 </r>
       <r>    4.7063    1.0000 </r>
       <r>    4.9087    1.0000 </r>
       <r>    5.2182    1.0000 </r>
       <r>    5.6184    1.0000 </r>
       <r>    5.9579    1.0000 </r>
       <r>    6.4128    1.0000 </r>
       <r>    6.6338    1.0000 </r>
       <r>    6.6955    1.0000 </r>
       <r>    8.0008    1.0000 </r>
       <r>   11.5054    0.0000 </r>
       <r>   11.8690    0.0000 </r>
       <r>   12.0061    0.0000 </r>
       <r>   12.1358    0.0000 </r>
       <r>   12.9575    0.0000 </r>
       <r>   13.0827    0.0000 </r>
       <r>   13.5832    0.0000 </r>
       <r>   13.7277    0.0000 </r>
       <r>   13.9179    0.0000 </r>
       <r>   14.1160    0.0000 </r>
       <r>   14.5757    0.0000 </r>
       <r>   14.7525    0.0000 </r>
      </set>
      <set comment="kpoint 9">
       <r>   -8.9991    1.0000 </r>
       <r>   -8.0221    1.0000 </r>
       <r>   -7.5321    1.0000 </r>
       <r>   -7.2802    1.0000 </r>
       <r>   -5.1554    1.0000 </r>
       <r>   -3.3125    1.0000 </r>
       <r>   -2.8420    1.0000 </r>
       <r>   -2.4676    1.0000 </r>
       <r>   -0.4431    1.0000 </r>
       <r>   -0.0597    1.0000 </r>
       <r>    0.6974    1.0000 </r>
       <r>    1.1863    1.0000 </r>
       <r>    1.4427    1.0000 </r>
       <r>    2.1170    1.0000 </r>
       <r>    2.2934    1.0000 </r>
       <r>    2.6679    1.0000 </r>
       <r>    2.9466    1.0000 </r>
       <r>    3.0872    1.0000 </r>
       <r>    3.2382    1.0000 </r>
       <r>    3.8606    1.0000 </r>
       <r>    4.1182    1.0000 </r>
       <r>    4.4814    1.0000 </r>
       <r>    4.7962    1.0000 </r>
       <r>    4.9215    1.0000 </r>
       <r>    5.1378    1.0000 </r>
       <r>    5.6141    1.0000 </r>
       <r>    5.9661    1.0000 </r>
       <r>    6.1659    1.0000 </r>
       <r>    6.4006    1.0000 </r>
       <r>    6.6013    1.0000 </r>
       <r>    7.0984    1.0000 </r>
       <r>    8.1499    1.0000 </r>
       <r>   10.8095    0.0000 </r>
       <r>   11.0779    0.0000 </r>
       <r>   11.5152    0.0000 </r>
       <r>   12.0863    0.0000 </r>
       <r>   12.3311    0.0000 </r>
       <r>   12.6943    0.0000 </r>
       <r>   12.9749    0.0000 </r>
       <r>   13.9042    0.0000 </r>
       <r>   14.3132    0.0000 </r>
       <r>   14.3765    0.0000 </r>
       <r>   14.6986    0.0000 </r>
       <r>   15.0026    0.0000 </r>
      </set>
      <set comment="kpoint 10">
       <r>   -9.1348    1.0000 </r>
       <r>   -7.6270    1.0000 </r>
       <r>   -7.6131    1.0000 </r>
       <r>   -7.2813    1.0000 </r>
       <r>   -5.4660    1.0000 </r>
       <r>   -3.3278    1.0000 </r>
       <r>   -2.7067    1.0000 </r>
       <r>   -2.3285    1.0000 </r>
       <r>   -0.4588    1.0000 </r>
       <r>   -0.3746    1.0000 </r>
       <r>    0.3359    1.0000 </r>
       <r>    1.0861    1.0000 </r>
       <r>    1.8495    1.0000 </r>
       <r>    2.1210    1.0000 </r>
       <r>    2.4228    1.0000 </r>
       <r>    2.4743    1.0000 </r>
       <r>    3.1473    1.0000 </r>
       <r>    3.2724    1.0000 </r>
       <r>    3.3931    1.0000 </r>
       <r>    3.5571    1.0000 </r>
       <r>    4.1074    1.0000 </r>
       <r>    4.3920    1.0000 </r>
       <r>    4.7786    1.0000 </r>
       <r>    5.0507    1.0000 </r>
       <r>    5.1668    1.0000 </r>
       <r>    5.6247    1.0000 </r>
       <r>    5.9595    1.0000 </r>
       <r>    6.3843    1.0000 </r>
       <r>    6.4355    1.0000 </r>
       <r>    7.0680    1.0000 </r>
       <r>    7.9232    1.0000 </r>
       <r>    8.3123    1.0000 </r>
       <r>   10.0490    0.0000 </r>
       <r>   10.6427    0.0000 </r>
       <r>   11.2578    0.0000 </r>
       <r>   11.9156    0.0000 </r>
       <r>   12.0057    0.0000 </r>
       <r>   12.1515    0.0000 </r>
       <r>   12.2250    0.0000 </r>
       <r>   13.5417    0.0000 </r>
       <r>   13.9522    0.0000 </r>
       <r>   14.2510    0.0000 </r>
       <r>   14.7499    0.0000 </r>
       <r>   15.3192    0.0000 </r>
      </set>
      <set comment="kpoint 11">
       <r>   -9.2068    1.0000 </r>
       <r>   -7.7791    1.0000 </r>
       <r>   -7.5378    1.0000 </r>
       <r>   -7.3943    1.0000 </r>
       <r>   -4.4043    1.0000 </r>
       <r>   -3.3876    1.0000 </r>
       <r>   -2.9675    1.0000 </r>
       <r>   -2.2089    1.0000 </r>
       <r>   -1.0079    1.0000 </r>
       <r>   -0.4697    1.0000 </r>
       <r>    0.4161    1.0000 </r>
       <r>    0.7646    1.0000 </r>
       <r>    1.2077    1.0000 </r>
       <r>    1.3034    1.0000 </r>
       <r>    1.9593    1.0000 </r>
       <r>    2.8020    1.0000 </r>
       <r>    3.1530    1.0000 </r>
       <r>    3.3300    1.0000 </r>
       <r>    3.5053    1.0000 </r>
       <r>    3.9270    1.0000 </r>
       <r>    4.4967    1.0000 </r>
       <r>    4.6121    1.0000 </r>
       <r>    4.9903    1.0000 </r>
       <r>    5.2566    1.0000 </r>
       <r>    5.4048    1.0000 </r>
       <r>    5.5889    1.0000 </r>
       <r>    6.0540    1.0000 </r>
       <r>    6.6884    1.0000 </r>
       <r>    6.9781    1.0000 </r>
       <r>    7.1526    1.0000 </r>
       <r>    7.2787    1.0000 </r>
       <r>    7.9905    1.0000 </r>
       <r>   10.2719    0.0000 </r>
       <r>   10.9670    0.0000 </r>
       <r>   11.2942    0.0000 </r>
       <r>   11.9141    0.0000 </r>
       <r>   12.5042    0.0000 </r>
       <r>   12.5574    0.0000 </r>
       <r>   12.8178    0.0000 </r>
       <r>   13.6300    0.0000 </r>
       <r>   13.9323    0.0000 </r>
       <r>   14.1828    0.0000 </r>
       <r>   14.7545    0.0000 </r>
       <r>   15.0756    0.0000 </r>
      </set>
      <set comment="kpoint 12">
       <r>   -8.9180    1.0000 </r>
       <r>   -8.0800    1.0000 </r>
       <r>   -7.8109    1.0000 </r>
       <r>   -7.2212    1.0000 </r>
       <r>   -4.4359    1.0000 </r>
       <r>   -3.6001    1.0000 </r>
       <r>   -3.2014    1.0000 </r>
       <r>   -2.1482    1.0000 </r>
       <r>   -0.4575    1.0000 </r>
       <r>   -0.1321    1.0000 </r>
       <r>    0.7966    1.0000 </r>
       <r>    1.1512    1.0000 </r>
       <r>    1.4549    1.0000 </r>
       <r>    1.9344    1.0000 </r>
       <r>    2.2152    1.0000 </r>
       <r>    2.4356    1.0000 </r>
       <r>    2.6839    1.0000 </r>
       <r>    3.3144    1.0000 </r>
       <r>    3.4402    1.0000 </r>
       <r>    3.6608    1.0000 </r>
       <r>    3.9889    1.0000 </r>
       <r>    4.1898    1.0000 </r>
       <r>    4.5354    1.0000 </r>
       <r>    5.2380    1.0000 </r>
       <r>    5.3670    1.0000 </r>
       <r>    5.6379    1.0000 </r>
       <r>    5.9191    1.0000 </r>
       <r>    6.2528    1.0000 </r>
       <r>    6.4277    1.0000 </r>
       <r>    6.7585    1.0000 </r>
       <r>    6.9873    1.0000 </r>
       <r>    7.6011    1.0000 </r>
       <r>   11.3845    0.0000 </r>
       <r>   11.7156    0.0000 </r>
       <r>   11.9480    0.0000 </r>
       <r>   12.4808    0.0000 </r>
       <r>   12.9993    0.0000 </r>
       <r>   13.0897    0.0000 </r>
       <r>   13.4325    0.0000 </r>
       <r>   13.6399    0.0000 </r>
       <r>   14.0737    0.0000 </r>
       <r>   14.3469    0.0000 </r>
       <r>   14.7802    0.0000 </r>
       <r>   14.9187    0.0000 </r>
      </set>
      <set comment="kpoint 13">
       <r>   -8.7104    1.0000 </r>
       <r>   -8.4146    1.0000 </r>
       <r>   -7.6683    1.0000 </r>
       <r>   -7.2065    1.0000 </r>
       <r>   -4.5866    1.0000 </r>
       <r>   -3.7504    1.0000 </r>
       <r>   -3.1580    1.0000 </r>
       <r>   -2.3171    1.0000 </r>
       <r>   -0.0726    1.0000 </r>
       <r>    0.3702    1.0000 </r>
       <r>    0.8835    1.0000 </r>
       <r>    1.1204    1.0000 </r>
       <r>    1.4662    1.0000 </r>
       <r>    1.7409    1.0000 </r>
       <r>    2.1317    1.0000 </r>
       <r>    2.4987    1.0000 </r>
       <r>    3.0900    1.0000 </r>
       <r>    3.2322    1.0000 </r>
       <r>    3.4612    1.0000 </r>
       <r>    3.7734    1.0000 </r>
       <r>    4.0926    1.0000 </r>
       <r>    4.2901    1.0000 </r>
       <r>    4.3870    1.0000 </r>
       <r>    4.8342    1.0000 </r>
       <r>    5.0789    1.0000 </r>
       <r>    5.4933    1.0000 </r>
       <r>    5.8312    1.0000 </r>
       <r>    6.0918    1.0000 </r>
       <r>    6.3026    1.0000 </r>
       <r>    6.7039    1.0000 </r>
       <r>    6.8407    1.0000 </r>
       <r>    7.5536    1.0000 </r>
       <r>   11.5021    0.0000 </r>
       <r>   11.7268    0.0000 </r>
       <r>   12.0686    0.0000 </r>
       <r>   12.3521    0.0000 </r>
       <r>   13.0737    0.0000 </r>
       <r>   13.4033    0.0000 </r>
       <r>   13.5362    0.0000 </r>
       <r>   13.6226    0.0000 </r>
       <r>   14.0358    0.0000 </r>
       <r>   14.2381    0.0000 </r>
       <r>   14.5278    0.0000 </r>
       <r>   14.7468    0.0000 </r>
      </set>
      <set comment="kpoint 14">
       <r>   -9.1363    1.0000 </r>
       <r>   -7.9337    1.0000 </r>
       <r>   -7.5128    1.0000 </r>
       <r>   -7.3027    1.0000 </r>
       <r>   -4.5460    1.0000 </r>
       <r>   -3.5976    1.0000 </r>
       <r>   -2.9391    1.0000 </r>
       <r>   -2.3423    1.0000 </r>
       <r>   -0.7638    1.0000 </r>
       <r>   -0.1083    1.0000 </r>
       <r>    0.4797    1.0000 </r>
       <r>    0.9481    1.0000 </r>
       <r>    1.2903    1.0000 </r>
       <r>    1.5230    1.0000 </r>
       <r>    1.9586    1.0000 </r>
       <r>    2.6106    1.0000 </r>
       <r>    2.9673    1.0000 </r>
       <r>    3.2422    1.0000 </r>
       <r>    3.8551    1.0000 </r>
       <r>    4.2007    1.0000 </r>
       <r>    4.3120    1.0000 </r>
       <r>    4.5499    1.0000 </r>
       <r>    4.7568    1.0000 </r>
       <r>    5.1620    1.0000 </r>
       <r>    5.2247    1.0000 </r>
       <r>    5.5167    1.0000 </r>
       <r>    6.0978    1.0000 </r>
       <r>    6.5039    1.0000 </r>
       <r>    6.6466    1.0000 </r>
       <r>    6.9040    1.0000 </r>
       <r>    7.3937    1.0000 </r>
       <r>    7.8746    1.0000 </r>
       <r>   10.7480    0.0000 </r>
       <r>   10.8386    0.0000 </r>
       <r>   11.2611    0.0000 </r>
       <r>   11.7700    0.0000 </r>
       <r>   12.2268    0.0000 </r>
       <r>   12.6821    0.0000 </r>
       <r>   12.9267    0.0000 </r>
       <r>   13.7482    0.0000 </r>
       <r>   14.1503    0.0000 </r>
       <r>   14.3508    0.0000 </r>
       <r>   14.5990    0.0000 </r>
       <r>   15.1046    0.0000 </r>
      </set>
      <set comment="kpoint 15">
       <r>   -8.9189    1.0000 </r>
       <r>   -8.0752    1.0000 </r>
       <r>   -7.8182    1.0000 </r>
       <r>   -7.2210    1.0000 </r>
       <r>   -4.4193    1.0000 </r>
       <r>   -3.5748    1.0000 </r>
       <r>   -3.2285    1.0000 </r>
       <r>   -2.1836    1.0000 </r>
       <r>   -0.4603    1.0000 </r>
       <r>   -0.1045    1.0000 </r>
       <r>    0.8284    1.0000 </r>
       <r>    1.3847    1.0000 </r>
       <r>    1.4597    1.0000 </r>
       <r>    1.7870    1.0000 </r>
       <r>    1.9109    1.0000 </r>
       <r>    2.4834    1.0000 </r>
       <r>    2.5683    1.0000 </r>
       <r>    3.4157    1.0000 </r>
       <r>    3.4761    1.0000 </r>
       <r>    3.7235    1.0000 </r>
       <r>    4.1280    1.0000 </r>
       <r>    4.3608    1.0000 </r>
       <r>    4.5287    1.0000 </r>
       <r>    5.1454    1.0000 </r>
       <r>    5.2045    1.0000 </r>
       <r>    5.5443    1.0000 </r>
       <r>    5.9135    1.0000 </r>
       <r>    6.1835    1.0000 </r>
       <r>    6.5653    1.0000 </r>
       <r>    6.8021    1.0000 </r>
       <r>    6.9400    1.0000 </r>
       <r>    7.5959    1.0000 </r>
       <r>   11.4026    0.0000 </r>
       <r>   11.8273    0.0000 </r>
       <r>   12.0681    0.0000 </r>
       <r>   12.6684    0.0000 </r>
       <r>   12.9575    0.0000 </r>
       <r>   13.0200    0.0000 </r>
       <r>   13.2654    0.0000 </r>
       <r>   13.6502    0.0000 </r>
       <r>   14.0899    0.0000 </r>
       <r>   14.2328    0.0000 </r>
       <r>   14.5944    0.0000 </r>
       <r>   14.9077    0.0000 </r>
      </set>
      <set comment="kpoint 16">
       <r>   -8.6207    1.0000 </r>
       <r>   -8.4800    1.0000 </r>
       <r>   -7.7284    1.0000 </r>
       <r>   -7.1807    1.0000 </r>
       <r>   -4.8487    1.0000 </r>
       <r>   -3.5055    1.0000 </r>
       <r>   -2.9870    1.0000 </r>
       <r>   -2.1222    1.0000 </r>
       <r>   -0.1499    1.0000 </r>
       <r>   -0.0352    1.0000 </r>
       <r>    0.9487    1.0000 </r>
       <r>    1.1742    1.0000 </r>
       <r>    1.3187    1.0000 </r>
       <r>    1.8265    1.0000 </r>
       <r>    2.0527    1.0000 </r>
       <r>    2.6309    1.0000 </r>
       <r>    2.8617    1.0000 </r>
       <r>    3.1284    1.0000 </r>
       <r>    3.3522    1.0000 </r>
       <r>    3.7580    1.0000 </r>
       <r>    4.1170    1.0000 </r>
       <r>    4.2481    1.0000 </r>
       <r>    4.4805    1.0000 </r>
       <r>    4.8237    1.0000 </r>
       <r>    5.4624    1.0000 </r>
       <r>    5.5822    1.0000 </r>
       <r>    5.7919    1.0000 </r>
       <r>    6.1630    1.0000 </r>
       <r>    6.3781    1.0000 </r>
       <r>    6.6097    1.0000 </r>
       <r>    6.9031    1.0000 </r>
       <r>    7.4776    1.0000 </r>
       <r>   11.8120    0.0000 </r>
       <r>   11.9187    0.0000 </r>
       <r>   12.3564    0.0000 </r>
       <r>   12.8717    0.0000 </r>
       <r>   12.9644    0.0000 </r>
       <r>   13.1679    0.0000 </r>
       <r>   13.3193    0.0000 </r>
       <r>   13.5649    0.0000 </r>
       <r>   13.7581    0.0000 </r>
       <r>   13.8832    0.0000 </r>
       <r>   14.3190    0.0000 </r>
       <r>   14.5643    0.0000 </r>
      </set>
      <set comment="kpoint 17">
       <r>   -8.9952    1.0000 </r>
       <r>   -8.0134    1.0000 </r>
       <r>   -7.5290    1.0000 </r>
       <r>   -7.3016    1.0000 </r>
       <r>   -5.1321    1.0000 </r>
       <r>   -3.4205    1.0000 </r>
       <r>   -2.9092    1.0000 </r>
       <r>   -2.3286    1.0000 </r>
       <r>   -0.4049    1.0000 </r>
       <r>   -0.0014    1.0000 </r>
       <r>    0.7304    1.0000 </r>
       <r>    1.2072    1.0000 </r>
       <r>    1.6173    1.0000 </r>
       <r>    1.8447    1.0000 </r>
       <r>    2.3279    1.0000 </r>
       <r>    2.6244    1.0000 </r>
       <r>    2.8672    1.0000 </r>
       <r>    3.0499    1.0000 </r>
       <r>    3.3321    1.0000 </r>
       <r>    3.8850    1.0000 </r>
       <r>    4.0929    1.0000 </r>
       <r>    4.4683    1.0000 </r>
       <r>    4.7877    1.0000 </r>
       <r>    4.9248    1.0000 </r>
       <r>    5.0899    1.0000 </r>
       <r>    5.5915    1.0000 </r>
       <r>    5.6726    1.0000 </r>
       <r>    6.0638    1.0000 </r>
       <r>    6.4825    1.0000 </r>
       <r>    7.0543    1.0000 </r>
       <r>    7.3587    1.0000 </r>
       <r>    7.7979    1.0000 </r>
       <r>   10.7965    0.0000 </r>
       <r>   11.0901    0.0000 </r>
       <r>   11.5415    0.0000 </r>
       <r>   12.2481    0.0000 </r>
       <r>   12.3257    0.0000 </r>
       <r>   12.6864    0.0000 </r>
       <r>   12.9778    0.0000 </r>
       <r>   13.8278    0.0000 </r>
       <r>   14.3308    0.0000 </r>
       <r>   14.5194    0.0000 </r>
       <r>   14.5820    0.0000 </r>
       <r>   14.9622    0.0000 </r>
      </set>
      <set comment="kpoint 18">
       <r>   -9.1141    1.0000 </r>
       <r>   -7.7487    1.0000 </r>
       <r>   -7.5823    1.0000 </r>
       <r>   -7.4188    1.0000 </r>
       <r>   -4.8585    1.0000 </r>
       <r>   -3.4036    1.0000 </r>
       <r>   -3.1142    1.0000 </r>
       <r>   -2.2358    1.0000 </r>
       <r>   -0.7258    1.0000 </r>
       <r>    0.0333    1.0000 </r>
       <r>    0.7465    1.0000 </r>
       <r>    1.0504    1.0000 </r>
       <r>    1.3218    1.0000 </r>
       <r>    1.7787    1.0000 </r>
       <r>    1.9276    1.0000 </r>
       <r>    2.8809    1.0000 </r>
       <r>    3.1218    1.0000 </r>
       <r>    3.3524    1.0000 </r>
       <r>    3.4414    1.0000 </r>
       <r>    3.8193    1.0000 </r>
       <r>    4.0425    1.0000 </r>
       <r>    4.2681    1.0000 </r>
       <r>    4.9054    1.0000 </r>
       <r>    5.0338    1.0000 </r>
       <r>    5.3294    1.0000 </r>
       <r>    5.5584    1.0000 </r>
       <r>    5.8915    1.0000 </r>
       <r>    6.1954    1.0000 </r>
       <r>    6.5802    1.0000 </r>
       <r>    7.0146    1.0000 </r>
       <r>    7.3722    1.0000 </r>
       <r>    7.9440    1.0000 </r>
       <r>   10.3955    0.0000 </r>
       <r>   11.0183    0.0000 </r>
       <r>   11.5372    0.0000 </r>
       <r>   11.9955    0.0000 </r>
       <r>   12.3821    0.0000 </r>
       <r>   12.6362    0.0000 </r>
       <r>   12.8983    0.0000 </r>
       <r>   13.9462    0.0000 </r>
       <r>   14.3358    0.0000 </r>
       <r>   14.4301    0.0000 </r>
       <r>   14.7868    0.0000 </r>
       <r>   15.1284    0.0000 </r>
      </set>
      <set comment="kpoint 19">
       <r>   -8.7128    1.0000 </r>
       <r>   -8.4107    1.0000 </r>
       <r>   -7.6754    1.0000 </r>
       <r>   -7.2065    1.0000 </r>
       <r>   -4.5741    1.0000 </r>
       <r>   -3.7568    1.0000 </r>
       <r>   -3.1398    1.0000 </r>
       <r>   -2.3015    1.0000 </r>
       <r>   -0.1013    1.0000 </r>
       <r>    0.3301    1.0000 </r>
       <r>    0.8432    1.0000 </r>
       <r>    1.1503    1.0000 </r>
       <r>    1.3933    1.0000 </r>
       <r>    1.7456    1.0000 </r>
       <r>    2.2592    1.0000 </r>
       <r>    2.4903    1.0000 </r>
       <r>    3.0599    1.0000 </r>
       <r>    3.2030    1.0000 </r>
       <r>    3.6165    1.0000 </r>
       <r>    3.8555    1.0000 </r>
       <r>    3.9197    1.0000 </r>
       <r>    4.2078    1.0000 </r>
       <r>    4.4461    1.0000 </r>
       <r>    4.8735    1.0000 </r>
       <r>    5.1060    1.0000 </r>
       <r>    5.5734    1.0000 </r>
       <r>    5.6676    1.0000 </r>
       <r>    6.0312    1.0000 </r>
       <r>    6.3189    1.0000 </r>
       <r>    6.7452    1.0000 </r>
       <r>    6.8758    1.0000 </r>
       <r>    7.5401    1.0000 </r>
       <r>   11.5297    0.0000 </r>
       <r>   11.6747    0.0000 </r>
       <r>   12.0468    0.0000 </r>
       <r>   12.3943    0.0000 </r>
       <r>   12.9878    0.0000 </r>
       <r>   13.3988    0.0000 </r>
       <r>   13.5958    0.0000 </r>
       <r>   13.7391    0.0000 </r>
       <r>   13.9222    0.0000 </r>
       <r>   14.3123    0.0000 </r>
       <r>   14.5753    0.0000 </r>
       <r>   15.0595    0.0000 </r>
      </set>
      <set comment="kpoint 20">
       <r>   -8.9954    1.0000 </r>
       <r>   -8.0105    1.0000 </r>
       <r>   -7.5358    1.0000 </r>
       <r>   -7.3001    1.0000 </r>
       <r>   -5.1320    1.0000 </r>
       <r>   -3.4615    1.0000 </r>
       <r>   -2.8444    1.0000 </r>
       <r>   -2.2892    1.0000 </r>
       <r>   -0.4484    1.0000 </r>
       <r>   -0.0745    1.0000 </r>
       <r>    0.6761    1.0000 </r>
       <r>    1.2672    1.0000 </r>
       <r>    1.4676    1.0000 </r>
       <r>    2.0590    1.0000 </r>
       <r>    2.4152    1.0000 </r>
       <r>    2.6580    1.0000 </r>
       <r>    2.7900    1.0000 </r>
       <r>    3.0158    1.0000 </r>
       <r>    3.3640    1.0000 </r>
       <r>    3.9347    1.0000 </r>
       <r>    4.0221    1.0000 </r>
       <r>    4.3392    1.0000 </r>
       <r>    4.7497    1.0000 </r>
       <r>    4.9138    1.0000 </r>
       <r>    5.1693    1.0000 </r>
       <r>    5.5925    1.0000 </r>
       <r>    5.7984    1.0000 </r>
       <r>    6.2144    1.0000 </r>
       <r>    6.2870    1.0000 </r>
       <r>    7.0572    1.0000 </r>
       <r>    7.3711    1.0000 </r>
       <r>    7.7852    1.0000 </r>
       <r>   10.7645    0.0000 </r>
       <r>   11.0187    0.0000 </r>
       <r>   11.5349    0.0000 </r>
       <r>   12.1124    0.0000 </r>
       <r>   12.3887    0.0000 </r>
       <r>   12.6025    0.0000 </r>
       <r>   13.2010    0.0000 </r>
       <r>   13.6139    0.0000 </r>
       <r>   14.3454    0.0000 </r>
       <r>   14.5964    0.0000 </r>
       <r>   14.7289    0.0000 </r>
       <r>   15.0915    0.0000 </r>
      </set>
      <set comment="kpoint 21">
       <r>   -9.0090    1.0000 </r>
       <r>   -7.7282    1.0000 </r>
       <r>   -7.6301    1.0000 </r>
       <r>   -7.4303    1.0000 </r>
       <r>   -5.2497    1.0000 </r>
       <r>   -3.5018    1.0000 </r>
       <r>   -3.1677    1.0000 </r>
       <r>   -2.2495    1.0000 </r>
       <r>   -0.1824    1.0000 </r>
       <r>    0.1552    1.0000 </r>
       <r>    0.8456    1.0000 </r>
       <r>    1.4073    1.0000 </r>
       <r>    1.7363    1.0000 </r>
       <r>    2.2093    1.0000 </r>
       <r>    2.4802    1.0000 </r>
       <r>    2.7326    1.0000 </r>
       <r>    3.0375    1.0000 </r>
       <r>    3.1687    1.0000 </r>
       <r>    3.2352    1.0000 </r>
       <r>    3.4654    1.0000 </r>
       <r>    3.6252    1.0000 </r>
       <r>    4.4296    1.0000 </r>
       <r>    4.5808    1.0000 </r>
       <r>    4.9742    1.0000 </r>
       <r>    5.0555    1.0000 </r>
       <r>    5.5980    1.0000 </r>
       <r>    5.7409    1.0000 </r>
       <r>    5.8394    1.0000 </r>
       <r>    6.1764    1.0000 </r>
       <r>    6.8714    1.0000 </r>
       <r>    7.2807    1.0000 </r>
       <r>    7.8952    1.0000 </r>
       <r>   10.4126    0.0000 </r>
       <r>   11.4040    0.0000 </r>
       <r>   11.6084    0.0000 </r>
       <r>   12.1029    0.0000 </r>
       <r>   12.3343    0.0000 </r>
       <r>   12.6306    0.0000 </r>
       <r>   12.8341    0.0000 </r>
       <r>   13.7464    0.0000 </r>
       <r>   14.3371    0.0000 </r>
       <r>   14.6965    0.0000 </r>
       <r>   14.7574    0.0000 </r>
       <r>   14.9435    0.0000 </r>
      </set>
      <set comment="kpoint 22">
       <r>   -8.7952    1.0000 </r>
       <r>   -8.1656    1.0000 </r>
       <r>   -7.7407    1.0000 </r>
       <r>   -7.2600    1.0000 </r>
       <r>   -4.7998    1.0000 </r>
       <r>   -3.7095    1.0000 </r>
       <r>   -3.2813    1.0000 </r>
       <r>   -2.3586    1.0000 </r>
       <r>    0.0383    1.0000 </r>
       <r>    0.5220    1.0000 </r>
       <r>    1.0809    1.0000 </r>
       <r>    1.4570    1.0000 </r>
       <r>    1.6040    1.0000 </r>
       <r>    2.0003    1.0000 </r>
       <r>    2.2115    1.0000 </r>
       <r>    2.5375    1.0000 </r>
       <r>    2.7909    1.0000 </r>
       <r>    3.1498    1.0000 </r>
       <r>    3.4577    1.0000 </r>
       <r>    3.7922    1.0000 </r>
       <r>    4.1744    1.0000 </r>
       <r>    4.3978    1.0000 </r>
       <r>    4.4794    1.0000 </r>
       <r>    4.6889    1.0000 </r>
       <r>    4.8580    1.0000 </r>
       <r>    5.1602    1.0000 </r>
       <r>    5.6770    1.0000 </r>
       <r>    5.8691    1.0000 </r>
       <r>    6.1839    1.0000 </r>
       <r>    6.5965    1.0000 </r>
       <r>    6.7406    1.0000 </r>
       <r>    7.5242    1.0000 </r>
       <r>   11.0390    0.0000 </r>
       <r>   11.5033    0.0000 </r>
       <r>   12.2401    0.0000 </r>
       <r>   12.7209    0.0000 </r>
       <r>   12.9215    0.0000 </r>
       <r>   13.1366    0.0000 </r>
       <r>   13.5624    0.0000 </r>
       <r>   13.9427    0.0000 </r>
       <r>   14.1892    0.0000 </r>
       <r>   14.3570    0.0000 </r>
       <r>   14.5975    0.0000 </r>
       <r>   14.7657    0.0000 </r>
      </set>
      <set comment="kpoint 23">
       <r>   -9.1364    1.0000 </r>
       <r>   -7.9306    1.0000 </r>
       <r>   -7.5201    1.0000 </r>
       <r>   -7.3009    1.0000 </r>
       <r>   -4.5475    1.0000 </r>
       <r>   -3.6295    1.0000 </r>
       <r>   -2.8748    1.0000 </r>
       <r>   -2.3114    1.0000 </r>
       <r>   -0.7824    1.0000 </r>
       <r>   -0.1532    1.0000 </r>
       <r>    0.4171    1.0000 </r>
       <r>    0.7777    1.0000 </r>
       <r>    1.4020    1.0000 </r>
       <r>    1.4902    1.0000 </r>
       <r>    2.3747    1.0000 </r>
       <r>    2.5103    1.0000 </r>
       <r>    2.8689    1.0000 </r>
       <r>    3.2279    1.0000 </r>
       <r>    3.9827    1.0000 </r>
       <r>    4.0759    1.0000 </r>
       <r>    4.1493    1.0000 </r>
       <r>    4.4769    1.0000 </r>
       <r>    4.7529    1.0000 </r>
       <r>    5.2127    1.0000 </r>
       <r>    5.4042    1.0000 </r>
       <r>    5.6460    1.0000 </r>
       <r>    5.9490    1.0000 </r>
       <r>    6.4545    1.0000 </r>
       <r>    6.7104    1.0000 </r>
       <r>    6.8805    1.0000 </r>
       <r>    7.4184    1.0000 </r>
       <r>    7.8663    1.0000 </r>
       <r>   10.6856    0.0000 </r>
       <r>   10.8168    0.0000 </r>
       <r>   11.2060    0.0000 </r>
       <r>   11.6853    0.0000 </r>
       <r>   12.4486    0.0000 </r>
       <r>   12.7022    0.0000 </r>
       <r>   12.8547    0.0000 </r>
       <r>   13.5897    0.0000 </r>
       <r>   14.0475    0.0000 </r>
       <r>   14.2952    0.0000 </r>
       <r>   14.8359    0.0000 </r>
       <r>   15.0319    0.0000 </r>
      </set>
      <set comment="kpoint 24">
       <r>   -9.1134    1.0000 </r>
       <r>   -7.7503    1.0000 </r>
       <r>   -7.5815    1.0000 </r>
       <r>   -7.4181    1.0000 </r>
       <r>   -4.8710    1.0000 </r>
       <r>   -3.4632    1.0000 </r>
       <r>   -3.0240    1.0000 </r>
       <r>   -2.2069    1.0000 </r>
       <r>   -0.6596    1.0000 </r>
       <r>   -0.1275    1.0000 </r>
       <r>    0.5727    1.0000 </r>
       <r>    0.9389    1.0000 </r>
       <r>    1.4685    1.0000 </r>
       <r>    1.9235    1.0000 </r>
       <r>    2.3823    1.0000 </r>
       <r>    2.4913    1.0000 </r>
       <r>    3.2911    1.0000 </r>
       <r>    3.3823    1.0000 </r>
       <r>    3.5250    1.0000 </r>
       <r>    3.6437    1.0000 </r>
       <r>    3.8305    1.0000 </r>
       <r>    3.9911    1.0000 </r>
       <r>    4.9928    1.0000 </r>
       <r>    5.2589    1.0000 </r>
       <r>    5.4939    1.0000 </r>
       <r>    5.6059    1.0000 </r>
       <r>    5.8330    1.0000 </r>
       <r>    6.3398    1.0000 </r>
       <r>    6.4384    1.0000 </r>
       <r>    7.0215    1.0000 </r>
       <r>    7.3003    1.0000 </r>
       <r>    7.9384    1.0000 </r>
       <r>   10.3401    0.0000 </r>
       <r>   11.0701    0.0000 </r>
       <r>   11.2332    0.0000 </r>
       <r>   11.8524    0.0000 </r>
       <r>   12.4950    0.0000 </r>
       <r>   12.7058    0.0000 </r>
       <r>   13.1359    0.0000 </r>
       <r>   13.6735    0.0000 </r>
       <r>   14.1889    0.0000 </r>
       <r>   14.8264    0.0000 </r>
       <r>   15.0489    0.0000 </r>
       <r>   15.1245    0.0000 </r>
      </set>
      <set comment="kpoint 25">
       <r>   -8.7940    1.0000 </r>
       <r>   -8.1686    1.0000 </r>
       <r>   -7.7351    1.0000 </r>
       <r>   -7.2605    1.0000 </r>
       <r>   -4.8128    1.0000 </r>
       <r>   -3.7150    1.0000 </r>
       <r>   -3.2815    1.0000 </r>
       <r>   -2.3297    1.0000 </r>
       <r>    0.0548    1.0000 </r>
       <r>    0.4827    1.0000 </r>
       <r>    0.9172    1.0000 </r>
       <r>    1.5182    1.0000 </r>
       <r>    1.6909    1.0000 </r>
       <r>    2.0144    1.0000 </r>
       <r>    2.2106    1.0000 </r>
       <r>    2.6761    1.0000 </r>
       <r>    2.9816    1.0000 </r>
       <r>    3.1528    1.0000 </r>
       <r>    3.3059    1.0000 </r>
       <r>    3.6080    1.0000 </r>
       <r>    4.0282    1.0000 </r>
       <r>    4.2025    1.0000 </r>
       <r>    4.5717    1.0000 </r>
       <r>    4.7897    1.0000 </r>
       <r>    4.9876    1.0000 </r>
       <r>    5.1940    1.0000 </r>
       <r>    5.6091    1.0000 </r>
       <r>    6.0717    1.0000 </r>
       <r>    6.2006    1.0000 </r>
       <r>    6.4793    1.0000 </r>
       <r>    6.7365    1.0000 </r>
       <r>    7.5286    1.0000 </r>
       <r>   11.0542    0.0000 </r>
       <r>   11.4064    0.0000 </r>
       <r>   12.0621    0.0000 </r>
       <r>   12.5742    0.0000 </r>
       <r>   13.1268    0.0000 </r>
       <r>   13.1737    0.0000 </r>
       <r>   13.5398    0.0000 </r>
       <r>   14.0671    0.0000 </r>
       <r>   14.2148    0.0000 </r>
       <r>   14.3926    0.0000 </r>
       <r>   14.7336    0.0000 </r>
       <r>   15.0237    0.0000 </r>
      </set>
      <set comment="kpoint 26">
       <r>   -8.7928    1.0000 </r>
       <r>   -8.3414    1.0000 </r>
       <r>   -7.6154    1.0000 </r>
       <r>   -7.2315    1.0000 </r>
       <r>   -4.4354    1.0000 </r>
       <r>   -3.8527    1.0000 </r>
       <r>   -3.2318    1.0000 </r>
       <r>   -2.4831    1.0000 </r>
       <r>    0.0698    1.0000 </r>
       <r>    0.1769    1.0000 </r>
       <r>    0.9443    1.0000 </r>
       <r>    1.2088    1.0000 </r>
       <r>    1.4208    1.0000 </r>
       <r>    1.6904    1.0000 </r>
       <r>    2.3632    1.0000 </r>
       <r>    2.8171    1.0000 </r>
       <r>    2.9362    1.0000 </r>
       <r>    3.1676    1.0000 </r>
       <r>    3.3528    1.0000 </r>
       <r>    4.0638    1.0000 </r>
       <r>    4.1708    1.0000 </r>
       <r>    4.4722    1.0000 </r>
       <r>    4.6628    1.0000 </r>
       <r>    4.7300    1.0000 </r>
       <r>    5.0925    1.0000 </r>
       <r>    5.2562    1.0000 </r>
       <r>    5.4759    1.0000 </r>
       <r>    6.0386    1.0000 </r>
       <r>    6.3029    1.0000 </r>
       <r>    6.4966    1.0000 </r>
       <r>    6.7607    1.0000 </r>
       <r>    7.5695    1.0000 </r>
       <r>   10.8907    0.0000 </r>
       <r>   11.7361    0.0000 </r>
       <r>   11.9925    0.0000 </r>
       <r>   12.0986    0.0000 </r>
       <r>   13.0177    0.0000 </r>
       <r>   13.1982    0.0000 </r>
       <r>   13.7376    0.0000 </r>
       <r>   14.0203    0.0000 </r>
       <r>   14.2073    0.0000 </r>
       <r>   14.4446    0.0000 </r>
       <r>   14.8400    0.0000 </r>
       <r>   15.2249    0.0000 </r>
      </set>
      <set comment="kpoint 27">
       <r>   -9.0060    1.0000 </r>
       <r>   -8.0737    1.0000 </r>
       <r>   -7.5478    1.0000 </r>
       <r>   -7.4402    1.0000 </r>
       <r>   -4.0763    1.0000 </r>
       <r>   -3.7700    1.0000 </r>
       <r>   -3.0108    1.0000 </r>
       <r>   -2.2625    1.0000 </r>
       <r>   -0.7619    1.0000 </r>
       <r>   -0.2905    1.0000 </r>
       <r>    0.8571    1.0000 </r>
       <r>    1.2924    1.0000 </r>
       <r>    1.5371    1.0000 </r>
       <r>    1.8171    1.0000 </r>
       <r>    1.9472    1.0000 </r>
       <r>    2.3396    1.0000 </r>
       <r>    2.6416    1.0000 </r>
       <r>    2.8095    1.0000 </r>
       <r>    3.3634    1.0000 </r>
       <r>    3.7809    1.0000 </r>
       <r>    3.9794    1.0000 </r>
       <r>    4.7284    1.0000 </r>
       <r>    4.8475    1.0000 </r>
       <r>    4.8979    1.0000 </r>
       <r>    5.3917    1.0000 </r>
       <r>    5.7789    1.0000 </r>
       <r>    5.8846    1.0000 </r>
       <r>    6.2963    1.0000 </r>
       <r>    6.7185    1.0000 </r>
       <r>    6.9142    1.0000 </r>
       <r>    7.3454    1.0000 </r>
       <r>    7.7126    1.0000 </r>
       <r>   10.7872    0.0000 </r>
       <r>   11.8000    0.0000 </r>
       <r>   11.9805    0.0000 </r>
       <r>   12.7658    0.0000 </r>
       <r>   12.9165    0.0000 </r>
       <r>   13.1776    0.0000 </r>
       <r>   13.5225    0.0000 </r>
       <r>   13.7241    0.0000 </r>
       <r>   13.9698    0.0000 </r>
       <r>   14.1166    0.0000 </r>
       <r>   14.4466    0.0000 </r>
       <r>   15.5751    0.0000 </r>
      </set>
      <set comment="kpoint 28">
       <r>   -8.9111    1.0000 </r>
       <r>   -8.0910    1.0000 </r>
       <r>   -7.7993    1.0000 </r>
       <r>   -7.2358    1.0000 </r>
       <r>   -4.2275    1.0000 </r>
       <r>   -3.9622    1.0000 </r>
       <r>   -3.1104    1.0000 </r>
       <r>   -2.1186    1.0000 </r>
       <r>   -0.4426    1.0000 </r>
       <r>   -0.0753    1.0000 </r>
       <r>    1.0406    1.0000 </r>
       <r>    1.3983    1.0000 </r>
       <r>    1.5279    1.0000 </r>
       <r>    1.6410    1.0000 </r>
       <r>    1.9118    1.0000 </r>
       <r>    2.3734    1.0000 </r>
       <r>    2.6629    1.0000 </r>
       <r>    3.2905    1.0000 </r>
       <r>    3.4198    1.0000 </r>
       <r>    3.6052    1.0000 </r>
       <r>    3.8333    1.0000 </r>
       <r>    4.4157    1.0000 </r>
       <r>    4.7967    1.0000 </r>
       <r>    4.9618    1.0000 </r>
       <r>    5.2435    1.0000 </r>
       <r>    5.6217    1.0000 </r>
       <r>    6.0716    1.0000 </r>
       <r>    6.3434    1.0000 </r>
       <r>    6.5878    1.0000 </r>
       <r>    6.7568    1.0000 </r>
       <r>    7.0021    1.0000 </r>
       <r>    7.3876    1.0000 </r>
       <r>   11.4088    0.0000 </r>
       <r>   11.7892    0.0000 </r>
       <r>   12.0092    0.0000 </r>
       <r>   12.7023    0.0000 </r>
       <r>   13.0050    0.0000 </r>
       <r>   13.0908    0.0000 </r>
       <r>   13.3324    0.0000 </r>
       <r>   13.6457    0.0000 </r>
       <r>   14.1028    0.0000 </r>
       <r>   14.3143    0.0000 </r>
       <r>   14.6443    0.0000 </r>
       <r>   14.9589    0.0000 </r>
      </set>
      <set comment="kpoint 29">
       <r>   -8.5920    1.0000 </r>
       <r>   -8.5740    1.0000 </r>
       <r>   -7.5212    1.0000 </r>
       <r>   -7.3224    1.0000 </r>
       <r>   -4.3728    1.0000 </r>
       <r>   -4.1386    1.0000 </r>
       <r>   -2.9304    1.0000 </r>
       <r>   -2.4028    1.0000 </r>
       <r>   -0.0424    1.0000 </r>
       <r>    0.3193    1.0000 </r>
       <r>    1.1984    1.0000 </r>
       <r>    1.3906    1.0000 </r>
       <r>    1.5706    1.0000 </r>
       <r>    1.6806    1.0000 </r>
       <r>    1.9343    1.0000 </r>
       <r>    2.2259    1.0000 </r>
       <r>    2.8640    1.0000 </r>
       <r>    2.9095    1.0000 </r>
       <r>    3.5910    1.0000 </r>
       <r>    3.9770    1.0000 </r>
       <r>    4.0850    1.0000 </r>
       <r>    4.3648    1.0000 </r>
       <r>    4.5554    1.0000 </r>
       <r>    4.6433    1.0000 </r>
       <r>    5.1892    1.0000 </r>
       <r>    5.2954    1.0000 </r>
       <r>    5.6104    1.0000 </r>
       <r>    6.0696    1.0000 </r>
       <r>    6.4255    1.0000 </r>
       <r>    6.7761    1.0000 </r>
       <r>    7.3137    1.0000 </r>
       <r>    7.3586    1.0000 </r>
       <r>   11.5371    0.0000 </r>
       <r>   11.8054    0.0000 </r>
       <r>   12.0038    0.0000 </r>
       <r>   12.2052    0.0000 </r>
       <r>   13.1467    0.0000 </r>
       <r>   13.3447    0.0000 </r>
       <r>   13.5476    0.0000 </r>
       <r>   13.7168    0.0000 </r>
       <r>   13.8964    0.0000 </r>
       <r>   14.0740    0.0000 </r>
       <r>   14.6068    0.0000 </r>
       <r>   14.8207    0.0000 </r>
      </set>
      <set comment="kpoint 30">
       <r>   -8.9113    1.0000 </r>
       <r>   -8.0843    1.0000 </r>
       <r>   -7.8094    1.0000 </r>
       <r>   -7.2346    1.0000 </r>
       <r>   -4.2351    1.0000 </r>
       <r>   -3.9720    1.0000 </r>
       <r>   -3.0642    1.0000 </r>
       <r>   -2.1014    1.0000 </r>
       <r>   -0.4474    1.0000 </r>
       <r>   -0.0916    1.0000 </r>
       <r>    0.8406    1.0000 </r>
       <r>    1.2631    1.0000 </r>
       <r>    1.4631    1.0000 </r>
       <r>    1.9207    1.0000 </r>
       <r>    1.9811    1.0000 </r>
       <r>    2.4611    1.0000 </r>
       <r>    2.7483    1.0000 </r>
       <r>    3.2301    1.0000 </r>
       <r>    3.4904    1.0000 </r>
       <r>    3.6102    1.0000 </r>
       <r>    3.8535    1.0000 </r>
       <r>    4.2096    1.0000 </r>
       <r>    4.5865    1.0000 </r>
       <r>    4.9253    1.0000 </r>
       <r>    5.4656    1.0000 </r>
       <r>    5.8369    1.0000 </r>
       <r>    5.9602    1.0000 </r>
       <r>    6.3169    1.0000 </r>
       <r>    6.6328    1.0000 </r>
       <r>    6.7652    1.0000 </r>
       <r>    6.9346    1.0000 </r>
       <r>    7.3964    1.0000 </r>
       <r>   11.3828    0.0000 </r>
       <r>   11.6888    0.0000 </r>
       <r>   11.9389    0.0000 </r>
       <r>   12.5208    0.0000 </r>
       <r>   13.0145    0.0000 </r>
       <r>   13.1658    0.0000 </r>
       <r>   13.3570    0.0000 </r>
       <r>   13.6661    0.0000 </r>
       <r>   14.1588    0.0000 </r>
       <r>   14.4067    0.0000 </r>
       <r>   14.7517    0.0000 </r>
       <r>   15.0415    0.0000 </r>
      </set>
      <set comment="kpoint 31">
       <r>   -8.6633    1.0000 </r>
       <r>   -8.4932    1.0000 </r>
       <r>   -7.5376    1.0000 </r>
       <r>   -7.3110    1.0000 </r>
       <r>   -4.5974    1.0000 </r>
       <r>   -3.8877    1.0000 </r>
       <r>   -2.9056    1.0000 </r>
       <r>   -2.3688    1.0000 </r>
       <r>   -0.0005    1.0000 </r>
       <r>    0.0695    1.0000 </r>
       <r>    0.9672    1.0000 </r>
       <r>    1.4659    1.0000 </r>
       <r>    1.5690    1.0000 </r>
       <r>    1.7308    1.0000 </r>
       <r>    2.0296    1.0000 </r>
       <r>    2.5439    1.0000 </r>
       <r>    2.6255    1.0000 </r>
       <r>    3.0718    1.0000 </r>
       <r>    3.3586    1.0000 </r>
       <r>    3.9212    1.0000 </r>
       <r>    4.2847    1.0000 </r>
       <r>    4.3324    1.0000 </r>
       <r>    4.6471    1.0000 </r>
       <r>    4.8728    1.0000 </r>
       <r>    4.9832    1.0000 </r>
       <r>    5.2940    1.0000 </r>
       <r>    5.7423    1.0000 </r>
       <r>    5.9516    1.0000 </r>
       <r>    6.4464    1.0000 </r>
       <r>    6.6557    1.0000 </r>
       <r>    7.2061    1.0000 </r>
       <r>    7.4492    1.0000 </r>
       <r>   11.3678    0.0000 </r>
       <r>   11.7230    0.0000 </r>
       <r>   11.8462    0.0000 </r>
       <r>   12.2290    0.0000 </r>
       <r>   13.0124    0.0000 </r>
       <r>   13.2959    0.0000 </r>
       <r>   13.5357    0.0000 </r>
       <r>   13.9785    0.0000 </r>
       <r>   14.0168    0.0000 </r>
[...]
       <r>   -3.9242    1.0000 </r>
       <r>   -3.1665    1.0000 </r>
       <r>   -2.2894    1.0000 </r>
       <r>    0.0525    1.0000 </r>
       <r>    0.5255    1.0000 </r>
       <r>    0.9781    1.0000 </r>
       <r>    1.4401    1.0000 </r>
       <r>    1.7668    1.0000 </r>
       <r>    2.0302    1.0000 </r>
       <r>    2.2587    1.0000 </r>
       <r>    2.6124    1.0000 </r>
       <r>    2.9497    1.0000 </r>
       <r>    3.1903    1.0000 </r>
       <r>    3.2166    1.0000 </r>
       <r>    3.6177    1.0000 </r>
       <r>    3.9284    1.0000 </r>
       <r>    4.1890    1.0000 </r>
       <r>    4.4571    1.0000 </r>
       <r>    4.6418    1.0000 </r>
       <r>    4.9825    1.0000 </r>
       <r>    5.1712    1.0000 </r>
       <r>    5.8241    1.0000 </r>
       <r>    6.1193    1.0000 </r>
       <r>    6.3911    1.0000 </r>
       <r>    6.5293    1.0000 </r>
       <r>    6.8848    1.0000 </r>
       <r>    7.1984    1.0000 </r>
       <r>   11.0558    0.0000 </r>
       <r>   11.4165    0.0000 </r>
       <r>   12.0149    0.0000 </r>
       <r>   12.6302    0.0000 </r>
       <r>   13.0352    0.0000 </r>
       <r>   13.3414    0.0000 </r>
       <r>   13.5862    0.0000 </r>
       <r>   14.0798    0.0000 </r>
       <r>   14.1711    0.0000 </r>
       <r>   14.4387    0.0000 </r>
       <r>   14.7887    0.0000 </r>
       <r>   15.0184    0.0000 </r>
      </set>
      <set comment="kpoint 36">
       <r>   -8.8332    1.0000 </r>
       <r>   -7.9400    1.0000 </r>
       <r>   -7.6380    1.0000 </r>
       <r>   -7.5196    1.0000 </r>
       <r>   -4.8354    1.0000 </r>
       <r>   -4.1869    1.0000 </r>
       <r>   -3.1560    1.0000 </r>
       <r>   -2.2217    1.0000 </r>
       <r>    0.0964    1.0000 </r>
       <r>    1.0774    1.0000 </r>
       <r>    1.3262    1.0000 </r>
       <r>    1.4548    1.0000 </r>
       <r>    2.0345    1.0000 </r>
       <r>    2.0535    1.0000 </r>
       <r>    2.2313    1.0000 </r>
       <r>    2.3647    1.0000 </r>
       <r>    2.9265    1.0000 </r>
       <r>    3.0984    1.0000 </r>
       <r>    3.3968    1.0000 </r>
       <r>    3.5015    1.0000 </r>
       <r>    3.5200    1.0000 </r>
       <r>    4.3277    1.0000 </r>
       <r>    4.6785    1.0000 </r>
       <r>    4.7883    1.0000 </r>
       <r>    4.9425    1.0000 </r>
       <r>    4.9759    1.0000 </r>
       <r>    5.6897    1.0000 </r>
       <r>    5.7864    1.0000 </r>
       <r>    5.9586    1.0000 </r>
       <r>    6.1239    1.0000 </r>
       <r>    7.0748    1.0000 </r>
       <r>    7.4939    1.0000 </r>
       <r>   10.9176    0.0000 </r>
       <r>   11.3892    0.0000 </r>
       <r>   11.4547    0.0000 </r>
       <r>   12.5344    0.0000 </r>
       <r>   13.0504    0.0000 </r>
       <r>   13.3623    0.0000 </r>
       <r>   13.7627    0.0000 </r>
       <r>   14.1231    0.0000 </r>
       <r>   14.5200    0.0000 </r>
       <r>   14.5937    0.0000 </r>
       <r>   14.6721    0.0000 </r>
       <r>   15.0912    0.0000 </r>
      </set>
     </set>
    </set>
   </array>
  </eigenvalues>
  <separator name="orbital magnetization" >
   <v name="MAGDIPOLOUT">      0.00000000      0.00000000      0.00000000</v>
  </separator>
  <dos>
   <i name="efermi">      8.78131364 </i>
   <total>
    <array>
     <dimension dim="1">gridpoints</dimension>
     <dimension dim="2">spin</dimension>
     <field>energy</field>
     <field>total</field>
     <field>integrated</field>
     <set>
      <set comment="spin 1">
       <r>   -10.5924     0.0000     0.0000 </r>
       <r>   -10.5010     0.0000     0.0000 </r>
       <r>   -10.4096     0.0000     0.0000 </r>
       <r>   -10.3183     0.0000     0.0000 </r>
       <r>   -10.2269     0.0000     0.0000 </r>
       <r>   -10.1355     0.0000     0.0000 </r>
       <r>   -10.0441     0.0000     0.0000 </r>
       <r>    -9.9527     0.0000     0.0000 </r>
       <r>    -9.8614     0.0000     0.0000 </r>
       <r>    -9.7700     0.0000     0.0000 </r>
       <r>    -9.6786     0.0000     0.0000 </r>
       <r>    -9.5872     0.0001     0.0000 </r>
       <r>    -9.4959     0.0059     0.0006 </r>
       <r>    -9.4045     0.0752     0.0074 </r>
       <r>    -9.3131     0.3412     0.0386 </r>
       <r>    -9.2217     1.0837     0.1376 </r>
       <r>    -9.1303     2.4311     0.3598 </r>
       <r>    -9.0390     3.0059     0.6345 </r>
       <r>    -8.9476     3.2853     0.9347 </r>
       <r>    -8.8562     3.1410     1.2217 </r>
       <r>    -8.7648     2.9506     1.4913 </r>
       <r>    -8.6734     2.9195     1.7581 </r>
       <r>    -8.5821     2.4794     1.9847 </r>
       <r>    -8.4907     2.2324     2.1887 </r>
       <r>    -8.3993     1.9955     2.3710 </r>
       <r>    -8.3079     1.1510     2.4762 </r>
       <r>    -8.2166     0.9944     2.5671 </r>
       <r>    -8.1252     2.2994     2.7772 </r>
       <r>    -8.0338     3.5361     3.1003 </r>
       <r>    -7.9424     3.5572     3.4253 </r>
       <r>    -7.8510     2.9496     3.6949 </r>
       <r>    -7.7597     3.9910     4.0596 </r>
       <r>    -7.6683     5.1762     4.5326 </r>
       <r>    -7.5769     6.6077     5.1364 </r>
       <r>    -7.4855     7.6929     5.8393 </r>
       <r>    -7.3941     5.2849     6.3223 </r>
       <r>    -7.3028     6.2400     6.8925 </r>
       <r>    -7.2114     7.7874     7.6041 </r>
       <r>    -7.1200     3.7104     7.9431 </r>
       <r>    -7.0286     0.5934     7.9973 </r>
       <r>    -6.9372     0.0288     8.0000 </r>
       <r>    -6.8459     0.0004     8.0000 </r>
       <r>    -6.7545     0.0000     8.0000 </r>
       <r>    -6.6631     0.0000     8.0000 </r>
       <r>    -6.5717     0.0000     8.0000 </r>
       <r>    -6.4804     0.0000     8.0000 </r>
       <r>    -6.3890     0.0000     8.0000 </r>
       <r>    -6.2976     0.0000     8.0000 </r>
       <r>    -6.2062     0.0000     8.0000 </r>
       <r>    -6.1148     0.0000     8.0000 </r>
       <r>    -6.0235     0.0000     8.0000 </r>
       <r>    -5.9321     0.0000     8.0000 </r>
       <r>    -5.8407     0.0000     8.0000 </r>
       <r>    -5.7493     0.0000     8.0000 </r>
       <r>    -5.6579     0.0011     8.0001 </r>
       <r>    -5.5666     0.0254     8.0024 </r>
       <r>    -5.4752     0.1273     8.0141 </r>
       <r>    -5.3838     0.1674     8.0294 </r>
       <r>    -5.2924     0.2637     8.0534 </r>
       <r>    -5.2011     0.9024     8.1359 </r>
       <r>    -5.1097     1.5995     8.2821 </r>
       <r>    -5.0183     1.1104     8.3835 </r>
       <r>    -4.9269     0.6832     8.4460 </r>
       <r>    -4.8355     1.6718     8.5987 </r>
       <r>    -4.7442     2.3452     8.8130 </r>
       <r>    -4.6528     2.3507     9.0278 </r>
       <r>    -4.5614     2.9245     9.2951 </r>
       <r>    -4.4700     2.7235     9.5439 </r>
       <r>    -4.3786     2.1745     9.7426 </r>
       <r>    -4.2873     1.2938     9.8609 </r>
       <r>    -4.1959     1.0893     9.9604 </r>
       <r>    -4.1045     1.0129    10.0530 </r>
       <r>    -4.0131     1.0527    10.1492 </r>
       <r>    -3.9218     1.9376    10.3262 </r>
       <r>    -3.8304     1.9976    10.5087 </r>
       <r>    -3.7390     1.9342    10.6855 </r>
       <r>    -3.6476     2.2783    10.8937 </r>
       <r>    -3.5562     2.4577    11.1183 </r>
       <r>    -3.4649     2.9356    11.3865 </r>
       <r>    -3.3735     3.3290    11.6907 </r>
       <r>    -3.2821     3.2885    11.9912 </r>
       <r>    -3.1907     3.8770    12.3455 </r>
       <r>    -3.0993     4.1042    12.7205 </r>
       <r>    -3.0080     3.3125    13.0232 </r>
       <r>    -2.9166     3.8189    13.3722 </r>
       <r>    -2.8252     4.0123    13.7388 </r>
       <r>    -2.7338     2.2485    13.9443 </r>
       <r>    -2.6425     1.0485    14.0401 </r>
       <r>    -2.5511     1.1670    14.1467 </r>
       <r>    -2.4597     2.0723    14.3361 </r>
       <r>    -2.3683     3.5420    14.6597 </r>
       <r>    -2.2769     5.3558    15.1491 </r>
       <r>    -2.1856     5.0190    15.6078 </r>
       <r>    -2.0942     3.0512    15.8866 </r>
       <r>    -2.0028     1.0921    15.9864 </r>
       <r>    -1.9114     0.1439    15.9995 </r>
       <r>    -1.8200     0.0050    16.0000 </r>
       <r>    -1.7287     0.0000    16.0000 </r>
       <r>    -1.6373     0.0000    16.0000 </r>
       <r>    -1.5459     0.0000    16.0000 </r>
       <r>    -1.4545     0.0001    16.0000 </r>
       <r>    -1.3631     0.0038    16.0004 </r>
       <r>    -1.2718     0.0512    16.0050 </r>
       <r>    -1.1804     0.1615    16.0198 </r>
       <r>    -1.0890     0.1945    16.0376 </r>
       <r>    -0.9976     0.3639    16.0708 </r>
       <r>    -0.9063     0.6178    16.1273 </r>
       <r>    -0.8149     1.2716    16.2435 </r>
       <r>    -0.7235     1.9366    16.4204 </r>
       <r>    -0.6321     1.2971    16.5389 </r>
       <r>    -0.5407     1.1992    16.6485 </r>
       <r>    -0.4494     3.0502    16.9273 </r>
       <r>    -0.3580     3.2049    17.2201 </r>
       <r>    -0.2666     1.7211    17.3774 </r>
       <r>    -0.1752     2.8794    17.6405 </r>
       <r>    -0.0838     5.6477    18.1566 </r>
       <r>     0.0075     6.1707    18.7205 </r>
       <r>     0.0989     4.7929    19.1584 </r>
       <r>     0.1903     2.5554    19.3919 </r>
       <r>     0.2817     1.7482    19.5517 </r>
       <r>     0.3730     2.7415    19.8022 </r>
       <r>     0.4644     3.3580    20.1090 </r>
       <r>     0.5558     2.7655    20.3618 </r>
       <r>     0.6472     2.3108    20.5729 </r>
       <r>     0.7386     3.1335    20.8592 </r>
       <r>     0.8299     4.7505    21.2933 </r>
       <r>     0.9213     5.2081    21.7693 </r>
       <r>     1.0127     4.7569    22.2039 </r>
       <r>     1.1041     5.2084    22.6799 </r>
       <r>     1.1955     5.5452    23.1866 </r>
       <r>     1.2868     5.1604    23.6581 </r>
       <r>     1.3782     5.4787    24.1588 </r>
       <r>     1.4696     7.4282    24.8375 </r>
       <r>     1.5610     7.0122    25.4783 </r>
       <r>     1.6523     5.1306    25.9471 </r>
       <r>     1.7437     5.6833    26.4665 </r>
       <r>     1.8351     5.6569    26.9834 </r>
       <r>     1.9265     5.5764    27.4930 </r>
       <r>     2.0179     6.3787    28.0758 </r>
       <r>     2.1092     5.3445    28.5642 </r>
       <r>     2.2006     4.3806    28.9645 </r>
       <r>     2.2920     5.1608    29.4361 </r>
       <r>     2.3834     5.5824    29.9462 </r>
       <r>     2.4748     6.0665    30.5006 </r>
       <r>     2.5661     6.3892    31.0844 </r>
       <r>     2.6575     5.8575    31.6196 </r>
       <r>     2.7489     5.4489    32.1176 </r>
       <r>     2.8403     5.6923    32.6377 </r>
       <r>     2.9316     5.6893    33.1576 </r>
       <r>     3.0230     5.9881    33.7048 </r>
       <r>     3.1144     7.0166    34.3459 </r>
       <r>     3.2058     7.6528    35.0452 </r>
       <r>     3.2972     7.7183    35.7505 </r>
       <r>     3.3885     7.9022    36.4726 </r>
       <r>     3.4799     7.1837    37.1291 </r>
       <r>     3.5713     5.6887    37.6489 </r>
       <r>     3.6627     5.3064    38.1338 </r>
       <r>     3.7541     4.9320    38.5845 </r>
       <r>     3.8454     5.1715    39.0570 </r>
       <r>     3.9368     6.6468    39.6644 </r>
       <r>     4.0282     7.1179    40.3148 </r>
       <r>     4.1196     7.0380    40.9580 </r>
       <r>     4.2110     8.0498    41.6935 </r>
       <r>     4.3023     8.0467    42.4288 </r>
       <r>     4.3937     7.6301    43.1261 </r>
       <r>     4.4851     8.0050    43.8575 </r>
       <r>     4.5765     7.0850    44.5050 </r>
       <r>     4.6678     5.6814    45.0241 </r>
       <r>     4.7592     6.5316    45.6210 </r>
       <r>     4.8506     7.3675    46.2942 </r>
       <r>     4.9420     7.6214    46.9906 </r>
       <r>     5.0334     7.6210    47.6870 </r>
       <r>     5.1247     7.7821    48.3981 </r>
       <r>     5.2161     8.6311    49.1868 </r>
       <r>     5.3075     7.2554    49.8498 </r>
       <r>     5.3989     5.1756    50.3228 </r>
       <r>     5.4903     4.7663    50.7583 </r>
       <r>     5.5816     6.1078    51.3164 </r>
       <r>     5.6730     7.2655    51.9803 </r>
       <r>     5.7644     5.6880    52.5001 </r>
       <r>     5.8558     5.6308    53.0146 </r>
       <r>     5.9471     5.8741    53.5514 </r>
       <r>     6.0385     5.7681    54.0785 </r>
       <r>     6.1299     6.5200    54.6743 </r>
       <r>     6.2213     6.8361    55.2990 </r>
       <r>     6.3127     7.0049    55.9391 </r>
       <r>     6.4040     7.4925    56.6237 </r>
       <r>     6.4954     7.4312    57.3028 </r>
       <r>     6.5868     6.8985    57.9331 </r>
       <r>     6.6782     7.0860    58.5807 </r>
       <r>     6.7696     6.9750    59.2180 </r>
       <r>     6.8609     5.4294    59.7142 </r>
       <r>     6.9523     4.8679    60.1590 </r>
       <r>     7.0437     4.6637    60.5851 </r>
       <r>     7.1351     4.1897    60.9680 </r>
       <r>     7.2264     3.7049    61.3065 </r>
       <r>     7.3178     3.7890    61.6528 </r>
       <r>     7.4092     4.1523    62.0322 </r>
       <r>     7.5006     3.6453    62.3653 </r>
       <r>     7.5920     3.1642    62.6544 </r>
       <r>     7.6833     1.9293    62.8307 </r>
       <r>     7.7747     1.1315    62.9341 </r>
       <r>     7.8661     1.7861    63.0973 </r>
       <r>     7.9575     2.6773    63.3420 </r>
       <r>     8.0489     2.4360    63.5646 </r>
       <r>     8.1402     1.6618    63.7164 </r>
       <r>     8.2316     1.4631    63.8501 </r>
       <r>     8.3230     0.9948    63.9410 </r>
       <r>     8.4144     0.5380    63.9902 </r>
       <r>     8.5057     0.1026    63.9996 </r>
       <r>     8.5971     0.0046    64.0000 </r>
       <r>     8.6885     0.0000    64.0000 </r>
       <r>     8.7799     0.0000    64.0000 </r>
       <r>     8.8713     0.0000    64.0000 </r>
       <r>     8.9626     0.0000    64.0000 </r>
       <r>     9.0540     0.0000    64.0000 </r>
       <r>     9.1454     0.0000    64.0000 </r>
       <r>     9.2368     0.0000    64.0000 </r>
       <r>     9.3282     0.0000    64.0000 </r>
       <r>     9.4195     0.0000    64.0000 </r>
       <r>     9.5109     0.0004    64.0000 </r>
       <r>     9.6023     0.0126    64.0012 </r>
       <r>     9.6937     0.0946    64.0098 </r>
       <r>     9.7851     0.1632    64.0247 </r>
       <r>     9.8764     0.0826    64.0323 </r>
       <r>     9.9678     0.1917    64.0498 </r>
       <r>    10.0592     0.4807    64.0937 </r>
       <r>    10.1506     0.3788    64.1283 </r>
       <r>    10.2419     0.4818    64.1724 </r>
       <r>    10.3333     1.0357    64.2670 </r>
       <r>    10.4247     1.3775    64.3929 </r>
       <r>    10.5161     0.7508    64.4615 </r>
       <r>    10.6075     0.4933    64.5066 </r>
       <r>    10.6988     1.6652    64.6587 </r>
       <r>    10.7902     3.3067    64.9609 </r>
       <r>    10.8816     3.7655    65.3050 </r>
       <r>    10.9730     3.2800    65.6047 </r>
       <r>    11.0644     3.7162    65.9443 </r>
       <r>    11.1557     2.9614    66.2149 </r>
       <r>    11.2471     2.4283    66.4368 </r>
       <r>    11.3385     3.3829    66.7459 </r>
       <r>    11.4299     4.9094    67.1945 </r>
       <r>    11.5212     5.4151    67.6894 </r>
       <r>    11.6126     4.4741    68.0982 </r>
       <r>    11.7040     4.5887    68.5175 </r>
       <r>    11.7954     5.6048    69.0297 </r>
       <r>    11.8868     5.6737    69.5481 </r>
       <r>    11.9781     5.4789    70.0488 </r>
       <r>    12.0695     5.6962    70.5693 </r>
       <r>    12.1609     5.2677    71.0506 </r>
       <r>    12.2523     4.9929    71.5069 </r>
       <r>    12.3437     4.6727    71.9339 </r>
       <r>    12.4350     3.8953    72.2898 </r>
       <r>    12.5264     3.5002    72.6097 </r>
       <r>    12.6178     4.4745    73.0185 </r>
       <r>    12.7092     5.5455    73.5253 </r>
       <r>    12.8005     4.1740    73.9067 </r>
       <r>    12.8919     4.0411    74.2760 </r>
       <r>    12.9833     6.2724    74.8491 </r>
       <r>    13.0747     6.9963    75.4884 </r>
       <r>    13.1661     5.6628    76.0059 </r>
       <r>    13.2574     4.6011    76.4263 </r>
       <r>    13.3488     4.2362    76.8134 </r>
       <r>    13.4402     3.7981    77.1605 </r>
       <r>    13.5316     4.3423    77.5573 </r>
       <r>    13.6230     7.3459    78.2286 </r>
       <r>    13.7143     7.1329    78.8804 </r>
       <r>    13.8057     4.8069    79.3196 </r>
       <r>    13.8971     4.1417    79.6981 </r>
       <r>    13.9885     5.3643    80.1882 </r>
       <r>    14.0799     6.6493    80.7958 </r>
       <r>    14.1712     6.8683    81.4235 </r>
       <r>    14.2626     6.7969    82.0446 </r>
       <r>    14.3540     8.0796    82.7829 </r>
       <r>    14.4454     7.2174    83.4424 </r>
       <r>    14.5367     5.8991    83.9814 </r>
       <r>    14.6281     6.7192    84.5954 </r>
       <r>    14.7195     6.7032    85.2079 </r>
       <r>    14.8109     6.7309    85.8230 </r>
       <r>    14.9023     5.2885    86.3063 </r>
       <r>    14.9936     5.5262    86.8112 </r>
       <r>    15.0850     5.8533    87.3461 </r>
       <r>    15.1764     3.7301    87.6870 </r>
       <r>    15.2678     1.7303    87.8451 </r>
       <r>    15.3592     1.0063    87.9370 </r>
       <r>    15.4505     0.3308    87.9672 </r>
       <r>    15.5419     0.1250    87.9787 </r>
       <r>    15.6333     0.1632    87.9936 </r>
       <r>    15.7247     0.0644    87.9995 </r>
       <r>    15.8160     0.0058    88.0000 </r>
       <r>    15.9074     0.0001    88.0000 </r>
       <r>    15.9988     0.0000    88.0000 </r>
       <r>    16.0902     0.0000    88.0000 </r>
       <r>    16.1816     0.0000    88.0000 </r>
       <r>    16.2729     0.0000    88.0000 </r>
       <r>    16.3643     0.0000    88.0000 </r>
       <r>    16.4557     0.0000    88.0000 </r>
       <r>    16.5471     0.0000    88.0000 </r>
       <r>    16.6385     0.0000    88.0000 </r>
       <r>    16.7298     0.0000    88.0000 </r>
       <r>    16.8212     0.0000    88.0000 </r>
      </set>
     </set>
    </array>
   </total>
  </dos>
 </calculation>
 <structure name="finalpos" >
  <crystal>
   <varray name="basis" >
    <v>       5.90597594      -0.01465364       0.00583126 </v>
    <v>      -2.60170024       5.31930866       0.01240845 </v>
    <v>      -1.64673546      -2.63714254       5.42765938 </v>
   </varray>
   <i name="volume">    170.59148842 </i>
   <varray name="rec_basis" >
    <v>       0.16943470       0.08265775       0.09156699 </v>
    <v>       0.00037609       0.18796499       0.09144085 </v>
    <v>      -0.00018289      -0.00051852       0.18393406 </v>
   </varray>
  </crystal>
  <varray name="positions" >
   <v>       0.65731849       0.66662347       0.33070424 </v>
   <v>       0.65316716       0.66978401       0.83150270 </v>
   <v>       0.57975957       0.07274122       0.65840604 </v>
   <v>       0.08539936       0.58266227       0.66128828 </v>
   <v>       0.16853365       0.17163575       0.33630230 </v>
   <v>       0.16533892       0.17465582       0.83458713 </v>
   <v>       0.58599795       0.08398811       0.17129602 </v>
   <v>       0.09067324       0.58727193       0.17371703 </v>
   <v>       0.77164606       0.87424912       0.16044179 </v>
   <v>       0.76076679       0.88667644       0.66198458 </v>
   <v>       0.28901300       0.39908366       0.17169774 </v>
   <v>       0.27368102       0.41344393       0.67157706 </v>
   <v>       0.36982289       0.98521606       0.35325364 </v>
   <v>       0.35198618       0.96834686       0.81635760 </v>
   <v>       0.85880436       0.49252045       0.35225598 </v>
   <v>       0.83809137       0.47110089       0.81462786 </v>
  </varray>
 </structure>
</modeling>
