<?xml version="1.0" encoding="ISO-8859-1"?>
<modeling>
 <generator>
  <i name="program" type="string">vasp </i>
  <i name="version" type="string">5.3.5  </i>
  <i name="subversion" type="string">31Mar14 (build Jun 20 2014 13:15:13) complex                          parallel </i>
  <i name="platform" type="string">LinuxIFC </i>
  <i name="date" type="string">2025 11 26 </i>
  <i name="time" type="string">20:37:24 </i>
 </generator>
 <incar>
  <i type="string" name="PREC">accurate</i>
  <i type="int" name="IALGO">    68</i>
  <i type="logical" name="ADDGRID"> T  </i>
  <i type="int" name="NELM">   200</i>
  <i type="int" name="NELMIN">     4</i>
  <i type="int" name="IBRION">     2</i>
  <i name="EDIFF">      0.00000100</i>
  <i name="EDIFFG">     -0.02000000</i>
  <i type="int" name="NSW">    30</i>
  <i type="int" name="ISIF">     3</i>
  <i name="ENCUT">    500.00000000</i>
  <i type="logical" name="LREAL"> F  </i>
  <i type="int" name="ISMEAR">     1</i>
  <i name="SIGMA">      0.30000000</i>
  <i type="logical" name="LWAVE"> F  </i>
  <i type="logical" name="LCHARG"> F  </i>
  <i type="int" name="NELM">   200</i>
 </incar>
 <kpoints>
  <generation param="Auto">
   <i name="subdivisionlength">     70.00000000 </i>
   <v type="int" name="divisions">      29       28        6 </v>
   <v name="usershift">      0.00000000       0.00000000       0.00000000 </v>
   <v name="genvec1">      0.03448276       0.00000000       0.00000000 </v>
   <v name="genvec2">      0.00000000       0.03571429       0.00000000 </v>
   <v name="genvec3">      0.00000000       0.00000000       0.16666667 </v>
   <v name="shift">      0.00000000       0.00000000       0.00000000 </v>
  </generation>
  <varray name="kpointlist" >
   <v>       0.00000000       0.00000000       0.00000000 </v>
   <v>       0.03448276       0.00000000       0.00000000 </v>
   <v>       0.06896552       0.00000000       0.00000000 </v>
   <v>       0.10344828       0.00000000       0.00000000 </v>
   <v>       0.13793103       0.00000000       0.00000000 </v>
   <v>       0.17241379       0.00000000       0.00000000 </v>
   <v>       0.20689655       0.00000000       0.00000000 </v>
   <v>       0.24137931       0.00000000       0.00000000 </v>
   <v>       0.27586207       0.00000000       0.00000000 </v>
   <v>       0.31034483       0.00000000       0.00000000 </v>
   <v>       0.34482759       0.00000000       0.00000000 </v>
   <v>       0.37931034       0.00000000       0.00000000 </v>
   <v>       0.41379310       0.00000000       0.00000000 </v>
   <v>       0.44827586       0.00000000       0.00000000 </v>
   <v>       0.48275862       0.00000000       0.00000000 </v>
   <v>       0.00000000       0.03571429       0.00000000 </v>
   <v>       0.03448276       0.03571429       0.00000000 </v>
   <v>       0.06896552       0.03571429       0.00000000 </v>
   <v>       0.10344828       0.03571429       0.00000000 </v>
   <v>       0.13793103       0.03571429       0.00000000 </v>
   <v>       0.17241379       0.03571429       0.00000000 </v>
   <v>       0.20689655       0.03571429       0.00000000 </v>
   <v>       0.24137931       0.03571429       0.00000000 </v>
   <v>       0.27586207       0.03571429       0.00000000 </v>
   <v>       0.31034483       0.03571429       0.00000000 </v>
   <v>       0.34482759       0.03571429       0.00000000 </v>
   <v>       0.37931034       0.03571429       0.00000000 </v>
   <v>       0.41379310       0.03571429       0.00000000 </v>
   <v>       0.44827586       0.03571429       0.00000000 </v>
   <v>       0.48275862       0.03571429       0.00000000 </v>
   <v>      -0.48275862       0.03571429       0.00000000 </v>
   <v>      -0.44827586       0.03571429       0.00000000 </v>
   <v>      -0.41379310       0.03571429       0.00000000 </v>
   <v>      -0.37931034       0.03571429       0.00000000 </v>
   <v>      -0.34482759       0.03571429       0.00000000 </v>
   <v>      -0.31034483       0.03571429       0.00000000 </v>
   <v>      -0.27586207       0.03571429       0.00000000 </v>
   <v>      -0.24137931       0.03571429       0.00000000 </v>
   <v>      -0.20689655       0.03571429       0.00000000 </v>
   <v>      -0.17241379       0.03571429       0.00000000 </v>
   <v>      -0.13793103       0.03571429       0.00000000 </v>
   <v>      -0.10344828       0.03571429       0.00000000 </v>
   <v>      -0.06896552       0.03571429       0.00000000 </v>
   <v>      -0.03448276       0.03571429       0.00000000 </v>
   <v>       0.00000000       0.07142857       0.00000000 </v>
   <v>       0.03448276       0.07142857       0.00000000 </v>
   <v>       0.06896552       0.07142857       0.00000000 </v>
   <v>       0.10344828       0.07142857       0.00000000 </v>
   <v>       0.13793103       0.07142857       0.00000000 </v>
   <v>       0.17241379       0.07142857       0.00000000 </v>
   <v>       0.20689655       0.07142857       0.00000000 </v>
   <v>       0.24137931       0.07142857       0.00000000 </v>
   <v>       0.27586207       0.07142857       0.00000000 </v>
   <v>       0.31034483       0.07142857       0.00000000 </v>
   <v>       0.34482759       0.07142857       0.00000000 </v>
   <v>       0.37931034       0.07142857       0.00000000 </v>
   <v>       0.41379310       0.07142857       0.00000000 </v>
   <v>       0.44827586       0.07142857       0.00000000 </v>
   <v>       0.48275862       0.07142857       0.00000000 </v>
   <v>      -0.48275862       0.07142857       0.00000000 </v>
   <v>      -0.44827586       0.07142857       0.00000000 </v>
   <v>      -0.41379310       0.07142857       0.00000000 </v>
   <v>      -0.37931034       0.07142857       0.00000000 </v>
   <v>      -0.34482759       0.07142857       0.00000000 </v>
   <v>      -0.31034483       0.07142857       0.00000000 </v>
   <v>      -0.27586207       0.07142857       0.00000000 </v>
   <v>      -0.24137931       0.07142857       0.00000000 </v>
   <v>      -0.20689655       0.07142857       0.00000000 </v>
   <v>      -0.17241379       0.07142857       0.00000000 </v>
   <v>      -0.13793103       0.07142857       0.00000000 </v>
   <v>      -0.10344828       0.07142857       0.00000000 </v>
   <v>      -0.06896552       0.07142857       0.00000000 </v>
   <v>      -0.03448276       0.07142857       0.00000000 </v>
   <v>       0.00000000       0.10714286       0.00000000 </v>
   <v>       0.03448276       0.10714286       0.00000000 </v>
   <v>       0.06896552       0.10714286       0.00000000 </v>
   <v>       0.10344828       0.10714286       0.00000000 </v>
   <v>       0.13793103       0.10714286       0.00000000 </v>
   <v>       0.17241379       0.10714286       0.00000000 </v>
   <v>       0.20689655       0.10714286       0.00000000 </v>
   <v>       0.24137931       0.10714286       0.00000000 </v>
   <v>       0.27586207       0.10714286       0.00000000 </v>
   <v>       0.31034483       0.10714286       0.00000000 </v>
   <v>       0.34482759       0.10714286       0.00000000 </v>
   <v>       0.37931034       0.10714286       0.00000000 </v>
   <v>       0.41379310       0.10714286       0.00000000 </v>
   <v>       0.44827586       0.10714286       0.00000000 </v>
   <v>       0.48275862       0.10714286       0.00000000 </v>
   <v>      -0.48275862       0.10714286       0.00000000 </v>
   <v>      -0.44827586       0.10714286       0.00000000 </v>
   <v>      -0.41379310       0.10714286       0.00000000 </v>
   <v>      -0.37931034       0.10714286       0.00000000 </v>
   <v>      -0.34482759       0.10714286       0.00000000 </v>
   <v>      -0.31034483       0.10714286       0.00000000 </v>
   <v>      -0.27586207       0.10714286       0.00000000 </v>
   <v>      -0.24137931       0.10714286       0.00000000 </v>
   <v>      -0.20689655       0.10714286       0.00000000 </v>
   <v>      -0.17241379       0.10714286       0.00000000 </v>
   <v>      -0.13793103       0.10714286       0.00000000 </v>
   <v>      -0.10344828       0.10714286       0.00000000 </v>
   <v>      -0.06896552       0.10714286       0.00000000 </v>
   <v>      -0.03448276       0.10714286       0.00000000 </v>
   <v>       0.00000000       0.14285714       0.00000000 </v>
   <v>       0.03448276       0.14285714       0.00000000 </v>
   <v>       0.06896552       0.14285714       0.00000000 </v>
   <v>       0.10344828       0.14285714       0.00000000 </v>
   <v>       0.13793103       0.14285714       0.00000000 </v>
   <v>       0.17241379       0.14285714       0.00000000 </v>
   <v>       0.20689655       0.14285714       0.00000000 </v>
   <v>       0.24137931       0.14285714       0.00000000 </v>
   <v>       0.27586207       0.14285714       0.00000000 </v>
   <v>       0.31034483       0.14285714       0.00000000 </v>
   <v>       0.34482759       0.14285714       0.00000000 </v>
   <v>       0.37931034       0.14285714       0.00000000 </v>
   <v>       0.41379310       0.14285714       0.00000000 </v>
   <v>       0.44827586       0.14285714       0.00000000 </v>
   <v>       0.48275862       0.14285714       0.00000000 </v>
   <v>      -0.48275862       0.14285714       0.00000000 </v>
   <v>      -0.44827586       0.14285714       0.00000000 </v>
   <v>      -0.41379310       0.14285714       0.00000000 </v>
   <v>      -0.37931034       0.14285714       0.00000000 </v>
   <v>      -0.34482759       0.14285714       0.00000000 </v>
   <v>      -0.31034483       0.14285714       0.00000000 </v>
   <v>      -0.27586207       0.14285714       0.00000000 </v>
   <v>      -0.24137931       0.14285714       0.00000000 </v>
   <v>      -0.20689655       0.14285714       0.00000000 </v>
   <v>      -0.17241379       0.14285714       0.00000000 </v>
   <v>      -0.13793103       0.14285714       0.00000000 </v>
   <v>      -0.10344828       0.14285714       0.00000000 </v>
   <v>      -0.06896552       0.14285714       0.00000000 </v>
   <v>      -0.03448276       0.14285714       0.00000000 </v>
   <v>       0.00000000       0.17857143       0.00000000 </v>
   <v>       0.03448276       0.17857143       0.00000000 </v>
   <v>       0.06896552       0.17857143       0.00000000 </v>
   <v>       0.10344828       0.17857143       0.00000000 </v>
   <v>       0.13793103       0.17857143       0.00000000 </v>
   <v>       0.17241379       0.17857143       0.00000000 </v>
   <v>       0.20689655       0.17857143       0.00000000 </v>
   <v>       0.24137931       0.17857143       0.00000000 </v>
   <v>       0.27586207       0.17857143       0.00000000 </v>
   <v>       0.31034483       0.17857143       0.00000000 </v>
   <v>       0.34482759       0.17857143       0.00000000 </v>
   <v>       0.37931034       0.17857143       0.00000000 </v>
   <v>       0.41379310       0.17857143       0.00000000 </v>
   <v>       0.44827586       0.17857143       0.00000000 </v>
   <v>       0.48275862       0.17857143       0.00000000 </v>
   <v>      -0.48275862       0.17857143       0.00000000 </v>
   <v>      -0.44827586       0.17857143       0.00000000 </v>
   <v>      -0.41379310       0.17857143       0.00000000 </v>
   <v>      -0.37931034       0.17857143       0.00000000 </v>
   <v>      -0.34482759       0.17857143       0.00000000 </v>
   <v>      -0.31034483       0.17857143       0.00000000 </v>
   <v>      -0.27586207       0.17857143       0.00000000 </v>
   <v>      -0.24137931       0.17857143       0.00000000 </v>
   <v>      -0.20689655       0.17857143       0.00000000 </v>
   <v>      -0.17241379       0.17857143       0.00000000 </v>
   <v>      -0.13793103       0.17857143       0.00000000 </v>
   <v>      -0.10344828       0.17857143       0.00000000 </v>
   <v>      -0.06896552       0.17857143       0.00000000 </v>
   <v>      -0.03448276       0.17857143       0.00000000 </v>
   <v>       0.00000000       0.21428571       0.00000000 </v>
   <v>       0.03448276       0.21428571       0.00000000 </v>
   <v>       0.06896552       0.21428571       0.00000000 </v>
   <v>       0.10344828       0.21428571       0.00000000 </v>
   <v>       0.13793103       0.21428571       0.00000000 </v>
   <v>       0.17241379       0.21428571       0.00000000 </v>
   <v>       0.20689655       0.21428571       0.00000000 </v>
   <v>       0.24137931       0.21428571       0.00000000 </v>
   <v>       0.27586207       0.21428571       0.00000000 </v>
   <v>       0.31034483       0.21428571       0.00000000 </v>
   <v>       0.34482759       0.21428571       0.00000000 </v>
   <v>       0.37931034       0.21428571       0.00000000 </v>
   <v>       0.41379310       0.21428571       0.00000000 </v>
   <v>       0.44827586       0.21428571       0.00000000 </v>
   <v>       0.48275862       0.21428571       0.00000000 </v>
   <v>      -0.48275862       0.21428571       0.00000000 </v>
   <v>      -0.44827586       0.21428571       0.00000000 </v>
   <v>      -0.41379310       0.21428571       0.00000000 </v>
   <v>      -0.37931034       0.21428571       0.00000000 </v>
   <v>      -0.34482759       0.21428571       0.00000000 </v>
   <v>      -0.31034483       0.21428571       0.00000000 </v>
   <v>      -0.27586207       0.21428571       0.00000000 </v>
   <v>      -0.24137931       0.21428571       0.00000000 </v>
   <v>      -0.20689655       0.21428571       0.00000000 </v>
   <v>      -0.17241379       0.21428571       0.00000000 </v>
   <v>      -0.13793103       0.21428571       0.00000000 </v>
   <v>      -0.10344828       0.21428571       0.00000000 </v>
   <v>      -0.06896552       0.21428571       0.00000000 </v>
   <v>      -0.03448276       0.21428571       0.00000000 </v>
   <v>       0.00000000       0.25000000       0.00000000 </v>
   <v>       0.03448276       0.25000000       0.00000000 </v>
   <v>       0.06896552       0.25000000       0.00000000 </v>
   <v>       0.10344828       0.25000000       0.00000000 </v>
   <v>       0.13793103       0.25000000       0.00000000 </v>
   <v>       0.17241379       0.25000000       0.00000000 </v>
   <v>       0.20689655       0.25000000       0.00000000 </v>
   <v>       0.24137931       0.25000000       0.00000000 </v>
   <v>       0.27586207       0.25000000       0.00000000 </v>
   <v>       0.31034483       0.25000000       0.00000000 </v>
   <v>       0.34482759       0.25000000       0.00000000 </v>
   <v>       0.37931034       0.25000000       0.00000000 </v>
   <v>       0.41379310       0.25000000       0.00000000 </v>
   <v>       0.44827586       0.25000000       0.00000000 </v>
   <v>       0.48275862       0.25000000       0.00000000 </v>
   <v>      -0.48275862       0.25000000       0.00000000 </v>
   <v>      -0.44827586       0.25000000       0.00000000 </v>
   <v>      -0.41379310       0.25000000       0.00000000 </v>
   <v>      -0.37931034       0.25000000       0.00000000 </v>
   <v>      -0.34482759       0.25000000       0.00000000 </v>
   <v>      -0.31034483       0.25000000       0.00000000 </v>
   <v>      -0.27586207       0.25000000       0.00000000 </v>
   <v>      -0.24137931       0.25000000       0.00000000 </v>
   <v>      -0.20689655       0.25000000       0.00000000 </v>
   <v>      -0.17241379       0.25000000       0.00000000 </v>
   <v>      -0.13793103       0.25000000       0.00000000 </v>
   <v>      -0.10344828       0.25000000       0.00000000 </v>
   <v>      -0.06896552       0.25000000       0.00000000 </v>
   <v>      -0.03448276       0.25000000       0.00000000 </v>
   <v>       0.00000000       0.28571429       0.00000000 </v>
   <v>       0.03448276       0.28571429       0.00000000 </v>
   <v>       0.06896552       0.28571429       0.00000000 </v>
   <v>       0.10344828       0.28571429       0.00000000 </v>
   <v>       0.13793103       0.28571429       0.00000000 </v>
   <v>       0.17241379       0.28571429       0.00000000 </v>
   <v>       0.20689655       0.28571429       0.00000000 </v>
   <v>       0.24137931       0.28571429       0.00000000 </v>
   <v>       0.27586207       0.28571429       0.00000000 </v>
   <v>       0.31034483       0.28571429       0.00000000 </v>
   <v>       0.34482759       0.28571429       0.00000000 </v>
   <v>       0.37931034       0.28571429       0.00000000 </v>
   <v>       0.41379310       0.28571429       0.00000000 </v>
   <v>       0.44827586       0.28571429       0.00000000 </v>
   <v>       0.48275862       0.28571429       0.00000000 </v>
   <v>      -0.48275862       0.28571429       0.00000000 </v>
   <v>      -0.44827586       0.28571429       0.00000000 </v>
   <v>      -0.41379310       0.28571429       0.00000000 </v>
   <v>      -0.37931034       0.28571429       0.00000000 </v>
   <v>      -0.34482759       0.28571429       0.00000000 </v>
   <v>      -0.31034483       0.28571429       0.00000000 </v>
   <v>      -0.27586207       0.28571429       0.00000000 </v>
   <v>      -0.24137931       0.28571429       0.00000000 </v>
   <v>      -0.20689655       0.28571429       0.00000000 </v>
   <v>      -0.17241379       0.28571429       0.00000000 </v>
   <v>      -0.13793103       0.28571429       0.00000000 </v>
   <v>      -0.10344828       0.28571429       0.00000000 </v>
   <v>      -0.06896552       0.28571429       0.00000000 </v>
   <v>      -0.03448276       0.28571429       0.00000000 </v>
   <v>       0.00000000       0.32142857       0.00000000 </v>
   <v>       0.03448276       0.32142857       0.00000000 </v>
   <v>       0.06896552       0.32142857       0.00000000 </v>
   <v>       0.10344828       0.32142857       0.00000000 </v>
   <v>       0.13793103       0.32142857       0.00000000 </v>
   <v>       0.17241379       0.32142857       0.00000000 </v>
   <v>       0.20689655       0.32142857       0.00000000 </v>
   <v>       0.24137931       0.32142857       0.00000000 </v>
   <v>       0.27586207       0.32142857       0.00000000 </v>
   <v>       0.31034483       0.32142857       0.00000000 </v>
   <v>       0.34482759       0.32142857       0.00000000 </v>
   <v>       0.37931034       0.32142857       0.00000000 </v>
   <v>       0.41379310       0.32142857       0.00000000 </v>
   <v>       0.44827586       0.32142857       0.00000000 </v>
   <v>       0.48275862       0.32142857       0.00000000 </v>
   <v>      -0.48275862       0.32142857       0.00000000 </v>
   <v>      -0.44827586       0.32142857       0.00000000 </v>
   <v>      -0.41379310       0.32142857       0.00000000 </v>
   <v>      -0.37931034       0.32142857       0.00000000 </v>
   <v>      -0.34482759       0.32142857       0.00000000 </v>
   <v>      -0.31034483       0.32142857       0.00000000 </v>
   <v>      -0.27586207       0.32142857       0.00000000 </v>
   <v>      -0.24137931       0.32142857       0.00000000 </v>
   <v>      -0.20689655       0.32142857       0.00000000 </v>
   <v>      -0.17241379       0.32142857       0.00000000 </v>
   <v>      -0.13793103       0.32142857       0.00000000 </v>
   <v>      -0.10344828       0.32142857       0.00000000 </v>
   <v>      -0.06896552       0.32142857       0.00000000 </v>
   <v>      -0.03448276       0.32142857       0.00000000 </v>
   <v>       0.00000000       0.35714286       0.00000000 </v>
   <v>       0.03448276       0.35714286       0.00000000 </v>
   <v>       0.06896552       0.35714286       0.00000000 </v>
   <v>       0.10344828       0.35714286       0.00000000 </v>
   <v>       0.13793103       0.35714286       0.00000000 </v>
   <v>       0.17241379       0.35714286       0.00000000 </v>
   <v>       0.20689655       0.35714286       0.00000000 </v>
   <v>       0.24137931       0.35714286       0.00000000 </v>
   <v>       0.27586207       0.35714286       0.00000000 </v>
   <v>       0.31034483       0.35714286       0.00000000 </v>
   <v>       0.34482759       0.35714286       0.00000000 </v>
   <v>       0.37931034       0.35714286       0.00000000 </v>
   <v>       0.41379310       0.35714286       0.00000000 </v>
   <v>       0.44827586       0.35714286       0.00000000 </v>
   <v>       0.48275862       0.35714286       0.00000000 </v>
   <v>      -0.48275862       0.35714286       0.00000000 </v>
   <v>      -0.44827586       0.35714286       0.00000000 </v>
   <v>      -0.41379310       0.35714286       0.00000000 </v>
   <v>      -0.37931034       0.35714286       0.00000000 </v>
   <v>      -0.34482759       0.35714286       0.00000000 </v>
   <v>      -0.31034483       0.35714286       0.00000000 </v>
   <v>      -0.27586207       0.35714286       0.00000000 </v>
   <v>      -0.24137931       0.35714286       0.00000000 </v>
   <v>      -0.20689655       0.35714286       0.00000000 </v>
   <v>      -0.17241379       0.35714286       0.00000000 </v>
   <v>      -0.13793103       0.35714286       0.00000000 </v>
   <v>      -0.10344828       0.35714286       0.00000000 </v>
   <v>      -0.06896552       0.35714286       0.00000000 </v>
   <v>      -0.03448276       0.35714286       0.00000000 </v>
   <v>       0.00000000       0.39285714       0.00000000 </v>
   <v>       0.03448276       0.39285714       0.00000000 </v>
   <v>       0.06896552       0.39285714       0.00000000 </v>
   <v>       0.10344828       0.39285714       0.00000000 </v>
   <v>       0.13793103       0.39285714       0.00000000 </v>
   <v>       0.17241379       0.39285714       0.00000000 </v>
   <v>       0.20689655       0.39285714       0.00000000 </v>
   <v>       0.24137931       0.39285714       0.00000000 </v>
   <v>       0.27586207       0.39285714       0.00000000 </v>
   <v>       0.31034483       0.39285714       0.00000000 </v>
   <v>       0.34482759       0.39285714       0.00000000 </v>
   <v>       0.37931034       0.39285714       0.00000000 </v>
   <v>       0.41379310       0.39285714       0.00000000 </v>
   <v>       0.44827586       0.39285714       0.00000000 </v>
   <v>       0.48275862       0.39285714       0.00000000 </v>
   <v>      -0.48275862       0.39285714       0.00000000 </v>
   <v>      -0.44827586       0.39285714       0.00000000 </v>
   <v>      -0.41379310       0.39285714       0.00000000 </v>
   <v>      -0.37931034       0.39285714       0.00000000 </v>
   <v>      -0.34482759       0.39285714       0.00000000 </v>
   <v>      -0.31034483       0.39285714       0.00000000 </v>
   <v>      -0.27586207       0.39285714       0.00000000 </v>
   <v>      -0.24137931       0.39285714       0.00000000 </v>
   <v>      -0.20689655       0.39285714       0.00000000 </v>
   <v>      -0.17241379       0.39285714       0.00000000 </v>
   <v>      -0.13793103       0.39285714       0.00000000 </v>
   <v>      -0.10344828       0.39285714       0.00000000 </v>
   <v>      -0.06896552       0.39285714       0.00000000 </v>
   <v>      -0.03448276       0.39285714       0.00000000 </v>
   <v>       0.00000000       0.42857143       0.00000000 </v>
   <v>       0.03448276       0.42857143       0.00000000 </v>
   <v>       0.06896552       0.42857143       0.00000000 </v>
   <v>       0.10344828       0.42857143       0.00000000 </v>
   <v>       0.13793103       0.42857143       0.00000000 </v>
   <v>       0.17241379       0.42857143       0.00000000 </v>
   <v>       0.20689655       0.42857143       0.00000000 </v>
   <v>       0.24137931       0.42857143       0.00000000 </v>
   <v>       0.27586207       0.42857143       0.00000000 </v>
   <v>       0.31034483       0.42857143       0.00000000 </v>
   <v>       0.34482759       0.42857143       0.00000000 </v>
   <v>       0.37931034       0.42857143       0.00000000 </v>
   <v>       0.41379310       0.42857143       0.00000000 </v>
   <v>       0.44827586       0.42857143       0.00000000 </v>
   <v>       0.48275862       0.42857143       0.00000000 </v>
   <v>      -0.48275862       0.42857143       0.00000000 </v>
   <v>      -0.44827586       0.42857143       0.00000000 </v>
   <v>      -0.41379310       0.42857143       0.00000000 </v>
   <v>      -0.37931034       0.42857143       0.00000000 </v>
   <v>      -0.34482759       0.42857143       0.00000000 </v>
   <v>      -0.31034483       0.42857143       0.00000000 </v>
   <v>      -0.27586207       0.42857143       0.00000000 </v>
   <v>      -0.24137931       0.42857143       0.00000000 </v>
   <v>      -0.20689655       0.42857143       0.00000000 </v>
   <v>      -0.17241379       0.42857143       0.00000000 </v>
   <v>      -0.13793103       0.42857143       0.00000000 </v>
   <v>      -0.10344828       0.42857143       0.00000000 </v>
   <v>      -0.06896552       0.42857143       0.00000000 </v>
   <v>      -0.03448276       0.42857143       0.00000000 </v>
   <v>       0.00000000       0.46428571       0.00000000 </v>
   <v>       0.03448276       0.46428571       0.00000000 </v>
   <v>       0.06896552       0.46428571       0.00000000 </v>
   <v>       0.10344828       0.46428571       0.00000000 </v>
   <v>       0.13793103       0.46428571       0.00000000 </v>
   <v>       0.17241379       0.46428571       0.00000000 </v>
   <v>       0.20689655       0.46428571       0.00000000 </v>
   <v>       0.24137931       0.46428571       0.00000000 </v>
   <v>       0.27586207       0.46428571       0.00000000 </v>
   <v>       0.31034483       0.46428571       0.00000000 </v>
   <v>       0.34482759       0.46428571       0.00000000 </v>
   <v>       0.37931034       0.46428571       0.00000000 </v>
   <v>       0.41379310       0.46428571       0.00000000 </v>
   <v>       0.44827586       0.46428571       0.00000000 </v>
   <v>       0.48275862       0.46428571       0.00000000 </v>
   <v>      -0.48275862       0.46428571       0.00000000 </v>
   <v>      -0.44827586       0.46428571       0.00000000 </v>
   <v>      -0.41379310       0.46428571       0.00000000 </v>
   <v>      -0.37931034       0.46428571       0.00000000 </v>
   <v>      -0.34482759       0.46428571       0.00000000 </v>
   <v>      -0.31034483       0.46428571       0.00000000 </v>
   <v>      -0.27586207       0.46428571       0.00000000 </v>
   <v>      -0.24137931       0.46428571       0.00000000 </v>
   <v>      -0.20689655       0.46428571       0.00000000 </v>
   <v>      -0.17241379       0.46428571       0.00000000 </v>
   <v>      -0.13793103       0.46428571       0.00000000 </v>
   <v>      -0.10344828       0.46428571       0.00000000 </v>
   <v>      -0.06896552       0.46428571       0.00000000 </v>
   <v>      -0.03448276       0.46428571       0.00000000 </v>
   <v>       0.00000000       0.50000000       0.00000000 </v>
   <v>       0.03448276       0.50000000       0.00000000 </v>
   <v>       0.06896552       0.50000000       0.00000000 </v>
   <v>       0.10344828       0.50000000       0.00000000 </v>
   <v>       0.13793103       0.50000000       0.00000000 </v>
   <v>       0.17241379       0.50000000       0.00000000 </v>
   <v>       0.20689655       0.50000000       0.00000000 </v>
   <v>       0.24137931       0.50000000       0.00000000 </v>
   <v>       0.27586207       0.50000000       0.00000000 </v>
   <v>       0.31034483       0.50000000       0.00000000 </v>
   <v>       0.34482759       0.50000000       0.00000000 </v>
   <v>       0.37931034       0.50000000       0.00000000 </v>
   <v>       0.41379310       0.50000000       0.00000000 </v>
   <v>       0.44827586       0.50000000       0.00000000 </v>
   <v>       0.48275862       0.50000000       0.00000000 </v>
   <v>       0.00000000       0.00000000       0.16666667 </v>
   <v>       0.03448276       0.00000000       0.16666667 </v>
   <v>       0.06896552       0.00000000       0.16666667 </v>
   <v>       0.10344828       0.00000000       0.16666667 </v>
   <v>       0.13793103       0.00000000       0.16666667 </v>
   <v>       0.17241379       0.00000000       0.16666667 </v>
   <v>       0.20689655       0.00000000       0.16666667 </v>
   <v>       0.24137931       0.00000000       0.16666667 </v>
   <v>       0.27586207       0.00000000       0.16666667 </v>
   <v>       0.31034483       0.00000000       0.16666667 </v>
   <v>       0.34482759       0.00000000       0.16666667 </v>
   <v>       0.37931034       0.00000000       0.16666667 </v>
   <v>       0.41379310       0.00000000       0.16666667 </v>
   <v>       0.44827586       0.00000000       0.16666667 </v>
   <v>       0.48275862       0.00000000       0.16666667 </v>
   <v>      -0.48275862       0.00000000       0.16666667 </v>
   <v>      -0.44827586       0.00000000       0.16666667 </v>
   <v>      -0.41379310       0.00000000       0.16666667 </v>
   <v>      -0.37931034       0.00000000       0.16666667 </v>
   <v>      -0.34482759       0.00000000       0.16666667 </v>
   <v>      -0.31034483       0.00000000       0.16666667 </v>
   <v>      -0.27586207       0.00000000       0.16666667 </v>
   <v>      -0.24137931       0.00000000       0.16666667 </v>
   <v>      -0.20689655       0.00000000       0.16666667 </v>
   <v>      -0.17241379       0.00000000       0.16666667 </v>
   <v>      -0.13793103       0.00000000       0.16666667 </v>
   <v>      -0.10344828       0.00000000       0.16666667 </v>
   <v>      -0.06896552       0.00000000       0.16666667 </v>
   <v>      -0.03448276       0.00000000       0.16666667 </v>
   <v>       0.00000000       0.03571429       0.16666667 </v>
   <v>       0.03448276       0.03571429       0.16666667 </v>
   <v>       0.06896552       0.03571429       0.16666667 </v>
   <v>       0.10344828       0.03571429       0.16666667 </v>
   <v>       0.13793103       0.03571429       0.16666667 </v>
   <v>       0.17241379       0.03571429       0.16666667 </v>
   <v>       0.20689655       0.03571429       0.16666667 </v>
   <v>       0.24137931       0.03571429       0.16666667 </v>
   <v>       0.27586207       0.03571429       0.16666667 </v>
   <v>       0.31034483       0.03571429       0.16666667 </v>
   <v>       0.34482759       0.03571429       0.16666667 </v>
   <v>       0.37931034       0.03571429       0.16666667 </v>
   <v>       0.41379310       0.03571429       0.16666667 </v>
   <v>       0.44827586       0.03571429       0.16666667 </v>
   <v>       0.48275862       0.03571429       0.16666667 </v>
   <v>      -0.48275862       0.03571429       0.16666667 </v>
   <v>      -0.44827586       0.03571429       0.16666667 </v>
   <v>      -0.41379310       0.03571429       0.16666667 </v>
   <v>      -0.37931034       0.03571429       0.16666667 </v>
   <v>      -0.34482759       0.03571429       0.16666667 </v>
   <v>      -0.31034483       0.03571429       0.16666667 </v>
   <v>      -0.27586207       0.03571429       0.16666667 </v>
   <v>      -0.24137931       0.03571429       0.16666667 </v>
   <v>      -0.20689655       0.03571429       0.16666667 </v>
   <v>      -0.17241379       0.03571429       0.16666667 </v>
   <v>      -0.13793103       0.03571429       0.16666667 </v>
   <v>      -0.10344828       0.03571429       0.16666667 </v>
   <v>      -0.06896552       0.03571429       0.16666667 </v>
   <v>      -0.03448276       0.03571429       0.16666667 </v>
   <v>       0.00000000       0.07142857       0.16666667 </v>
   <v>       0.03448276       0.07142857       0.16666667 </v>
   <v>       0.06896552       0.07142857       0.16666667 </v>
   <v>       0.10344828       0.07142857       0.16666667 </v>
   <v>       0.13793103       0.07142857       0.16666667 </v>
   <v>       0.17241379       0.07142857       0.16666667 </v>
   <v>       0.20689655       0.07142857       0.16666667 </v>
   <v>       0.24137931       0.07142857       0.16666667 </v>
   <v>       0.27586207       0.07142857       0.16666667 </v>
   <v>       0.31034483       0.07142857       0.16666667 </v>
   <v>       0.34482759       0.07142857       0.16666667 </v>
   <v>       0.37931034       0.07142857       0.16666667 </v>
   <v>       0.41379310       0.07142857       0.16666667 </v>
   <v>       0.44827586       0.07142857       0.16666667 </v>
   <v>       0.48275862       0.07142857       0.16666667 </v>
   <v>      -0.48275862       0.07142857       0.16666667 </v>
   <v>      -0.44827586       0.07142857       0.16666667 </v>
   <v>      -0.41379310       0.07142857       0.16666667 </v>
   <v>      -0.37931034       0.07142857       0.16666667 </v>
   <v>      -0.34482759       0.07142857       0.16666667 </v>
   <v>      -0.31034483       0.07142857       0.16666667 </v>
   <v>      -0.27586207       0.07142857       0.16666667 </v>
   <v>      -0.24137931       0.07142857       0.16666667 </v>
   <v>      -0.20689655       0.07142857       0.16666667 </v>
   <v>      -0.17241379       0.07142857       0.16666667 </v>
   <v>      -0.13793103       0.07142857       0.16666667 </v>
   <v>      -0.10344828       0.07142857       0.16666667 </v>
   <v>      -0.06896552       0.07142857       0.16666667 </v>
   <v>      -0.03448276       0.07142857       0.16666667 </v>
   <v>       0.00000000       0.10714286       0.16666667 </v>
   <v>       0.03448276       0.10714286       0.16666667 </v>
   <v>       0.06896552       0.10714286       0.16666667 </v>
   <v>       0.10344828       0.10714286       0.16666667 </v>
   <v>       0.13793103       0.10714286       0.16666667 </v>
   <v>       0.17241379       0.10714286       0.16666667 </v>
   <v>       0.20689655       0.10714286       0.16666667 </v>
   <v>       0.24137931       0.10714286       0.16666667 </v>
   <v>       0.27586207       0.10714286       0.16666667 </v>
   <v>       0.31034483       0.10714286       0.16666667 </v>
   <v>       0.34482759       0.10714286       0.16666667 </v>
   <v>       0.37931034       0.10714286       0.16666667 </v>
   <v>       0.41379310       0.10714286       0.16666667 </v>
   <v>       0.44827586       0.10714286       0.16666667 </v>
   <v>       0.48275862       0.10714286       0.16666667 </v>
   <v>      -0.48275862       0.10714286       0.16666667 </v>
   <v>      -0.44827586       0.10714286       0.16666667 </v>
   <v>      -0.41379310       0.10714286       0.16666667 </v>
   <v>      -0.37931034       0.10714286       0.16666667 </v>
   <v>      -0.34482759       0.10714286       0.16666667 </v>
   <v>      -0.31034483       0.10714286       0.16666667 </v>
   <v>      -0.27586207       0.10714286       0.16666667 </v>
   <v>      -0.24137931       0.10714286       0.16666667 </v>
   <v>      -0.20689655       0.10714286       0.16666667 </v>
   <v>      -0.17241379       0.10714286       0.16666667 </v>
   <v>      -0.13793103       0.10714286       0.16666667 </v>
   <v>      -0.10344828       0.10714286       0.16666667 </v>
   <v>      -0.06896552       0.10714286       0.16666667 </v>
   <v>      -0.03448276       0.10714286       0.16666667 </v>
   <v>       0.00000000       0.14285714       0.16666667 </v>
   <v>       0.03448276       0.14285714       0.16666667 </v>
   <v>       0.06896552       0.14285714       0.16666667 </v>
   <v>       0.10344828       0.14285714       0.16666667 </v>
   <v>       0.13793103       0.14285714       0.16666667 </v>
   <v>       0.17241379       0.14285714       0.16666667 </v>
   <v>       0.20689655       0.14285714       0.16666667 </v>
   <v>       0.24137931       0.14285714       0.16666667 </v>
   <v>       0.27586207       0.14285714       0.16666667 </v>
   <v>       0.31034483       0.14285714       0.16666667 </v>
   <v>       0.34482759       0.14285714       0.16666667 </v>
   <v>       0.37931034       0.14285714       0.16666667 </v>
   <v>       0.41379310       0.14285714       0.16666667 </v>
   <v>       0.44827586       0.14285714       0.16666667 </v>
   <v>       0.48275862       0.14285714       0.16666667 </v>
   <v>      -0.48275862       0.14285714       0.16666667 </v>
   <v>      -0.44827586       0.14285714       0.16666667 </v>
   <v>      -0.41379310       0.14285714       0.16666667 </v>
   <v>      -0.37931034       0.14285714       0.16666667 </v>
   <v>      -0.34482759       0.14285714       0.16666667 </v>
   <v>      -0.31034483       0.14285714       0.16666667 </v>
   <v>      -0.27586207       0.14285714       0.16666667 </v>
   <v>      -0.24137931       0.14285714       0.16666667 </v>
   <v>      -0.20689655       0.14285714       0.16666667 </v>
   <v>      -0.17241379       0.14285714       0.16666667 </v>
   <v>      -0.13793103       0.14285714       0.16666667 </v>
   <v>      -0.10344828       0.14285714       0.16666667 </v>
   <v>      -0.06896552       0.14285714       0.16666667 </v>
   <v>      -0.03448276       0.14285714       0.16666667 </v>
   <v>       0.00000000       0.17857143       0.16666667 </v>
   <v>       0.03448276       0.17857143       0.16666667 </v>
   <v>       0.06896552       0.17857143       0.16666667 </v>
   <v>       0.10344828       0.17857143       0.16666667 </v>
   <v>       0.13793103       0.17857143       0.16666667 </v>
   <v>       0.17241379       0.17857143       0.16666667 </v>
   <v>       0.20689655       0.17857143       0.16666667 </v>
   <v>       0.24137931       0.17857143       0.16666667 </v>
   <v>       0.27586207       0.17857143       0.16666667 </v>
   <v>       0.31034483       0.17857143       0.16666667 </v>
   <v>       0.34482759       0.17857143       0.16666667 </v>
   <v>       0.37931034       0.17857143       0.16666667 </v>
   <v>       0.41379310       0.17857143       0.16666667 </v>
   <v>       0.44827586       0.17857143       0.16666667 </v>
   <v>       0.48275862       0.17857143       0.16666667 </v>
   <v>      -0.48275862       0.17857143       0.16666667 </v>
   <v>      -0.44827586       0.17857143       0.16666667 </v>
   <v>      -0.41379310       0.17857143       0.16666667 </v>
   <v>      -0.37931034       0.17857143       0.16666667 </v>
   <v>      -0.34482759       0.17857143       0.16666667 </v>
   <v>      -0.31034483       0.17857143       0.16666667 </v>
   <v>      -0.27586207       0.17857143       0.16666667 </v>
   <v>      -0.24137931       0.17857143       0.16666667 </v>
   <v>      -0.20689655       0.17857143       0.16666667 </v>
   <v>      -0.17241379       0.17857143       0.16666667 </v>
   <v>      -0.13793103       0.17857143       0.16666667 </v>
   <v>      -0.10344828       0.17857143       0.16666667 </v>
   <v>      -0.06896552       0.17857143       0.16666667 </v>
   <v>      -0.03448276       0.17857143       0.16666667 </v>
   <v>       0.00000000       0.21428571       0.16666667 </v>
   <v>       0.03448276       0.21428571       0.16666667 </v>
   <v>       0.06896552       0.21428571       0.16666667 </v>
   <v>       0.10344828       0.21428571       0.16666667 </v>
   <v>       0.13793103       0.21428571       0.16666667 </v>
   <v>       0.17241379       0.21428571       0.16666667 </v>
   <v>       0.20689655       0.21428571       0.16666667 </v>
   <v>       0.24137931       0.21428571       0.16666667 </v>
   <v>       0.27586207       0.21428571       0.16666667 </v>
   <v>       0.31034483       0.21428571       0.16666667 </v>
   <v>       0.34482759       0.21428571       0.16666667 </v>
   <v>       0.37931034       0.21428571       0.16666667 </v>
   <v>       0.41379310       0.21428571       0.16666667 </v>
   <v>       0.44827586       0.21428571       0.16666667 </v>
   <v>       0.48275862       0.21428571       0.16666667 </v>
   <v>      -0.48275862       0.21428571       0.16666667 </v>
   <v>      -0.44827586       0.21428571       0.16666667 </v>
   <v>      -0.41379310       0.21428571       0.16666667 </v>
   <v>      -0.37931034       0.21428571       0.16666667 </v>
   <v>      -0.34482759       0.21428571       0.16666667 </v>
   <v>      -0.31034483       0.21428571       0.16666667 </v>
   <v>      -0.27586207       0.21428571       0.16666667 </v>
   <v>      -0.24137931       0.21428571       0.16666667 </v>
   <v>      -0.20689655       0.21428571       0.16666667 </v>
   <v>      -0.17241379       0.21428571       0.16666667 </v>
   <v>      -0.13793103       0.21428571       0.16666667 </v>
   <v>      -0.10344828       0.21428571       0.16666667 </v>
   <v>      -0.06896552       0.21428571       0.16666667 </v>
   <v>      -0.03448276       0.21428571       0.16666667 </v>
   <v>       0.00000000       0.25000000       0.16666667 </v>
   <v>       0.03448276       0.25000000       0.16666667 </v>
   <v>       0.06896552       0.25000000       0.16666667 </v>
   <v>       0.10344828       0.25000000       0.16666667 </v>
   <v>       0.13793103       0.25000000       0.16666667 </v>
   <v>       0.17241379       0.25000000       0.16666667 </v>
   <v>       0.20689655       0.25000000       0.16666667 </v>
   <v>       0.24137931       0.25000000       0.16666667 </v>
   <v>       0.27586207       0.25000000       0.16666667 </v>
   <v>       0.31034483       0.25000000       0.16666667 </v>
   <v>       0.34482759       0.25000000       0.16666667 </v>
   <v>       0.37931034       0.25000000       0.16666667 </v>
   <v>       0.41379310       0.25000000       0.16666667 </v>
   <v>       0.44827586       0.25000000       0.16666667 </v>
   <v>       0.48275862       0.25000000       0.16666667 </v>
   <v>      -0.48275862       0.25000000       0.16666667 </v>
   <v>      -0.44827586       0.25000000       0.16666667 </v>
   <v>      -0.41379310       0.25000000       0.16666667 </v>
   <v>      -0.37931034       0.25000000       0.16666667 </v>
   <v>      -0.34482759       0.25000000       0.16666667 </v>
   <v>      -0.31034483       0.25000000       0.16666667 </v>
   <v>      -0.27586207       0.25000000       0.16666667 </v>
   <v>      -0.24137931       0.25000000       0.16666667 </v>
   <v>      -0.20689655       0.25000000       0.16666667 </v>
   <v>      -0.17241379       0.25000000       0.16666667 </v>
   <v>      -0.13793103       0.25000000       0.16666667 </v>
   <v>      -0.10344828       0.25000000       0.16666667 </v>
   <v>      -0.06896552       0.25000000       0.16666667 </v>
   <v>      -0.03448276       0.25000000       0.16666667 </v>
   <v>       0.00000000       0.28571429       0.16666667 </v>
   <v>       0.03448276       0.28571429       0.16666667 </v>
   <v>       0.06896552       0.28571429       0.16666667 </v>
   <v>       0.10344828       0.28571429       0.16666667 </v>
   <v>       0.13793103       0.28571429       0.16666667 </v>
   <v>       0.17241379       0.28571429       0.16666667 </v>
   <v>       0.20689655       0.28571429       0.16666667 </v>
   <v>       0.24137931       0.28571429       0.16666667 </v>
   <v>       0.27586207       0.28571429       0.16666667 </v>
   <v>       0.31034483       0.28571429       0.16666667 </v>
   <v>       0.34482759       0.28571429       0.16666667 </v>
   <v>       0.37931034       0.28571429       0.16666667 </v>
   <v>       0.41379310       0.28571429       0.16666667 </v>
   <v>       0.44827586       0.28571429       0.16666667 </v>
   <v>       0.48275862       0.28571429       0.16666667 </v>
   <v>      -0.48275862       0.28571429       0.16666667 </v>
   <v>      -0.44827586       0.28571429       0.16666667 </v>
   <v>      -0.41379310       0.28571429       0.16666667 </v>
   <v>      -0.37931034       0.28571429       0.16666667 </v>
   <v>      -0.34482759       0.28571429       0.16666667 </v>
   <v>      -0.31034483       0.28571429       0.16666667 </v>
   <v>      -0.27586207       0.28571429       0.16666667 </v>
   <v>      -0.24137931       0.28571429       0.16666667 </v>
   <v>      -0.20689655       0.28571429       0.16666667 </v>
   <v>      -0.17241379       0.28571429       0.16666667 </v>
   <v>      -0.13793103       0.28571429       0.16666667 </v>
   <v>      -0.10344828       0.28571429       0.16666667 </v>
   <v>      -0.06896552       0.28571429       0.16666667 </v>
   <v>      -0.03448276       0.28571429       0.16666667 </v>
   <v>       0.00000000       0.32142857       0.16666667 </v>
   <v>       0.03448276       0.32142857       0.16666667 </v>
   <v>       0.06896552       0.32142857       0.16666667 </v>
   <v>       0.10344828       0.32142857       0.16666667 </v>
   <v>       0.13793103       0.32142857       0.16666667 </v>
   <v>       0.17241379       0.32142857       0.16666667 </v>
   <v>       0.20689655       0.32142857       0.16666667 </v>
   <v>       0.24137931       0.32142857       0.16666667 </v>
   <v>       0.27586207       0.32142857       0.16666667 </v>
   <v>       0.31034483       0.32142857       0.16666667 </v>
   <v>       0.34482759       0.32142857       0.16666667 </v>
   <v>       0.37931034       0.32142857       0.16666667 </v>
   <v>       0.41379310       0.32142857       0.16666667 </v>
   <v>       0.44827586       0.32142857       0.16666667 </v>
   <v>       0.48275862       0.32142857       0.16666667 </v>
   <v>      -0.48275862       0.32142857       0.16666667 </v>
   <v>      -0.44827586       0.32142857       0.16666667 </v>
   <v>      -0.41379310       0.32142857       0.16666667 </v>
   <v>      -0.37931034       0.32142857       0.16666667 </v>
   <v>      -0.34482759       0.32142857       0.16666667 </v>
   <v>      -0.31034483       0.32142857       0.16666667 </v>
   <v>      -0.27586207       0.32142857       0.16666667 </v>
   <v>      -0.24137931       0.32142857       0.16666667 </v>
   <v>      -0.20689655       0.32142857       0.16666667 </v>
   <v>      -0.17241379       0.32142857       0.16666667 </v>
   <v>      -0.13793103       0.32142857       0.16666667 </v>
   <v>      -0.10344828       0.32142857       0.16666667 </v>
   <v>      -0.06896552       0.32142857       0.16666667 </v>
   <v>      -0.03448276       0.32142857       0.16666667 </v>
   <v>       0.00000000       0.35714286       0.16666667 </v>
   <v>       0.03448276       0.35714286       0.16666667 </v>
   <v>       0.06896552       0.35714286       0.16666667 </v>
   <v>       0.10344828       0.35714286       0.16666667 </v>
   <v>       0.13793103       0.35714286       0.16666667 </v>
   <v>       0.17241379       0.35714286       0.16666667 </v>
   <v>       0.20689655       0.35714286       0.16666667 </v>
   <v>       0.24137931       0.35714286       0.16666667 </v>
   <v>       0.27586207       0.35714286       0.16666667 </v>
   <v>       0.31034483       0.35714286       0.16666667 </v>
   <v>       0.34482759       0.35714286       0.16666667 </v>
   <v>       0.37931034       0.35714286       0.16666667 </v>
   <v>       0.41379310       0.35714286       0.16666667 </v>
   <v>       0.44827586       0.35714286       0.16666667 </v>
   <v>       0.48275862       0.35714286       0.16666667 </v>
   <v>      -0.48275862       0.35714286       0.16666667 </v>
   <v>      -0.44827586       0.35714286       0.16666667 </v>
   <v>      -0.41379310       0.35714286       0.16666667 </v>
   <v>      -0.37931034       0.35714286       0.16666667 </v>
   <v>      -0.34482759       0.35714286       0.16666667 </v>
   <v>      -0.31034483       0.35714286       0.16666667 </v>
   <v>      -0.27586207       0.35714286       0.16666667 </v>
   <v>      -0.24137931       0.35714286       0.16666667 </v>
   <v>      -0.20689655       0.35714286       0.16666667 </v>
   <v>      -0.17241379       0.35714286       0.16666667 </v>
   <v>      -0.13793103       0.35714286       0.16666667 </v>
   <v>      -0.10344828       0.35714286       0.16666667 </v>
   <v>      -0.06896552       0.35714286       0.16666667 </v>
   <v>      -0.03448276       0.35714286       0.16666667 </v>
   <v>       0.00000000       0.39285714       0.16666667 </v>
   <v>       0.03448276       0.39285714       0.16666667 </v>
   <v>       0.06896552       0.39285714       0.16666667 </v>
   <v>       0.10344828       0.39285714       0.16666667 </v>
   <v>       0.13793103       0.39285714       0.16666667 </v>
   <v>       0.17241379       0.39285714       0.16666667 </v>
   <v>       0.20689655       0.39285714       0.16666667 </v>
   <v>       0.24137931       0.39285714       0.16666667 </v>
   <v>       0.27586207       0.39285714       0.16666667 </v>
   <v>       0.31034483       0.39285714       0.16666667 </v>
   <v>       0.34482759       0.39285714       0.16666667 </v>
   <v>       0.37931034       0.39285714       0.16666667 </v>
   <v>       0.41379310       0.39285714       0.16666667 </v>
   <v>       0.44827586       0.39285714       0.16666667 </v>
   <v>       0.48275862       0.39285714       0.16666667 </v>
   <v>      -0.48275862       0.39285714       0.16666667 </v>
   <v>      -0.44827586       0.39285714       0.16666667 </v>
   <v>      -0.41379310       0.39285714       0.16666667 </v>
   <v>      -0.37931034       0.39285714       0.16666667 </v>
   <v>      -0.34482759       0.39285714       0.16666667 </v>
   <v>      -0.31034483       0.39285714       0.16666667 </v>
   <v>      -0.27586207       0.39285714       0.16666667 </v>
   <v>      -0.24137931       0.39285714       0.16666667 </v>
   <v>      -0.20689655       0.39285714       0.16666667 </v>
   <v>      -0.17241379       0.39285714       0.16666667 </v>
   <v>      -0.13793103       0.39285714       0.16666667 </v>
   <v>      -0.10344828       0.39285714       0.16666667 </v>
   <v>      -0.06896552       0.39285714       0.16666667 </v>
   <v>      -0.03448276       0.39285714       0.16666667 </v>
   <v>       0.00000000       0.42857143       0.16666667 </v>
   <v>       0.03448276       0.42857143       0.16666667 </v>
   <v>       0.06896552       0.42857143       0.16666667 </v>
   <v>       0.10344828       0.42857143       0.16666667 </v>
   <v>       0.13793103       0.42857143       0.16666667 </v>
   <v>       0.17241379       0.42857143       0.16666667 </v>
   <v>       0.20689655       0.42857143       0.16666667 </v>
   <v>       0.24137931       0.42857143       0.16666667 </v>
   <v>       0.27586207       0.42857143       0.16666667 </v>
   <v>       0.31034483       0.42857143       0.16666667 </v>
   <v>       0.34482759       0.42857143       0.16666667 </v>
   <v>       0.37931034       0.42857143       0.16666667 </v>
   <v>       0.41379310       0.42857143       0.16666667 </v>
   <v>       0.44827586       0.42857143       0.16666667 </v>
   <v>       0.48275862       0.42857143       0.16666667 </v>
   <v>      -0.48275862       0.42857143       0.16666667 </v>
   <v>      -0.44827586       0.42857143       0.16666667 </v>
   <v>      -0.41379310       0.42857143       0.16666667 </v>
   <v>      -0.37931034       0.42857143       0.16666667 </v>
   <v>      -0.34482759       0.42857143       0.16666667 </v>
   <v>      -0.31034483       0.42857143       0.16666667 </v>
   <v>      -0.27586207       0.42857143       0.16666667 </v>
   <v>      -0.24137931       0.42857143       0.16666667 </v>
   <v>      -0.20689655       0.42857143       0.16666667 </v>
   <v>      -0.17241379       0.42857143       0.16666667 </v>
   <v>      -0.13793103       0.42857143       0.16666667 </v>
   <v>      -0.10344828       0.42857143       0.16666667 </v>
   <v>      -0.06896552       0.42857143       0.16666667 </v>
   <v>      -0.03448276       0.42857143       0.16666667 </v>
   <v>       0.00000000       0.46428571       0.16666667 </v>
   <v>       0.03448276       0.46428571       0.16666667 </v>
   <v>       0.06896552       0.46428571       0.16666667 </v>
   <v>       0.10344828       0.46428571       0.16666667 </v>
   <v>       0.13793103       0.46428571       0.16666667 </v>
   <v>       0.17241379       0.46428571       0.16666667 </v>
   <v>       0.20689655       0.46428571       0.16666667 </v>
   <v>       0.24137931       0.46428571       0.16666667 </v>
   <v>       0.27586207       0.46428571       0.16666667 </v>
   <v>       0.31034483       0.46428571       0.16666667 </v>
   <v>       0.34482759       0.46428571       0.16666667 </v>
   <v>       0.37931034       0.46428571       0.16666667 </v>
   <v>       0.41379310       0.46428571       0.16666667 </v>
   <v>       0.44827586       0.46428571       0.16666667 </v>
   <v>       0.48275862       0.46428571       0.16666667 </v>
   <v>      -0.48275862       0.46428571       0.16666667 </v>
   <v>      -0.44827586       0.46428571       0.16666667 </v>
   <v>      -0.41379310       0.46428571       0.16666667 </v>
   <v>      -0.37931034       0.46428571       0.16666667 </v>
   <v>      -0.34482759       0.46428571       0.16666667 </v>
   <v>      -0.31034483       0.46428571       0.16666667 </v>
   <v>      -0.27586207       0.46428571       0.16666667 </v>
   <v>      -0.24137931       0.46428571       0.16666667 </v>
   <v>      -0.20689655       0.46428571       0.16666667 </v>
   <v>      -0.17241379       0.46428571       0.16666667 </v>
   <v>      -0.13793103       0.46428571       0.16666667 </v>
   <v>      -0.10344828       0.46428571       0.16666667 </v>
   <v>      -0.06896552       0.46428571       0.16666667 </v>
   <v>      -0.03448276       0.46428571       0.16666667 </v>
   <v>       0.00000000       0.50000000       0.16666667 </v>
   <v>       0.03448276       0.50000000       0.16666667 </v>
   <v>       0.06896552       0.50000000       0.16666667 </v>
   <v>       0.10344828       0.50000000       0.16666667 </v>
   <v>       0.13793103       0.50000000       0.16666667 </v>
   <v>       0.17241379       0.50000000       0.16666667 </v>
   <v>       0.20689655       0.50000000       0.16666667 </v>
   <v>       0.24137931       0.50000000       0.16666667 </v>
   <v>       0.27586207       0.50000000       0.16666667 </v>
   <v>       0.31034483       0.50000000       0.16666667 </v>
   <v>       0.34482759       0.50000000       0.16666667 </v>
   <v>       0.37931034       0.50000000       0.16666667 </v>
   <v>       0.41379310       0.50000000       0.16666667 </v>
   <v>       0.44827586       0.50000000       0.16666667 </v>
   <v>       0.48275862       0.50000000       0.16666667 </v>
   <v>      -0.48275862       0.50000000       0.16666667 </v>
   <v>      -0.44827586       0.50000000       0.16666667 </v>
   <v>      -0.41379310       0.50000000       0.16666667 </v>
   <v>      -0.37931034       0.50000000       0.16666667 </v>
   <v>      -0.34482759       0.50000000       0.16666667 </v>
   <v>      -0.31034483       0.50000000       0.16666667 </v>
   <v>      -0.27586207       0.50000000       0.16666667 </v>
   <v>      -0.24137931       0.50000000       0.16666667 </v>
   <v>      -0.20689655       0.50000000       0.16666667 </v>
   <v>      -0.17241379       0.50000000       0.16666667 </v>
   <v>      -0.13793103       0.50000000       0.16666667 </v>
   <v>      -0.10344828       0.50000000       0.16666667 </v>
   <v>      -0.06896552       0.50000000       0.16666667 </v>
   <v>      -0.03448276       0.50000000       0.16666667 </v>
   <v>       0.00000000      -0.46428571       0.16666667 </v>
   <v>       0.03448276      -0.46428571       0.16666667 </v>
   <v>       0.06896552      -0.46428571       0.16666667 </v>
   <v>       0.10344828      -0.46428571       0.16666667 </v>
   <v>       0.13793103      -0.46428571       0.16666667 </v>
   <v>       0.17241379      -0.46428571       0.16666667 </v>
   <v>       0.20689655      -0.46428571       0.16666667 </v>
   <v>       0.24137931      -0.46428571       0.16666667 </v>
   <v>       0.27586207      -0.46428571       0.16666667 </v>
   <v>       0.31034483      -0.46428571       0.16666667 </v>
   <v>       0.34482759      -0.46428571       0.16666667 </v>
   <v>       0.37931034      -0.46428571       0.16666667 </v>
   <v>       0.41379310      -0.46428571       0.16666667 </v>
   <v>       0.44827586      -0.46428571       0.16666667 </v>
   <v>       0.48275862      -0.46428571       0.16666667 </v>
   <v>      -0.48275862      -0.46428571       0.16666667 </v>
   <v>      -0.44827586      -0.46428571       0.16666667 </v>
   <v>      -0.41379310      -0.46428571       0.16666667 </v>
   <v>      -0.37931034      -0.46428571       0.16666667 </v>
   <v>      -0.34482759      -0.46428571       0.16666667 </v>
   <v>      -0.31034483      -0.46428571       0.16666667 </v>
   <v>      -0.27586207      -0.46428571       0.16666667 </v>
   <v>      -0.24137931      -0.46428571       0.16666667 </v>
   <v>      -0.20689655      -0.46428571       0.16666667 </v>
   <v>      -0.17241379      -0.46428571       0.16666667 </v>
   <v>      -0.13793103      -0.46428571       0.16666667 </v>
   <v>      -0.10344828      -0.46428571       0.16666667 </v>
   <v>      -0.06896552      -0.46428571       0.16666667 </v>
   <v>      -0.03448276      -0.46428571       0.16666667 </v>
   <v>       0.00000000      -0.42857143       0.16666667 </v>
   <v>       0.03448276      -0.42857143       0.16666667 </v>
   <v>       0.06896552      -0.42857143       0.16666667 </v>
   <v>       0.10344828      -0.42857143       0.16666667 </v>
   <v>       0.13793103      -0.42857143       0.16666667 </v>
   <v>       0.17241379      -0.42857143       0.16666667 </v>
   <v>       0.20689655      -0.42857143       0.16666667 </v>
   <v>       0.24137931      -0.42857143       0.16666667 </v>
   <v>       0.27586207      -0.42857143       0.16666667 </v>
   <v>       0.31034483      -0.42857143       0.16666667 </v>
   <v>       0.34482759      -0.42857143       0.16666667 </v>
   <v>       0.37931034      -0.42857143       0.16666667 </v>
   <v>       0.41379310      -0.42857143       0.16666667 </v>
   <v>       0.44827586      -0.42857143       0.16666667 </v>
   <v>       0.48275862      -0.42857143       0.16666667 </v>
   <v>      -0.48275862      -0.42857143       0.16666667 </v>
   <v>      -0.44827586      -0.42857143       0.16666667 </v>
   <v>      -0.41379310      -0.42857143       0.16666667 </v>
   <v>      -0.37931034      -0.42857143       0.16666667 </v>
   <v>      -0.34482759      -0.42857143       0.16666667 </v>
   <v>      -0.31034483      -0.42857143       0.16666667 </v>
   <v>      -0.27586207      -0.42857143       0.16666667 </v>
   <v>      -0.24137931      -0.42857143       0.16666667 </v>
   <v>      -0.20689655      -0.42857143       0.16666667 </v>
   <v>      -0.17241379      -0.42857143       0.16666667 </v>
   <v>      -0.13793103      -0.42857143       0.16666667 </v>
   <v>      -0.10344828      -0.42857143       0.16666667 </v>
   <v>      -0.06896552      -0.42857143       0.16666667 </v>
   <v>      -0.03448276      -0.42857143       0.16666667 </v>
   <v>       0.00000000      -0.39285714       0.16666667 </v>
   <v>       0.03448276      -0.39285714       0.16666667 </v>
   <v>       0.06896552      -0.39285714       0.16666667 </v>
   <v>       0.10344828      -0.39285714       0.16666667 </v>
   <v>       0.13793103      -0.39285714       0.16666667 </v>
   <v>       0.17241379      -0.39285714       0.16666667 </v>
   <v>       0.20689655      -0.39285714       0.16666667 </v>
   <v>       0.24137931      -0.39285714       0.16666667 </v>
   <v>       0.27586207      -0.39285714       0.16666667 </v>
   <v>       0.31034483      -0.39285714       0.16666667 </v>
   <v>       0.34482759      -0.39285714       0.16666667 </v>
   <v>       0.37931034      -0.39285714       0.16666667 </v>
   <v>       0.41379310      -0.39285714       0.16666667 </v>
   <v>       0.44827586      -0.39285714       0.16666667 </v>
   <v>       0.48275862      -0.39285714       0.16666667 </v>
   <v>      -0.48275862      -0.39285714       0.16666667 </v>
   <v>      -0.44827586      -0.39285714       0.16666667 </v>
   <v>      -0.41379310      -0.39285714       0.16666667 </v>
   <v>      -0.37931034      -0.39285714       0.16666667 </v>
   <v>      -0.34482759      -0.39285714       0.16666667 </v>
   <v>      -0.31034483      -0.39285714       0.16666667 </v>
   <v>      -0.27586207      -0.39285714       0.16666667 </v>
   <v>      -0.24137931      -0.39285714       0.16666667 </v>
   <v>      -0.20689655      -0.39285714       0.16666667 </v>
   <v>      -0.17241379      -0.39285714       0.16666667 </v>
   <v>      -0.13793103      -0.39285714       0.16666667 </v>
   <v>      -0.10344828      -0.39285714       0.16666667 </v>
   <v>      -0.06896552      -0.39285714       0.16666667 </v>
   <v>      -0.03448276      -0.39285714       0.16666667 </v>
   <v>       0.00000000      -0.35714286       0.16666667 </v>
   <v>       0.03448276      -0.35714286       0.16666667 </v>
   <v>       0.06896552      -0.35714286       0.16666667 </v>
   <v>       0.10344828      -0.35714286       0.16666667 </v>
   <v>       0.13793103      -0.35714286       0.16666667 </v>
   <v>       0.17241379      -0.35714286       0.16666667 </v>
   <v>       0.20689655      -0.35714286       0.16666667 </v>
   <v>       0.24137931      -0.35714286       0.16666667 </v>
   <v>       0.27586207      -0.35714286       0.16666667 </v>
   <v>       0.31034483      -0.35714286       0.16666667 </v>
   <v>       0.34482759      -0.35714286       0.16666667 </v>
   <v>       0.37931034      -0.35714286       0.16666667 </v>
   <v>       0.41379310      -0.35714286       0.16666667 </v>
   <v>       0.44827586      -0.35714286       0.16666667 </v>
   <v>       0.48275862      -0.35714286       0.16666667 </v>
   <v>      -0.48275862      -0.35714286       0.16666667 </v>
   <v>      -0.44827586      -0.35714286       0.16666667 </v>
   <v>      -0.41379310      -0.35714286       0.16666667 </v>
   <v>      -0.37931034      -0.35714286       0.16666667 </v>
   <v>      -0.34482759      -0.35714286       0.16666667 </v>
   <v>      -0.31034483      -0.35714286       0.16666667 </v>
   <v>      -0.27586207      -0.35714286       0.16666667 </v>
   <v>      -0.24137931      -0.35714286       0.16666667 </v>
   <v>      -0.20689655      -0.35714286       0.16666667 </v>
   <v>      -0.17241379      -0.35714286       0.16666667 </v>
   <v>      -0.13793103      -0.35714286       0.16666667 </v>
   <v>      -0.10344828      -0.35714286       0.16666667 </v>
   <v>      -0.06896552      -0.35714286       0.16666667 </v>
   <v>      -0.03448276      -0.35714286       0.16666667 </v>
   <v>       0.00000000      -0.32142857       0.16666667 </v>
   <v>       0.03448276      -0.32142857       0.16666667 </v>
   <v>       0.06896552      -0.32142857       0.16666667 </v>
   <v>       0.10344828      -0.32142857       0.16666667 </v>
   <v>       0.13793103      -0.32142857       0.16666667 </v>
   <v>       0.17241379      -0.32142857       0.16666667 </v>
   <v>       0.20689655      -0.32142857       0.16666667 </v>
   <v>       0.24137931      -0.32142857       0.16666667 </v>
   <v>       0.27586207      -0.32142857       0.16666667 </v>
   <v>       0.31034483      -0.32142857       0.16666667 </v>
   <v>       0.34482759      -0.32142857       0.16666667 </v>
   <v>       0.37931034      -0.32142857       0.16666667 </v>
   <v>       0.41379310      -0.32142857       0.16666667 </v>
   <v>       0.44827586      -0.32142857       0.16666667 </v>
   <v>       0.48275862      -0.32142857       0.16666667 </v>
   <v>      -0.48275862      -0.32142857       0.16666667 </v>
   <v>      -0.44827586      -0.32142857       0.16666667 </v>
   <v>      -0.41379310      -0.32142857       0.16666667 </v>
   <v>      -0.37931034      -0.32142857       0.16666667 </v>
   <v>      -0.34482759      -0.32142857       0.16666667 </v>
   <v>      -0.31034483      -0.32142857       0.16666667 </v>
   <v>      -0.27586207      -0.32142857       0.16666667 </v>
   <v>      -0.24137931      -0.32142857       0.16666667 </v>
   <v>      -0.20689655      -0.32142857       0.16666667 </v>
   <v>      -0.17241379      -0.32142857       0.16666667 </v>
   <v>      -0.13793103      -0.32142857       0.16666667 </v>
   <v>      -0.10344828      -0.32142857       0.16666667 </v>
   <v>      -0.06896552      -0.32142857       0.16666667 </v>
   <v>      -0.03448276      -0.32142857       0.16666667 </v>
   <v>       0.00000000      -0.28571429       0.16666667 </v>
   <v>       0.03448276      -0.28571429       0.16666667 </v>
   <v>       0.06896552      -0.28571429       0.16666667 </v>
   <v>       0.10344828      -0.28571429       0.16666667 </v>
   <v>       0.13793103      -0.28571429       0.16666667 </v>
   <v>       0.17241379      -0.28571429       0.16666667 </v>
   <v>       0.20689655      -0.28571429       0.16666667 </v>
   <v>       0.24137931      -0.28571429       0.16666667 </v>
   <v>       0.27586207      -0.28571429       0.16666667 </v>
   <v>       0.31034483      -0.28571429       0.16666667 </v>
   <v>       0.34482759      -0.28571429       0.16666667 </v>
   <v>       0.37931034      -0.28571429       0.16666667 </v>
   <v>       0.41379310      -0.28571429       0.16666667 </v>
   <v>       0.44827586      -0.28571429       0.16666667 </v>
   <v>       0.48275862      -0.28571429       0.16666667 </v>
   <v>      -0.48275862      -0.28571429       0.16666667 </v>
   <v>      -0.44827586      -0.28571429       0.16666667 </v>
   <v>      -0.41379310      -0.28571429       0.16666667 </v>
   <v>      -0.37931034      -0.28571429       0.16666667 </v>
   <v>      -0.34482759      -0.28571429       0.16666667 </v>
   <v>      -0.31034483      -0.28571429       0.16666667 </v>
   <v>      -0.27586207      -0.28571429       0.16666667 </v>
   <v>      -0.24137931      -0.28571429       0.16666667 </v>
   <v>      -0.20689655      -0.28571429       0.16666667 </v>
   <v>      -0.17241379      -0.28571429       0.16666667 </v>
   <v>      -0.13793103      -0.28571429       0.16666667 </v>
   <v>      -0.10344828      -0.28571429       0.16666667 </v>
   <v>      -0.06896552      -0.28571429       0.16666667 </v>
   <v>      -0.03448276      -0.28571429       0.16666667 </v>
   <v>       0.00000000      -0.25000000       0.16666667 </v>
   <v>       0.03448276      -0.25000000       0.16666667 </v>
   <v>       0.06896552      -0.25000000       0.16666667 </v>
   <v>       0.10344828      -0.25000000       0.16666667 </v>
   <v>       0.13793103      -0.25000000       0.16666667 </v>
   <v>       0.17241379      -0.25000000       0.16666667 </v>
   <v>       0.20689655      -0.25000000       0.16666667 </v>
   <v>       0.24137931      -0.25000000       0.16666667 </v>
   <v>       0.27586207      -0.25000000       0.16666667 </v>
   <v>       0.31034483      -0.25000000       0.16666667 </v>
   <v>       0.34482759      -0.25000000       0.16666667 </v>
   <v>       0.37931034      -0.25000000       0.16666667 </v>
   <v>       0.41379310      -0.25000000       0.16666667 </v>
   <v>       0.44827586      -0.25000000       0.16666667 </v>
   <v>       0.48275862      -0.25000000       0.16666667 </v>
   <v>      -0.48275862      -0.25000000       0.16666667 </v>
   <v>      -0.44827586      -0.25000000       0.16666667 </v>
   <v>      -0.41379310      -0.25000000       0.16666667 </v>
   <v>      -0.37931034      -0.25000000       0.16666667 </v>
   <v>      -0.34482759      -0.25000000       0.16666667 </v>
   <v>      -0.31034483      -0.25000000       0.16666667 </v>
   <v>      -0.27586207      -0.25000000       0.16666667 </v>
   <v>      -0.24137931      -0.25000000       0.16666667 </v>
   <v>      -0.20689655      -0.25000000       0.16666667 </v>
   <v>      -0.17241379      -0.25000000       0.16666667 </v>
   <v>      -0.13793103      -0.25000000       0.16666667 </v>
   <v>      -0.10344828      -0.25000000       0.16666667 </v>
   <v>      -0.06896552      -0.25000000       0.16666667 </v>
   <v>      -0.03448276      -0.25000000       0.16666667 </v>
   <v>       0.00000000      -0.21428571       0.16666667 </v>
   <v>       0.03448276      -0.21428571       0.16666667 </v>
   <v>       0.06896552      -0.21428571       0.16666667 </v>
   <v>       0.10344828      -0.21428571       0.16666667 </v>
   <v>       0.13793103      -0.21428571       0.16666667 </v>
   <v>       0.17241379      -0.21428571       0.16666667 </v>
   <v>       0.20689655      -0.21428571       0.16666667 </v>
   <v>       0.24137931      -0.21428571       0.16666667 </v>
   <v>       0.27586207      -0.21428571       0.16666667 </v>
   <v>       0.31034483      -0.21428571       0.16666667 </v>
   <v>       0.34482759      -0.21428571       0.16666667 </v>
   <v>       0.37931034      -0.21428571       0.16666667 </v>
   <v>       0.41379310      -0.21428571       0.16666667 </v>
   <v>       0.44827586      -0.21428571       0.16666667 </v>
   <v>       0.48275862      -0.21428571       0.16666667 </v>
   <v>      -0.48275862      -0.21428571       0.16666667 </v>
   <v>      -0.44827586      -0.21428571       0.16666667 </v>
   <v>      -0.41379310      -0.21428571       0.16666667 </v>
   <v>      -0.37931034      -0.21428571       0.16666667 </v>
   <v>      -0.34482759      -0.21428571       0.16666667 </v>
   <v>      -0.31034483      -0.21428571       0.16666667 </v>
   <v>      -0.27586207      -0.21428571       0.16666667 </v>
   <v>      -0.24137931      -0.21428571       0.16666667 </v>
   <v>      -0.20689655      -0.21428571       0.16666667 </v>
   <v>      -0.17241379      -0.21428571       0.16666667 </v>
   <v>      -0.13793103      -0.21428571       0.16666667 </v>
   <v>      -0.10344828      -0.21428571       0.16666667 </v>
   <v>      -0.06896552      -0.21428571       0.16666667 </v>
   <v>      -0.03448276      -0.21428571       0.16666667 </v>
   <v>       0.00000000      -0.17857143       0.16666667 </v>
   <v>       0.03448276      -0.17857143       0.16666667 </v>
   <v>       0.06896552      -0.17857143       0.16666667 </v>
   <v>       0.10344828      -0.17857143       0.16666667 </v>
   <v>       0.13793103      -0.17857143       0.16666667 </v>
   <v>       0.17241379      -0.17857143       0.16666667 </v>
   <v>       0.20689655      -0.17857143       0.16666667 </v>
   <v>       0.24137931      -0.17857143       0.16666667 </v>
   <v>       0.27586207      -0.17857143       0.16666667 </v>
   <v>       0.31034483      -0.17857143       0.16666667 </v>
   <v>       0.34482759      -0.17857143       0.16666667 </v>
   <v>       0.37931034      -0.17857143       0.16666667 </v>
   <v>       0.41379310      -0.17857143       0.16666667 </v>
   <v>       0.44827586      -0.17857143       0.16666667 </v>
   <v>       0.48275862      -0.17857143       0.16666667 </v>
   <v>      -0.48275862      -0.17857143       0.16666667 </v>
   <v>      -0.44827586      -0.17857143       0.16666667 </v>
   <v>      -0.41379310      -0.17857143       0.16666667 </v>
   <v>      -0.37931034      -0.17857143       0.16666667 </v>
   <v>      -0.34482759      -0.17857143       0.16666667 </v>
   <v>      -0.31034483      -0.17857143       0.16666667 </v>
   <v>      -0.27586207      -0.17857143       0.16666667 </v>
   <v>      -0.24137931      -0.17857143       0.16666667 </v>
   <v>      -0.20689655      -0.17857143       0.16666667 </v>
   <v>      -0.17241379      -0.17857143       0.16666667 </v>
   <v>      -0.13793103      -0.17857143       0.16666667 </v>
   <v>      -0.10344828      -0.17857143       0.16666667 </v>
   <v>      -0.06896552      -0.17857143       0.16666667 </v>
   <v>      -0.03448276      -0.17857143       0.16666667 </v>
   <v>       0.00000000      -0.14285714       0.16666667 </v>
   <v>       0.03448276      -0.14285714       0.16666667 </v>
   <v>       0.06896552      -0.14285714       0.16666667 </v>
   <v>       0.10344828      -0.14285714       0.16666667 </v>
   <v>       0.13793103      -0.14285714       0.16666667 </v>
   <v>       0.17241379      -0.14285714       0.16666667 </v>
   <v>       0.20689655      -0.14285714       0.16666667 </v>
   <v>       0.24137931      -0.14285714       0.16666667 </v>
   <v>       0.27586207      -0.14285714       0.16666667 </v>
   <v>       0.31034483      -0.14285714       0.16666667 </v>
   <v>       0.34482759      -0.14285714       0.16666667 </v>
   <v>       0.37931034      -0.14285714       0.16666667 </v>
   <v>       0.41379310      -0.14285714       0.16666667 </v>
   <v>       0.44827586      -0.14285714       0.16666667 </v>
   <v>       0.48275862      -0.14285714       0.16666667 </v>
   <v>      -0.48275862      -0.14285714       0.16666667 </v>
   <v>      -0.44827586      -0.14285714       0.16666667 </v>
   <v>      -0.41379310      -0.14285714       0.16666667 </v>
   <v>      -0.37931034      -0.14285714       0.16666667 </v>
   <v>      -0.34482759      -0.14285714       0.16666667 </v>
   <v>      -0.31034483      -0.14285714       0.16666667 </v>
   <v>      -0.27586207      -0.14285714       0.16666667 </v>
   <v>      -0.24137931      -0.14285714       0.16666667 </v>
   <v>      -0.20689655      -0.14285714       0.16666667 </v>
   <v>      -0.17241379      -0.14285714       0.16666667 </v>
   <v>      -0.13793103      -0.14285714       0.16666667 </v>
   <v>      -0.10344828      -0.14285714       0.16666667 </v>
   <v>      -0.06896552      -0.14285714       0.16666667 </v>
   <v>      -0.03448276      -0.14285714       0.16666667 </v>
   <v>       0.00000000      -0.10714286       0.16666667 </v>
   <v>       0.03448276      -0.10714286       0.16666667 </v>
   <v>       0.06896552      -0.10714286       0.16666667 </v>
   <v>       0.10344828      -0.10714286       0.16666667 </v>
   <v>       0.13793103      -0.10714286       0.16666667 </v>
   <v>       0.17241379      -0.10714286       0.16666667 </v>
   <v>       0.20689655      -0.10714286       0.16666667 </v>
   <v>       0.24137931      -0.10714286       0.16666667 </v>
   <v>       0.27586207      -0.10714286       0.16666667 </v>
   <v>       0.31034483      -0.10714286       0.16666667 </v>
   <v>       0.34482759      -0.10714286       0.16666667 </v>
   <v>       0.37931034      -0.10714286       0.16666667 </v>
   <v>       0.41379310      -0.10714286       0.16666667 </v>
   <v>       0.44827586      -0.10714286       0.16666667 </v>
   <v>       0.48275862      -0.10714286       0.16666667 </v>
   <v>      -0.48275862      -0.10714286       0.16666667 </v>
   <v>      -0.44827586      -0.10714286       0.16666667 </v>
   <v>      -0.41379310      -0.10714286       0.16666667 </v>
   <v>      -0.37931034      -0.10714286       0.16666667 </v>
   <v>      -0.34482759      -0.10714286       0.16666667 </v>
   <v>      -0.31034483      -0.10714286       0.16666667 </v>
   <v>      -0.27586207      -0.10714286       0.16666667 </v>
   <v>      -0.24137931      -0.10714286       0.16666667 </v>
   <v>      -0.20689655      -0.10714286       0.16666667 </v>
   <v>      -0.17241379      -0.10714286       0.16666667 </v>
   <v>      -0.13793103      -0.10714286       0.16666667 </v>
   <v>      -0.10344828      -0.10714286       0.16666667 </v>
   <v>      -0.06896552      -0.10714286       0.16666667 </v>
   <v>      -0.03448276      -0.10714286       0.16666667 </v>
   <v>       0.00000000      -0.07142857       0.16666667 </v>
   <v>       0.03448276      -0.07142857       0.16666667 </v>
   <v>       0.06896552      -0.07142857       0.16666667 </v>
   <v>       0.10344828      -0.07142857       0.16666667 </v>
   <v>       0.13793103      -0.07142857       0.16666667 </v>
   <v>       0.17241379      -0.07142857       0.16666667 </v>
   <v>       0.20689655      -0.07142857       0.16666667 </v>
   <v>       0.24137931      -0.07142857       0.16666667 </v>
   <v>       0.27586207      -0.07142857       0.16666667 </v>
   <v>       0.31034483      -0.07142857       0.16666667 </v>
   <v>       0.34482759      -0.07142857       0.16666667 </v>
   <v>       0.37931034      -0.07142857       0.16666667 </v>
   <v>       0.41379310      -0.07142857       0.16666667 </v>
   <v>       0.44827586      -0.07142857       0.16666667 </v>
   <v>       0.48275862      -0.07142857       0.16666667 </v>
   <v>      -0.48275862      -0.07142857       0.16666667 </v>
   <v>      -0.44827586      -0.07142857       0.16666667 </v>
   <v>      -0.41379310      -0.07142857       0.16666667 </v>
   <v>      -0.37931034      -0.07142857       0.16666667 </v>
   <v>      -0.34482759      -0.07142857       0.16666667 </v>
   <v>      -0.31034483      -0.07142857       0.16666667 </v>
   <v>      -0.27586207      -0.07142857       0.16666667 </v>
   <v>      -0.24137931      -0.07142857       0.16666667 </v>
   <v>      -0.20689655      -0.07142857       0.16666667 </v>
   <v>      -0.17241379      -0.07142857       0.16666667 </v>
   <v>      -0.13793103      -0.07142857       0.16666667 </v>
   <v>      -0.10344828      -0.07142857       0.16666667 </v>
   <v>      -0.06896552      -0.07142857       0.16666667 </v>
   <v>      -0.03448276      -0.07142857       0.16666667 </v>
   <v>       0.00000000      -0.03571429       0.16666667 </v>
   <v>       0.03448276      -0.03571429       0.16666667 </v>
   <v>       0.06896552      -0.03571429       0.16666667 </v>
   <v>       0.10344828      -0.03571429       0.16666667 </v>
   <v>       0.13793103      -0.03571429       0.16666667 </v>
   <v>       0.17241379      -0.03571429       0.16666667 </v>
   <v>       0.20689655      -0.03571429       0.16666667 </v>
   <v>       0.24137931      -0.03571429       0.16666667 </v>
   <v>       0.27586207      -0.03571429       0.16666667 </v>
   <v>       0.31034483      -0.03571429       0.16666667 </v>
   <v>       0.34482759      -0.03571429       0.16666667 </v>
   <v>       0.37931034      -0.03571429       0.16666667 </v>
   <v>       0.41379310      -0.03571429       0.16666667 </v>
   <v>       0.44827586      -0.03571429       0.16666667 </v>
   <v>       0.48275862      -0.03571429       0.16666667 </v>
   <v>      -0.48275862      -0.03571429       0.16666667 </v>
   <v>      -0.44827586      -0.03571429       0.16666667 </v>
   <v>      -0.41379310      -0.03571429       0.16666667 </v>
   <v>      -0.37931034      -0.03571429       0.16666667 </v>
   <v>      -0.34482759      -0.03571429       0.16666667 </v>
   <v>      -0.31034483      -0.03571429       0.16666667 </v>
   <v>      -0.27586207      -0.03571429       0.16666667 </v>
   <v>      -0.24137931      -0.03571429       0.16666667 </v>
   <v>      -0.20689655      -0.03571429       0.16666667 </v>
   <v>      -0.17241379      -0.03571429       0.16666667 </v>
   <v>      -0.13793103      -0.03571429       0.16666667 </v>
   <v>      -0.10344828      -0.03571429       0.16666667 </v>
   <v>      -0.06896552      -0.03571429       0.16666667 </v>
   <v>      -0.03448276      -0.03571429       0.16666667 </v>
   <v>       0.00000000       0.00000000       0.33333333 </v>
   <v>       0.03448276       0.00000000       0.33333333 </v>
   <v>       0.06896552       0.00000000       0.33333333 </v>
   <v>       0.10344828       0.00000000       0.33333333 </v>
   <v>       0.13793103       0.00000000       0.33333333 </v>
   <v>       0.17241379       0.00000000       0.33333333 </v>
   <v>       0.20689655       0.00000000       0.33333333 </v>
   <v>       0.24137931       0.00000000       0.33333333 </v>
   <v>       0.27586207       0.00000000       0.33333333 </v>
   <v>       0.31034483       0.00000000       0.33333333 </v>
   <v>       0.34482759       0.00000000       0.33333333 </v>
   <v>       0.37931034       0.00000000       0.33333333 </v>
   <v>       0.41379310       0.00000000       0.33333333 </v>
   <v>       0.44827586       0.00000000       0.33333333 </v>
   <v>       0.48275862       0.00000000       0.33333333 </v>
   <v>      -0.48275862       0.00000000       0.33333333 </v>
   <v>      -0.44827586       0.00000000       0.33333333 </v>
   <v>      -0.41379310       0.00000000       0.33333333 </v>
   <v>      -0.37931034       0.00000000       0.33333333 </v>
   <v>      -0.34482759       0.00000000       0.33333333 </v>
   <v>      -0.31034483       0.00000000       0.33333333 </v>
   <v>      -0.27586207       0.00000000       0.33333333 </v>
   <v>      -0.24137931       0.00000000       0.33333333 </v>
[...]
       <r>    3.3306    1.0000 </r>
       <r>    3.3755    1.0000 </r>
       <r>    3.4825    1.0000 </r>
       <r>    3.7799    1.0000 </r>
       <r>    4.2209    1.0000 </r>
       <r>    4.3772    1.0000 </r>
       <r>    4.5478    1.0000 </r>
       <r>    4.7633    1.0000 </r>
       <r>    5.0030    1.0000 </r>
       <r>    5.1392    1.0000 </r>
       <r>    5.3058    1.0000 </r>
       <r>    5.5695    1.0000 </r>
       <r>    5.6789    1.0000 </r>
       <r>    5.7952    1.0000 </r>
       <r>    5.9645    1.0000 </r>
       <r>    6.0375    1.0000 </r>
       <r>    6.0947    1.0000 </r>
       <r>    6.1235    1.0000 </r>
       <r>    7.2514    1.0138 </r>
       <r>    7.8561    0.3346 </r>
       <r>    8.7530    0.0000 </r>
       <r>    9.3545    0.0000 </r>
       <r>   10.1193    0.0000 </r>
       <r>   11.0034    0.0000 </r>
       <r>   12.2437    0.0000 </r>
       <r>   14.1896    0.0000 </r>
       <r>   14.8082    0.0000 </r>
       <r>   16.1258    0.0000 </r>
       <r>   15.6978    0.0000 </r>
      </set>
      <set comment="kpoint 2437">
       <r>    1.0837    1.0000 </r>
       <r>    1.5298    1.0000 </r>
       <r>    1.5577    1.0000 </r>
       <r>    1.7067    1.0000 </r>
       <r>    2.0352    1.0000 </r>
       <r>    2.3648    1.0000 </r>
       <r>    2.9836    1.0000 </r>
       <r>    3.3701    1.0000 </r>
       <r>    3.4318    1.0000 </r>
       <r>    3.5433    1.0000 </r>
       <r>    3.8082    1.0000 </r>
       <r>    4.3471    1.0000 </r>
       <r>    4.5273    1.0000 </r>
       <r>    4.7327    1.0000 </r>
       <r>    4.7958    1.0000 </r>
       <r>    4.9660    1.0000 </r>
       <r>    5.1772    1.0000 </r>
       <r>    5.3731    1.0000 </r>
       <r>    5.4928    1.0000 </r>
       <r>    5.7358    1.0000 </r>
       <r>    5.8262    1.0000 </r>
       <r>    6.0227    1.0000 </r>
       <r>    6.0696    1.0000 </r>
       <r>    6.1614    1.0000 </r>
       <r>    6.1656    1.0000 </r>
       <r>    7.3491    1.0281 </r>
       <r>    8.0641   -0.0102 </r>
       <r>    8.3733   -0.0101 </r>
       <r>    9.2991    0.0000 </r>
       <r>    9.5579    0.0000 </r>
       <r>   11.0482    0.0000 </r>
       <r>   11.8213    0.0000 </r>
       <r>   14.1448    0.0000 </r>
       <r>   14.6228    0.0000 </r>
       <r>   15.9207    0.0000 </r>
       <r>   15.0809    0.0000 </r>
      </set>
      <set comment="kpoint 2438">
       <r>    1.0240    1.0000 </r>
       <r>    1.4971    1.0000 </r>
       <r>    1.5133    1.0000 </r>
       <r>    1.6703    1.0000 </r>
       <r>    2.0150    1.0000 </r>
       <r>    2.3463    1.0000 </r>
       <r>    2.9812    1.0000 </r>
       <r>    3.3782    1.0000 </r>
       <r>    3.4755    1.0000 </r>
       <r>    3.5739    1.0000 </r>
       <r>    3.8206    1.0000 </r>
       <r>    4.4120    1.0000 </r>
       <r>    4.5767    1.0000 </r>
       <r>    4.8440    1.0000 </r>
       <r>    4.8795    1.0000 </r>
       <r>    4.9402    1.0000 </r>
       <r>    5.1601    1.0000 </r>
       <r>    5.3982    1.0000 </r>
       <r>    5.4235    1.0000 </r>
       <r>    5.7509    1.0000 </r>
       <r>    5.9197    1.0000 </r>
       <r>    6.0301    1.0000 </r>
       <r>    6.0830    1.0000 </r>
       <r>    6.1920    1.0000 </r>
       <r>    6.2139    1.0000 </r>
       <r>    7.5429    1.0005 </r>
       <r>    7.9100    0.2031 </r>
       <r>    8.4288   -0.0055 </r>
       <r>    9.0852    0.0000 </r>
       <r>    9.2887    0.0000 </r>
       <r>   11.2086    0.0000 </r>
       <r>   11.4790    0.0000 </r>
       <r>   14.0882    0.0000 </r>
       <r>   14.5786    0.0000 </r>
       <r>   15.7371    0.0000 </r>
       <r>   13.6315    0.0000 </r>
      </set>
     </set>
    </set>
   </array>
  </eigenvalues>
  <separator name="orbital magnetization" >
   <v name="MAGDIPOLOUT">      0.00000000      0.00000000      0.00000000</v>
  </separator>
  <dos>
   <i name="efermi">      7.79615022 </i>
   <total>
    <array>
     <dimension dim="1">gridpoints</dimension>
     <dimension dim="2">spin</dimension>
     <field>energy</field>
     <field>total</field>
     <field>integrated</field>
     <set>
      <set comment="spin 1">
       <r>    -4.0542     0.0000     0.0000 </r>
       <r>    -3.9488     0.0000     0.0000 </r>
       <r>    -3.8434     0.0000     0.0000 </r>
       <r>    -3.7379     0.0000     0.0000 </r>
       <r>    -3.6325     0.0000     0.0000 </r>
       <r>    -3.5270     0.0000     0.0000 </r>
       <r>    -3.4216     0.0000     0.0000 </r>
       <r>    -3.3162     0.0000     0.0000 </r>
       <r>    -3.2107     0.0000     0.0000 </r>
       <r>    -3.1053     0.0000     0.0000 </r>
       <r>    -2.9999     0.0000     0.0000 </r>
       <r>    -2.8944     0.0000     0.0000 </r>
       <r>    -2.7890     0.0000     0.0000 </r>
       <r>    -2.6835     0.0000     0.0000 </r>
       <r>    -2.5781     0.0000     0.0000 </r>
       <r>    -2.4727     0.0000     0.0000 </r>
       <r>    -2.3672     0.0000     0.0000 </r>
       <r>    -2.2618     0.0000     0.0000 </r>
       <r>    -2.1564     0.0000     0.0000 </r>
       <r>    -2.0509     0.0000     0.0000 </r>
       <r>    -1.9455     0.0000     0.0000 </r>
       <r>    -1.8400     0.0000     0.0000 </r>
       <r>    -1.7346    -0.0003     0.0000 </r>
       <r>    -1.6292    -0.0011    -0.0001 </r>
       <r>    -1.5237    -0.0032    -0.0005 </r>
       <r>    -1.4183    -0.0066    -0.0012 </r>
       <r>    -1.3129    -0.0072    -0.0020 </r>
       <r>    -1.2074     0.0053    -0.0014 </r>
       <r>    -1.1020     0.0422     0.0031 </r>
       <r>    -0.9966     0.1031     0.0139 </r>
       <r>    -0.8911     0.1697     0.0318 </r>
       <r>    -0.7857     0.2195     0.0550 </r>
       <r>    -0.6802     0.2441     0.0807 </r>
       <r>    -0.5748     0.2511     0.1072 </r>
       <r>    -0.4694     0.2518     0.1337 </r>
       <r>    -0.3639     0.2522     0.1603 </r>
       <r>    -0.2585     0.2533     0.1870 </r>
       <r>    -0.1531     0.2575     0.2142 </r>
       <r>    -0.0476     0.2720     0.2429 </r>
       <r>     0.0578     0.3062     0.2752 </r>
       <r>     0.1633     0.3660     0.3137 </r>
       <r>     0.2687     0.4432     0.3605 </r>
       <r>     0.3741     0.5156     0.4148 </r>
       <r>     0.4796     0.5630     0.4742 </r>
       <r>     0.5850     0.5857     0.5360 </r>
       <r>     0.6904     0.6204     0.6014 </r>
       <r>     0.7959     0.7553     0.6810 </r>
       <r>     0.9013     1.0792     0.7948 </r>
       <r>     1.0068     1.5472     0.9579 </r>
       <r>     1.1122     1.9451     1.1630 </r>
       <r>     1.2176     2.1076     1.3852 </r>
       <r>     1.3231     2.1894     1.6161 </r>
       <r>     1.4285     2.6240     1.8927 </r>
       <r>     1.5339     3.7444     2.2875 </r>
       <r>     1.6394     5.4658     2.8638 </r>
       <r>     1.7448     7.3614     3.6400 </r>
       <r>     1.8503     8.9822     4.5871 </r>
       <r>     1.9557    10.0342     5.6451 </r>
       <r>     2.0611    10.3592     6.7373 </r>
       <r>     2.1666     9.9688     7.7884 </r>
       <r>     2.2720     9.1260     8.7506 </r>
       <r>     2.3774     8.2304     9.6184 </r>
       <r>     2.4829     7.5936    10.4190 </r>
       <r>     2.5883     7.4287    11.2023 </r>
       <r>     2.6938     7.9434    12.0398 </r>
       <r>     2.7992     9.1687    13.0066 </r>
       <r>     2.9046    10.6984    14.1346 </r>
       <r>     3.0101    11.8527    15.3843 </r>
       <r>     3.1155    12.2319    16.6740 </r>
       <r>     3.2209    12.0330    17.9427 </r>
       <r>     3.3264    11.7623    19.1829 </r>
       <r>     3.4318    11.7021    20.4167 </r>
       <r>     3.5373    11.6832    21.6486 </r>
       <r>     3.6427    11.2954    22.8395 </r>
       <r>     3.7481    10.3484    23.9307 </r>
       <r>     3.8536     9.1984    24.9005 </r>
       <r>     3.9590     8.5000    25.7967 </r>
       <r>     4.0644     8.5261    26.6957 </r>
       <r>     4.1699     8.8308    27.6268 </r>
       <r>     4.2753     8.6979    28.5439 </r>
       <r>     4.3808     7.9026    29.3771 </r>
       <r>     4.4862     6.9274    30.1075 </r>
       <r>     4.5916     6.4044    30.7828 </r>
       <r>     4.6971     6.5258    31.4708 </r>
       <r>     4.8025     7.1140    32.2209 </r>
       <r>     4.9079     8.0055    33.0650 </r>
       <r>     5.0134     9.1083    34.0253 </r>
       <r>     5.1188    10.2669    35.1079 </r>
       <r>     5.2242    11.3293    36.3024 </r>
       <r>     5.3297    12.3093    37.6003 </r>
       <r>     5.4351    13.4113    39.0143 </r>
       <r>     5.5406    14.8787    40.5831 </r>
       <r>     5.6460    16.7287    42.3469 </r>
       <r>     5.7514    18.5980    44.3078 </r>
       <r>     5.8569    19.8387    46.3996 </r>
       <r>     5.9623    19.6550    48.4719 </r>
       <r>     6.0677    17.3444    50.3007 </r>
       <r>     6.1732    12.9768    51.6689 </r>
       <r>     6.2786     7.8809    52.4998 </r>
       <r>     6.3841     3.8631    52.9072 </r>
       <r>     6.4895     1.7908    53.0960 </r>
       <r>     6.5949     1.2324    53.2259 </r>
       <r>     6.7004     1.3026    53.3633 </r>
       <r>     6.8058     1.4419    53.5153 </r>
       <r>     6.9112     1.5054    53.6740 </r>
       <r>     7.0167     1.5227    53.8346 </r>
       <r>     7.1221     1.5266    53.9955 </r>
       <r>     7.2276     1.5180    54.1556 </r>
       <r>     7.3330     1.4947    54.3132 </r>
       <r>     7.4384     1.4754    54.4687 </r>
       <r>     7.5439     1.4786    54.6246 </r>
       <r>     7.6493     1.4923    54.7820 </r>
       <r>     7.7547     1.4891    54.9390 </r>
       <r>     7.8602     1.4644    55.0934 </r>
       <r>     7.9656     1.4396    55.2452 </r>
       <r>     8.0711     1.4310    55.3961 </r>
       <r>     8.1765     1.4336    55.5472 </r>
       <r>     8.2819     1.4332    55.6983 </r>
       <r>     8.3874     1.4237    55.8484 </r>
       <r>     8.4928     1.4012    55.9962 </r>
       <r>     8.5982     1.3641    56.1400 </r>
       <r>     8.7037     1.3270    56.2799 </r>
       <r>     8.8091     1.3154    56.4186 </r>
       <r>     8.9146     1.3329    56.5591 </r>
       <r>     9.0200     1.3547    56.7020 </r>
       <r>     9.1254     1.3571    56.8451 </r>
       <r>     9.2309     1.3420    56.9866 </r>
       <r>     9.3363     1.3304    57.1268 </r>
       <r>     9.4417     1.3371    57.2678 </r>
       <r>     9.5472     1.3541    57.4106 </r>
       <r>     9.6526     1.3564    57.5536 </r>
       <r>     9.7581     1.3230    57.6931 </r>
       <r>     9.8635     1.2588    57.8258 </r>
       <r>     9.9689     1.1956    57.9519 </r>
       <r>    10.0744     1.1635    58.0746 </r>
       <r>    10.1798     1.1600    58.1969 </r>
       <r>    10.2852     1.1519    58.3183 </r>
       <r>    10.3907     1.1121    58.4356 </r>
       <r>    10.4961     1.0501    58.5463 </r>
       <r>    10.6015     1.0036    58.6521 </r>
       <r>    10.7070     1.0092    58.7585 </r>
       <r>    10.8124     1.0870    58.8732 </r>
       <r>    10.9179     1.2342    59.0033 </r>
       <r>    11.0233     1.4125    59.1522 </r>
       <r>    11.1287     1.5561    59.3163 </r>
       <r>    11.2342     1.6160    59.4867 </r>
       <r>    11.3396     1.5956    59.6549 </r>
       <r>    11.4450     1.5400    59.8173 </r>
       <r>    11.5505     1.4978    59.9752 </r>
       <r>    11.6559     1.4964    60.1330 </r>
       <r>    11.7614     1.5331    60.2946 </r>
       <r>    11.8668     1.5785    60.4610 </r>
       <r>    11.9722     1.5976    60.6295 </r>
       <r>    12.0777     1.5762    60.7957 </r>
       <r>    12.1831     1.5274    60.9567 </r>
       <r>    12.2885     1.4772    61.1125 </r>
       <r>    12.3940     1.4515    61.2655 </r>
       <r>    12.4994     1.4630    61.4198 </r>
       <r>    12.6049     1.4986    61.5778 </r>
       <r>    12.7103     1.5255    61.7386 </r>
       <r>    12.8157     1.5189    61.8988 </r>
       <r>    12.9212     1.4785    62.0547 </r>
       <r>    13.0266     1.4173    62.2041 </r>
       <r>    13.1320     1.3480    62.3462 </r>
       <r>    13.2375     1.2896    62.4822 </r>
       <r>    13.3429     1.2972    62.6190 </r>
       <r>    13.4484     1.4645    62.7734 </r>
       <r>    13.5538     1.8515    62.9686 </r>
       <r>    13.6592     2.3838    63.2199 </r>
       <r>    13.7647     2.8573    63.5212 </r>
       <r>    13.8701     3.0886    63.8469 </r>
       <r>    13.9755     3.0598    64.1695 </r>
       <r>    14.0810     2.9039    64.4756 </r>
       <r>    14.1864     2.7677    64.7675 </r>
       <r>    14.2919     2.7065    65.0528 </r>
       <r>    14.3973     2.6911    65.3366 </r>
       <r>    14.5027     2.6809    65.6192 </r>
       <r>    14.6082     2.6779    65.9016 </r>
       <r>    14.7136     2.7173    66.1881 </r>
       <r>    14.8190     2.8142    66.4848 </r>
       <r>    14.9245     2.9242    66.7931 </r>
       <r>    15.0299     2.9734    67.1066 </r>
       <r>    15.1354     2.9298    67.4156 </r>
       <r>    15.2408     2.8313    67.7141 </r>
       <r>    15.3462     2.7435    68.0033 </r>
       <r>    15.4517     2.7046    68.2885 </r>
       <r>    15.5571     2.7142    68.5747 </r>
       <r>    15.6625     2.7604    68.8657 </r>
       <r>    15.7680     2.8619    69.1675 </r>
       <r>    15.8734     3.0709    69.4913 </r>
       <r>    15.9789     3.3681    69.8464 </r>
       <r>    16.0843     3.5323    70.2188 </r>
       <r>    16.1897     3.2447    70.5609 </r>
       <r>    16.2952     2.4331    70.8175 </r>
       <r>    16.4006     1.4239    70.9676 </r>
       <r>    16.5060     0.6509    71.0362 </r>
       <r>    16.6115     0.2849    71.0663 </r>
       <r>    16.7169     0.2084    71.0883 </r>
       <r>    16.8223     0.2359    71.1131 </r>
       <r>    16.9278     0.2646    71.1410 </r>
       <r>    17.0332     0.2738    71.1699 </r>
       <r>    17.1387     0.2735    71.1987 </r>
       <r>    17.2441     0.2754    71.2278 </r>
       <r>    17.3495     0.2847    71.2578 </r>
       <r>    17.4550     0.2990    71.2893 </r>
       <r>    17.5604     0.3093    71.3219 </r>
       <r>    17.6658     0.3061    71.3542 </r>
       <r>    17.7713     0.2881    71.3846 </r>
       <r>    17.8767     0.2639    71.4124 </r>
       <r>    17.9822     0.2456    71.4383 </r>
       <r>    18.0876     0.2372    71.4633 </r>
       <r>    18.1930     0.2311    71.4877 </r>
       <r>    18.2985     0.2173    71.5106 </r>
       <r>    18.4039     0.1943    71.5311 </r>
       <r>    18.5093     0.1708    71.5491 </r>
       <r>    18.6148     0.1555    71.5655 </r>
       <r>    18.7202     0.1500    71.5813 </r>
       <r>    18.8257     0.1511    71.5972 </r>
       <r>    18.9311     0.1576    71.6139 </r>
       <r>    19.0365     0.1702    71.6318 </r>
       <r>    19.1420     0.1854    71.6514 </r>
       <r>    19.2474     0.1923    71.6716 </r>
       <r>    19.3528     0.1804    71.6907 </r>
       <r>    19.4583     0.1503    71.7065 </r>
       <r>    19.5637     0.1165    71.7188 </r>
       <r>    19.6692     0.0945    71.7288 </r>
       <r>    19.7746     0.0871    71.7379 </r>
       <r>    19.8800     0.0855    71.7470 </r>
       <r>    19.9855     0.0809    71.7555 </r>
       <r>    20.0909     0.0716    71.7630 </r>
       <r>    20.1963     0.0627    71.7696 </r>
       <r>    20.3018     0.0609    71.7761 </r>
       <r>    20.4072     0.0677    71.7832 </r>
       <r>    20.5127     0.0771    71.7913 </r>
       <r>    20.6181     0.0814    71.7999 </r>
       <r>    20.7235     0.0798    71.8083 </r>
       <r>    20.8290     0.0786    71.8166 </r>
       <r>    20.9344     0.0830    71.8254 </r>
       <r>    21.0398     0.0926    71.8351 </r>
       <r>    21.1453     0.1037    71.8461 </r>
       <r>    21.2507     0.1133    71.8580 </r>
       <r>    21.3562     0.1178    71.8704 </r>
       <r>    21.4616     0.1140    71.8824 </r>
       <r>    21.5670     0.1017    71.8932 </r>
       <r>    21.6725     0.0851    71.9021 </r>
       <r>    21.7779     0.0698    71.9095 </r>
       <r>    21.8833     0.0594    71.9158 </r>
       <r>    21.9888     0.0549    71.9216 </r>
       <r>    22.0942     0.0555    71.9274 </r>
       <r>    22.1997     0.0576    71.9335 </r>
       <r>    22.3051     0.0580    71.9396 </r>
       <r>    22.4105     0.0560    71.9455 </r>
       <r>    22.5160     0.0525    71.9510 </r>
       <r>    22.6214     0.0482    71.9561 </r>
       <r>    22.7268     0.0440    71.9607 </r>
       <r>    22.8323     0.0415    71.9651 </r>
       <r>    22.9377     0.0412    71.9695 </r>
       <r>    23.0431     0.0414    71.9738 </r>
       <r>    23.1486     0.0407    71.9781 </r>
       <r>    23.2540     0.0400    71.9823 </r>
       <r>    23.3595     0.0399    71.9865 </r>
       <r>    23.4649     0.0385    71.9906 </r>
       <r>    23.5703     0.0329    71.9941 </r>
       <r>    23.6758     0.0235    71.9966 </r>
       <r>    23.7812     0.0136    71.9980 </r>
       <r>    23.8866     0.0065    71.9987 </r>
       <r>    23.9921     0.0028    71.9990 </r>
       <r>    24.0975     0.0013    71.9991 </r>
       <r>    24.2030     0.0007    71.9992 </r>
       <r>    24.3084     0.0004    71.9992 </r>
       <r>    24.4138     0.0008    71.9993 </r>
       <r>    24.5193     0.0017    71.9995 </r>
       <r>    24.6247     0.0022    71.9997 </r>
       <r>    24.7301     0.0019    71.9999 </r>
       <r>    24.8356     0.0010    72.0000 </r>
       <r>    24.9410     0.0002    72.0000 </r>
       <r>    25.0465    -0.0001    72.0000 </r>
       <r>    25.1519    -0.0001    72.0000 </r>
       <r>    25.2573    -0.0001    72.0000 </r>
       <r>    25.3628     0.0000    72.0000 </r>
       <r>    25.4682     0.0000    72.0000 </r>
       <r>    25.5736     0.0000    72.0000 </r>
       <r>    25.6791     0.0000    72.0000 </r>
       <r>    25.7845     0.0000    72.0000 </r>
       <r>    25.8900     0.0000    72.0000 </r>
       <r>    25.9954     0.0000    72.0000 </r>
       <r>    26.1008     0.0000    72.0000 </r>
       <r>    26.2063     0.0000    72.0000 </r>
       <r>    26.3117     0.0000    72.0000 </r>
       <r>    26.4171     0.0000    72.0000 </r>
       <r>    26.5226     0.0000    72.0000 </r>
       <r>    26.6280     0.0000    72.0000 </r>
       <r>    26.7335     0.0000    72.0000 </r>
       <r>    26.8389     0.0000    72.0000 </r>
       <r>    26.9443     0.0000    72.0000 </r>
       <r>    27.0498     0.0000    72.0000 </r>
       <r>    27.1552     0.0000    72.0000 </r>
       <r>    27.2606     0.0000    72.0000 </r>
       <r>    27.3661     0.0000    72.0000 </r>
       <r>    27.4715     0.0000    72.0000 </r>
       <r>    27.5770     0.0000    72.0000 </r>
      </set>
     </set>
    </array>
   </total>
  </dos>
 </calculation>
 <structure name="finalpos" >
  <crystal>
   <varray name="basis" >
    <v>       0.00000000       2.01641000       2.01641000 </v>
    <v>      -2.01641000       0.00000000      -2.01641000 </v>
    <v>      -5.77932545      -7.79573545       5.77932545 </v>
   </varray>
   <i name="volume">     78.69317937 </i>
   <varray name="rec_basis" >
    <v>      -0.19975555       0.29617534       0.19975555 </v>
    <v>      -0.34784322       0.14808767      -0.14808767 </v>
    <v>      -0.05166787      -0.05166787       0.05166787 </v>
   </varray>
  </crystal>
  <varray name="positions" >
   <v>       0.39687160       0.19843580       0.59530740 </v>
   <v>       0.80318561       0.40159281       0.20477842 </v>
   <v>       0.19280339       0.59640170       0.78920509 </v>
   <v>       0.59968313       0.79984157       0.39952470 </v>
   <v>       0.00745625       0.00372813       0.01118438 </v>
  </varray>
 </structure>
</modeling>
