<?xml version="1.0" encoding="ISO-8859-1"?>
<modeling>
 <generator>
  <i name="program" type="string">vasp </i>
  <i name="version" type="string">5.3.5  </i>
  <i name="subversion" type="string">31Mar14 (build Jun 20 2014 13:15:13) complex                          parallel </i>
  <i name="platform" type="string">LinuxIFC </i>
  <i name="date" type="string">2025 12 16 </i>
  <i name="time" type="string">16:32:42 </i>
 </generator>
 <incar>
  <i type="string" name="PREC">accurate</i>
  <i type="int" name="IALGO">    68</i>
  <i type="logical" name="ADDGRID"> T  </i>
  <i type="int" name="NELM">   100</i>
  <i type="int" name="NELMIN">     4</i>
  <i type="int" name="IBRION">     2</i>
  <i name="EDIFF">      0.00000100</i>
  <i name="EDIFFG">     -0.02000000</i>
  <i type="int" name="NSW">    30</i>
  <i type="int" name="ISIF">     3</i>
  <i name="ENCUT">    600.00000000</i>
  <i type="logical" name="LREAL"> F  </i>
  <i type="int" name="ISMEAR">     0</i>
  <i name="SIGMA">      0.10000000</i>
  <i type="logical" name="LWAVE"> F  </i>
  <i type="logical" name="LCHARG"> F  </i>
  <i type="int" name="NELM">   100</i>
 </incar>
 <kpoints>
  <generation param="Auto">
   <i name="subdivisionlength">     20.00000000 </i>
   <v type="int" name="divisions">       7        7        1 </v>
   <v name="usershift">      0.00000000       0.00000000       0.00000000 </v>
   <v name="genvec1">      0.14285714       0.00000000       0.00000000 </v>
   <v name="genvec2">      0.00000000       0.14285714       0.00000000 </v>
   <v name="genvec3">      0.00000000       0.00000000       1.00000000 </v>
   <v name="shift">      0.00000000       0.00000000       0.00000000 </v>
  </generation>
  <varray name="kpointlist" >
   <v>       0.00000000       0.00000000       0.00000000 </v>
   <v>       0.14285714       0.00000000       0.00000000 </v>
   <v>       0.28571429       0.00000000       0.00000000 </v>
   <v>       0.42857143       0.00000000       0.00000000 </v>
   <v>       0.14285714       0.14285714       0.00000000 </v>
   <v>       0.28571429       0.14285714       0.00000000 </v>
   <v>       0.42857143       0.14285714       0.00000000 </v>
   <v>       0.28571429       0.28571429       0.00000000 </v>
  </varray>
  <varray name="weights" >
   <v>       0.02040816 </v>
   <v>       0.12244898 </v>
   <v>       0.12244898 </v>
   <v>       0.12244898 </v>
   <v>       0.12244898 </v>
   <v>       0.24489796 </v>
   <v>       0.12244898 </v>
   <v>       0.12244898 </v>
  </varray>
 </kpoints>
 <parameters>
  <separator name="general" >
   <i type="string" name="SYSTEM">unknown system</i>
   <i type="logical" name="LCOMPAT"> F  </i>
  </separator>
  <separator name="electronic" >
   <i type="string" name="PREC">accura</i>
   <i name="ENMAX">    600.00000000</i>
   <i name="ENAUG">    644.87300000</i>
   <i name="EDIFF">      0.00000100</i>
   <i type="int" name="IALGO">    68</i>
   <i type="int" name="IWAVPR">    11</i>
   <i type="int" name="NBANDS">    44</i>
   <i name="NELECT">     64.00000000</i>
   <i type="int" name="TURBO">     0</i>
   <i type="int" name="IRESTART">     0</i>
   <i type="int" name="NREBOOT">     0</i>
   <i type="int" name="NMIN">     0</i>
   <i name="EREF">      0.00000000</i>
   <separator name="electronic smearing" >
    <i type="int" name="ISMEAR">     0</i>
    <i name="SIGMA">      0.10000000</i>
    <i name="KSPACING">      0.50000000</i>
    <i type="logical" name="KGAMMA"> T  </i>
   </separator>
   <separator name="electronic projectors" >
    <i type="logical" name="LREAL"> F  </i>
    <v name="ROPT">      0.00000000      0.00000000      0.00000000      0.00000000</v>
    <i type="int" name="LMAXPAW">  -100</i>
    <i type="int" name="LMAXMIX">     2</i>
    <i type="logical" name="NLSPLINE"> F  </i>
   </separator>
   <separator name="electronic startup" >
    <i type="int" name="ISTART">     0</i>
    <i type="int" name="ICHARG">     2</i>
    <i type="int" name="INIWAV">     1</i>
   </separator>
   <separator name="electronic spin" >
    <i type="int" name="ISPIN">     1</i>
    <i type="logical" name="LNONCOLLINEAR"> F  </i>
    <v name="MAGMOM">      1.00000000      1.00000000      1.00000000      1.00000000      1.00000000      1.00000000      1.00000000      1.00000000      1.00000000      1.00000000      1.00000000      1.00000000      1.00000000      1.00000000      1.00000000      1.00000000</v>
    <i name="NUPDOWN">     -1.00000000</i>
    <i type="logical" name="LSORBIT"> F  </i>
    <v name="SAXIS">      0.00000000      0.00000000      1.00000000</v>
    <i type="logical" name="LSPIRAL"> F  </i>
    <v name="QSPIRAL">      0.00000000      0.00000000      0.00000000</v>
    <i type="logical" name="LZEROZ"> F  </i>
   </separator>
   <separator name="electronic exchange-correlation" >
    <i type="logical" name="LASPH"> F  </i>
    <i type="logical" name="LMETAGGA"> F  </i>
   </separator>
   <separator name="electronic convergence" >
    <i type="int" name="NELM">   100</i>
    <i type="int" name="NELMDL">     0</i>
    <i type="int" name="NELMIN">     4</i>
    <i name="ENINI">    600.00000000</i>
    <separator name="electronic convergence detail" >
     <i type="logical" name="LDIAG"> T  </i>
     <i type="logical" name="LSUBROT"> F  </i>
     <i name="WEIMIN">      0.00100000</i>
     <i name="EBREAK">      0.00000001</i>
     <i name="DEPER">      0.30000000</i>
     <i type="int" name="NRMM">     4</i>
     <i name="TIME">      0.40000000</i>
    </separator>
   </separator>
   <separator name="electronic mixer" >
    <i name="AMIX">      0.40000000</i>
    <i name="BMIX">      1.00000000</i>
    <i name="AMIN">      0.10000000</i>
    <i name="AMIX_MAG">      1.60000000</i>
    <i name="BMIX_MAG">      1.00000000</i>
    <separator name="electronic mixer details" >
     <i type="int" name="IMIX">     4</i>
     <i type="int" name="MAXMIX">   -45</i>
     <i name="WC">    100.00000000</i>
     <i type="int" name="INIMIX">     1</i>
     <i type="int" name="MIXPRE">     1</i>
     <i type="int" name="MREMOVE">     5</i>
    </separator>
   </separator>
   <separator name="electronic dipolcorrection" >
    <i type="logical" name="LDIPOL"> F  </i>
    <i type="logical" name="LMONO"> F  </i>
    <i type="int" name="IDIPOL">     0</i>
    <i name="EPSILON">      1.00000000</i>
    <v name="DIPOL">   -100.00000000   -100.00000000   -100.00000000</v>
    <i name="EFIELD">      0.00000000</i>
   </separator>
  </separator>
  <separator name="grids" >
   <i type="int" name="NGX">    28</i>
   <i type="int" name="NGY">    28</i>
   <i type="int" name="NGZ">   162</i>
   <i type="int" name="NGXF">    56</i>
   <i type="int" name="NGYF">    56</i>
   <i type="int" name="NGZF">   324</i>
   <i type="logical" name="ADDGRID"> T  </i>
  </separator>
  <separator name="ionic" >
   <i type="int" name="NSW">    30</i>
   <i type="int" name="IBRION">     2</i>
   <i type="int" name="ISIF">     3</i>
   <i name="PSTRESS">      0.00000000</i>
   <i name="EDIFFG">     -0.02000000</i>
   <i type="int" name="NFREE">     1</i>
   <i name="POTIM">      0.50000000</i>
   <i name="SMASS">     -3.00000000</i>
   <i name="SCALEE">      1.00000000</i>
  </separator>
  <separator name="ionic md" >
   <i name="TEBEG">      0.00010000</i>
   <i name="TEEND">      0.00010000</i>
   <i type="int" name="NBLOCK">     1</i>
   <i type="int" name="KBLOCK">    30</i>
   <i type="int" name="NPACO">   256</i>
   <i name="APACO">     16.00000000</i>
  </separator>
  <separator name="symmetry" >
   <i type="int" name="ISYM">     2</i>
   <i name="SYMPREC">      0.00001000</i>
  </separator>
  <separator name="dos" >
   <i type="logical" name="LORBIT"> F  </i>
   <v name="RWIGS">     -1.00000000     -1.00000000     -1.00000000     -1.00000000</v>
   <i type="int" name="NEDOS">   301</i>
   <i name="EMIN">     10.00000000</i>
   <i name="EMAX">    -10.00000000</i>
   <i name="EFERMI">      0.00000000</i>
  </separator>
  <separator name="writing" >
   <i type="int" name="NWRITE">     2</i>
   <i type="logical" name="LWAVE"> F  </i>
   <i type="logical" name="LCHARG"> F  </i>
   <i type="logical" name="LPARD"> F  </i>
   <i type="logical" name="LVTOT"> F  </i>
   <i type="logical" name="LVHAR"> F  </i>
   <i type="logical" name="LELF"> F  </i>
   <i type="logical" name="LOPTICS"> F  </i>
   <v name="STM">      0.00000000      0.00000000      0.00000000      0.00000000      0.00000000      0.00000000      0.00000000</v>
  </separator>
  <separator name="performance" >
   <i type="int" name="NPAR">     4</i>
   <i type="int" name="NSIM">     4</i>
   <i type="int" name="NBLK">    -1</i>
   <i type="logical" name="LPLANE"> T  </i>
   <i type="logical" name="LSCALAPACK"> T  </i>
   <i type="logical" name="LSCAAWARE"> F  </i>
   <i type="logical" name="LSCALU"> F  </i>
   <i type="logical" name="LASYNC"> F  </i>
   <i type="logical" name="LORBITALREAL"> F  </i>
  </separator>
  <separator name="miscellaneous" >
   <i type="int" name="IDIOT">     3</i>
   <i type="logical" name="LMUSIC"> F  </i>
   <v name="POMASS">     28.08500000     26.98100000     12.01100000     14.00100000</v>
   <v name="DARWINR">      0.00000000      0.00000000      0.00000000      0.00000000</v>
   <v name="DARWINV">      1.00000000      1.00000000      1.00000000      1.00000000</v>
   <i type="logical" name="LCORR"> T  </i>
  </separator>
  <i type="logical" name="GGA_COMPAT"> T  </i>
  <i type="logical" name="LBERRY"> F  </i>
  <i type="int" name="ICORELEVEL">     0</i>
  <i type="logical" name="LDAU"> F  </i>
  <i type="int" name="I_CONSTRAINED_M">     0</i>
  <separator name="electronic exchange-correlation" >
   <i type="string" name="GGA">--</i>
   <i type="int" name="VOSKOWN">     0</i>
   <i type="logical" name="LHFCALC"> F  </i>
   <i type="string" name="PRECFOCK"></i>
   <i type="logical" name="LSYMGRAD"> F  </i>
   <i type="logical" name="LHFONE"> F  </i>
   <i type="logical" name="LRHFCALC"> F  </i>
   <i type="logical" name="LTHOMAS"> F  </i>
   <i type="logical" name="LMODELHF"> F  </i>
   <i name="ENCUT4O">     -1.00000000</i>
   <i type="int" name="EXXOEP">     0</i>
   <i type="int" name="FOURORBIT">     0</i>
   <i name="AEXX">      0.00000000</i>
   <i name="HFALPHA">      0.00000000</i>
   <i name="MCALPHA">      0.00000000</i>
   <i name="ALDAX">      1.00000000</i>
   <i name="AGGAX">      1.00000000</i>
   <i name="ALDAC">      1.00000000</i>
   <i name="AGGAC">      1.00000000</i>
   <i type="int" name="NKREDX">     1</i>
   <i type="int" name="NKREDY">     1</i>
   <i type="int" name="NKREDZ">     1</i>
   <i type="logical" name="SHIFTRED"> F  </i>
   <i type="logical" name="ODDONLY"> F  </i>
   <i type="logical" name="EVENONLY"> F  </i>
   <i type="int" name="LMAXFOCK">     0</i>
   <i type="int" name="NMAXFOCKAE">     0</i>
   <i type="logical" name="LFOCKAEDFT"> F  </i>
   <i name="HFSCREEN">      0.00000000</i>
   <i name="HFSCREENC">      0.00000000</i>
   <i type="int" name="NBANDSGWLOW">     0</i>
  </separator>
  <separator name="vdW DFT" >
   <i type="logical" name="LUSE_VDW"> F  </i>
   <i name="Zab_VDW">     -0.84910000</i>
   <i name="PARAM1">      0.12340000</i>
   <i name="PARAM2">      1.00000000</i>
   <i name="PARAM3">      0.00000000</i>
  </separator>
  <separator name="model GW" >
   <i type="int" name="MODEL_GW">     0</i>
   <i name="MODEL_EPS0">      6.46013651</i>
   <i name="MODEL_ALPHA">      1.00000000</i>
  </separator>
  <separator name="linear response parameters" >
   <i type="logical" name="LEPSILON"> F  </i>
   <i type="logical" name="LRPA"> F  </i>
   <i type="logical" name="LNABLA"> F  </i>
   <i type="logical" name="LVEL"> F  </i>
   <i type="int" name="KINTER">     0</i>
   <i name="CSHIFT">      0.10000000</i>
   <i name="OMEGAMAX">     -1.00000000</i>
   <i name="DEG_THRESHOLD">      0.00200000</i>
  </separator>
  <separator name="orbital magnetization" >
   <i type="logical" name="NUCIND"> F  </i>
   <v name="MAGPOS">      0.00000000      0.00000000      0.00000000</v>
   <i type="logical" name="LNICSALL"> T  </i>
   <i type="logical" name="ORBITALMAG"> F  </i>
   <i type="logical" name="LMAGBLOCH"> F  </i>
   <i type="logical" name="LCHIMAG"> F  </i>
   <i type="logical" name="LGAUGE"> T  </i>
   <i type="int" name="MAGATOM">     0</i>
   <v name="MAGDIPOL">      0.00000000      0.00000000      0.00000000</v>
   <v name="AVECCONST">      0.00000000      0.00000000      0.00000000</v>
  </separator>
  <separator name="response functions" >
   <i type="logical" name="LADDER"> F  </i>
   <i type="logical" name="LFXC"> F  </i>
   <i type="logical" name="LHARTREE"> T  </i>
   <i type="int" name="IBSE">     0</i>
   <i type="logical" name="LTCTE"> F  </i>
   <i type="logical" name="LTETE"> F  </i>
   <i type="logical" name="LTRIPLET"> F  </i>
   <i type="logical" name="LFXCEPS"> F  </i>
   <i type="logical" name="LFXHEG"> F  </i>
   <i type="logical" name="L2ORDER"> F  </i>
   <i type="logical" name="LUSEW"> F  </i>
   <i name="ENCUTGW">     -2.00000000</i>
   <i name="ENCUTGWSOFT">     -2.00000000</i>
   <i name="ENCUTLF">     -1.00000000</i>
   <i type="int" name="LMAXMP2">    -1</i>
   <i name="SCISSOR">      0.00000000</i>
   <i type="int" name="NOMEGA">     0</i>
   <i type="int" name="NOMEGAR">     0</i>
   <i type="int" name="NBANDSGW">    -1</i>
   <i type="int" name="NBANDSO">    -1</i>
   <i type="int" name="NBANDSV">    -1</i>
   <i type="int" name="NELM">   100</i>
   <i type="int" name="DIM">     3</i>
   <i type="int" name="ANTIRES">     0</i>
   <i name="OMEGAMAX">    -30.00000000</i>
   <i name="OMEGAMIN">    -30.00000000</i>
   <i name="OMEGATL">   -200.00000000</i>
   <i type="int" name="OMEGAGRID">     0</i>
   <i name="CSHIFT">     -0.10000000</i>
   <i type="logical" name="SELFENERGY"> F  </i>
   <i type="logical" name="LSPECTRAL"> F  </i>
   <i type="logical" name="ODDONLYGW"> F  </i>
   <i type="logical" name="EVENONLYGW"> F  </i>
   <i type="int" name="NKREDLFX">     1</i>
   <i type="int" name="NKREDLFY">     1</i>
   <i type="int" name="NKREDLFZ">     1</i>
   <i type="int" name="MAXMEM">  1800</i>
   <i type="int" name="TELESCOPE">     0</i>
   <i type="int" name="TAUPAR">     1</i>
  </separator>
  <separator name="External order field" >
   <i name="OFIELD_KAPPA">      0.00000000</i>
   <v name="OFIELD_K">      0.00000000      0.00000000      0.00000000</v>
   <i name="OFIELD_Q6_NEAR">      0.00000000</i>
   <i name="OFIELD_Q6_FAR">      0.00000000</i>
   <i name="OFIELD_A">      0.00000000</i>
  </separator>
 </parameters>
 <atominfo>
  <atoms>      16 </atoms>
  <types>       4 </types>
  <array name="atoms" >
   <dimension dim="1">ion</dimension>
   <field type="string">element</field>
   <field type="int">atomtype</field>
   <set>
    <rc><c>Si</c><c>   1</c></rc>
    <rc><c>Si</c><c>   1</c></rc>
    <rc><c>Si</c><c>   1</c></rc>
    <rc><c>Si</c><c>   1</c></rc>
    <rc><c>Al</c><c>   2</c></rc>
    <rc><c>Al</c><c>   2</c></rc>
    <rc><c>Al</c><c>   2</c></rc>
    <rc><c>Al</c><c>   2</c></rc>
    <rc><c>C </c><c>   3</c></rc>
    <rc><c>C </c><c>   3</c></rc>
    <rc><c>C </c><c>   3</c></rc>
    <rc><c>C </c><c>   3</c></rc>
    <rc><c>N </c><c>   4</c></rc>
    <rc><c>N </c><c>   4</c></rc>
    <rc><c>N </c><c>   4</c></rc>
    <rc><c>N </c><c>   4</c></rc>
   </set>
  </array>
  <array name="atomtypes" >
   <dimension dim="1">type</dimension>
   <field type="int">atomspertype</field>
   <field type="string">element</field>
   <field>mass</field>
   <field>valence</field>
   <field type="string">pseudopotential</field>
   <set>
    <rc><c>   4</c><c>Si</c><c>     28.08500000</c><c>      4.00000000</c><c>  PAW_PBE Si 05Jan2001                  </c></rc>
    <rc><c>   4</c><c>Al</c><c>     26.98100000</c><c>      3.00000000</c><c>  PAW_PBE Al 04Jan2001                  </c></rc>
    <rc><c>   4</c><c>C </c><c>     12.01100000</c><c>      4.00000000</c><c>  PAW_PBE C 08Apr2002                   </c></rc>
    <rc><c>   4</c><c>N </c><c>     14.00100000</c><c>      5.00000000</c><c>  PAW_PBE N_s 07Sep2000                 </c></rc>
   </set>
  </array>
 </atominfo>
 <structure name="initialpos" >
  <crystal>
   <varray name="basis" >
    <v>       3.14465372       0.00000000       0.00000000 </v>
    <v>      -1.57232686       2.72335001       0.00000000 </v>
    <v>       0.00000000       0.00000000      20.11565310 </v>
   </varray>
   <i name="volume">    172.27030701 </i>
   <varray name="rec_basis" >
    <v>       0.31800004       0.18359741       0.00000000 </v>
    <v>       0.00000000       0.36719481       0.00000000 </v>
    <v>       0.00000000       0.00000000       0.04971253 </v>
   </varray>
  </crystal>
  <varray name="positions" >
   <v>       0.33333333       0.66666667       0.24820937 </v>
   <v>       0.33333333       0.66666667       0.74897406 </v>
   <v>       0.66666667       0.33333333       0.38063888 </v>
   <v>       0.66666667       0.33333333       0.87289887 </v>
   <v>       0.33333333       0.66666667       0.99486054 </v>
   <v>       0.33333333       0.66666667       0.50322227 </v>
   <v>       0.66666667       0.33333333       0.12073107 </v>
   <v>       0.66666667       0.33333333       0.62271390 </v>
   <v>       0.33333333       0.66666667       0.60227711 </v>
   <v>       0.33333333       0.66666667       0.84541399 </v>
   <v>       0.66666667       0.33333333       0.22147051 </v>
   <v>       0.66666667       0.33333333       0.46577338 </v>
   <v>       0.33333333       0.66666667       0.08835858 </v>
   <v>       0.33333333       0.66666667       0.34021866 </v>
   <v>       0.66666667       0.33333333       0.73052836 </v>
   <v>       0.66666667       0.33333333       0.96371045 </v>
  </varray>
 </structure>
 <calculation>
  <scstep>
   <time name="dav">    0.33    0.33</time>
   <time name="total">    0.44    0.45</time>
   <energy>
    <i name="alphaZ">     63.13679939 </i>
    <i name="ewald">  -2218.09259964 </i>
    <i name="hartreedc">   -407.21590929 </i>
    <i name="XCdc">     -6.12145420 </i>
    <i name="pawpsdc">   1871.13760811 </i>
    <i name="pawaedc">  -1679.96522576 </i>
    <i name="eentropy">     -0.01852799 </i>
    <i name="bandstr">    437.09552698 </i>
    <i name="atom">   2273.20978491 </i>
    <i name="e_fr_energy">    333.16600251 </i>
    <i name="e_wo_entrp">    333.18453050 </i>
    <i name="e_0_energy">    333.17526650 </i>
   </energy>
  </scstep>
  <scstep>
   <time name="dav">    0.37    0.37</time>
   <time name="total">    0.37    0.38</time>
   <energy>
    <i name="e_fr_energy">   -100.22939826 </i>
    <i name="e_wo_entrp">   -100.22939826 </i>
    <i name="e_0_energy">   -100.22939826 </i>
   </energy>
  </scstep>
  <scstep>
   <time name="dav">    0.38    0.39</time>
   <time name="total">    0.39    0.40</time>
   <energy>
    <i name="e_fr_energy">   -133.51982355 </i>
    <i name="e_wo_entrp">   -133.51982355 </i>
    <i name="e_0_energy">   -133.51982355 </i>
   </energy>
  </scstep>
  <scstep>
   <time name="dav">    0.38    0.38</time>
   <time name="total">    0.39    0.40</time>
   <energy>
    <i name="e_fr_energy">   -134.41825241 </i>
    <i name="e_wo_entrp">   -134.41825241 </i>
    <i name="e_0_energy">   -134.41825241 </i>
   </energy>
  </scstep>
  <scstep>
   <time name="dav">    0.42    0.42</time>
   <time name="total">    0.56    0.58</time>
   <energy>
    <i name="e_fr_energy">   -134.44230287 </i>
    <i name="e_wo_entrp">   -134.44230287 </i>
    <i name="e_0_energy">   -134.44230287 </i>
   </energy>
  </scstep>
  <scstep>
   <time name="diag">    0.08    0.08</time>
   <time name="diis">    0.27    0.27</time>
   <time name="orth">    0.01    0.25</time>
   <time name="total">    0.60    0.86</time>
   <energy>
    <i name="e_fr_energy">   -114.40517016 </i>
    <i name="e_wo_entrp">   -114.40452652 </i>
    <i name="e_0_energy">   -114.40484834 </i>
   </energy>
  </scstep>
  <scstep>
   <time name="diag">    0.08    0.08</time>
   <time name="diis">    0.29    0.29</time>
   <time name="orth">    0.01    0.01</time>
   <time name="total">    0.62    0.63</time>
   <energy>
    <i name="e_fr_energy">   -114.19830157 </i>
    <i name="e_wo_entrp">   -114.19298481 </i>
    <i name="e_0_energy">   -114.19564319 </i>
   </energy>
  </scstep>
  <scstep>
   <time name="diag">    0.08    0.08</time>
   <time name="diis">    0.27    0.27</time>
   <time name="orth">    0.01    0.01</time>
   <time name="total">    0.60    0.61</time>
   <energy>
    <i name="e_fr_energy">   -117.25504261 </i>
    <i name="e_wo_entrp">   -117.25504261 </i>
    <i name="e_0_energy">   -117.25504261 </i>
   </energy>
  </scstep>
  <scstep>
   <time name="diag">    0.08    0.08</time>
   <time name="diis">    0.29    0.29</time>
   <time name="orth">    0.01    0.01</time>
   <time name="total">    0.62    0.64</time>
   <energy>
    <i name="e_fr_energy">   -114.93751482 </i>
    <i name="e_wo_entrp">   -114.93593543 </i>
    <i name="e_0_energy">   -114.93672512 </i>
   </energy>
  </scstep>
  <scstep>
   <time name="diag">    0.08    0.08</time>
   <time name="diis">    0.28    0.28</time>
   <time name="orth">    0.01    0.01</time>
   <time name="total">    0.61    0.63</time>
   <energy>
    <i name="e_fr_energy">   -114.02373000 </i>
    <i name="e_wo_entrp">   -114.01518184 </i>
    <i name="e_0_energy">   -114.01945592 </i>
   </energy>
  </scstep>
  <scstep>
   <time name="diag">    0.09    0.09</time>
   <time name="diis">    0.28    0.28</time>
   <time name="orth">    0.01    0.01</time>
   <time name="total">    0.63    0.64</time>
   <energy>
    <i name="e_fr_energy">   -114.11585536 </i>
    <i name="e_wo_entrp">   -114.11143387 </i>
    <i name="e_0_energy">   -114.11364461 </i>
   </energy>
  </scstep>
  <scstep>
   <time name="diag">    0.08    0.08</time>
   <time name="diis">    0.28    0.28</time>
   <time name="orth">    0.01    0.01</time>
   <time name="total">    0.61    0.62</time>
   <energy>
    <i name="e_fr_energy">   -114.04075296 </i>
    <i name="e_wo_entrp">   -114.03284121 </i>
    <i name="e_0_energy">   -114.03679709 </i>
   </energy>
  </scstep>
  <scstep>
   <time name="diag">    0.08    0.08</time>
   <time name="diis">    0.29    0.29</time>
   <time name="orth">    0.01    0.01</time>
   <time name="total">    0.62    0.63</time>
   <energy>
    <i name="e_fr_energy">   -114.03773627 </i>
    <i name="e_wo_entrp">   -114.03044466 </i>
    <i name="e_0_energy">   -114.03409047 </i>
   </energy>
  </scstep>
  <scstep>
   <time name="diag">    0.08    0.08</time>
   <time name="diis">    0.28    0.28</time>
   <time name="orth">    0.01    0.01</time>
   <time name="total">    0.82    0.83</time>
   <energy>
    <i name="e_fr_energy">   -114.00480984 </i>
    <i name="e_wo_entrp">   -114.00002777 </i>
    <i name="e_0_energy">   -114.00241880 </i>
   </energy>
  </scstep>
  <scstep>
   <time name="diag">    0.08    0.08</time>
   <time name="diis">    0.28    0.28</time>
   <time name="orth">    0.01    0.01</time>
   <time name="total">    0.61    0.63</time>
   <energy>
    <i name="e_fr_energy">   -114.00322548 </i>
    <i name="e_wo_entrp">   -113.99673716 </i>
    <i name="e_0_energy">   -113.99998132 </i>
   </energy>
  </scstep>
  <scstep>
   <time name="diag">    0.08    0.08</time>
   <time name="diis">    0.27    0.27</time>
   <time name="orth">    0.01    0.01</time>
   <time name="total">    0.60    0.61</time>
   <energy>
    <i name="e_fr_energy">   -113.99386658 </i>
    <i name="e_wo_entrp">   -113.98437993 </i>
    <i name="e_0_energy">   -113.98912326 </i>
   </energy>
  </scstep>
  <scstep>
   <time name="diag">    0.08    0.08</time>
   <time name="diis">    0.27    0.27</time>
   <time name="orth">    0.01    0.01</time>
   <time name="total">    0.60    0.61</time>
   <energy>
    <i name="e_fr_energy">   -113.99326473 </i>
    <i name="e_wo_entrp">   -113.98654230 </i>
    <i name="e_0_energy">   -113.98990351 </i>
   </energy>
  </scstep>
  <scstep>
   <time name="diag">    0.08    0.08</time>
   <time name="diis">    0.28    0.28</time>
   <time name="orth">    0.01    0.01</time>
   <time name="total">    0.61    0.62</time>
   <energy>
    <i name="e_fr_energy">   -113.99338836 </i>
    <i name="e_wo_entrp">   -113.98642163 </i>
    <i name="e_0_energy">   -113.98990499 </i>
   </energy>
  </scstep>
  <scstep>
   <time name="diag">    0.08    0.08</time>
   <time name="diis">    0.27    0.27</time>
   <time name="orth">    0.01    0.01</time>
   <time name="total">    0.60    0.62</time>
   <energy>
    <i name="e_fr_energy">   -113.99285437 </i>
    <i name="e_wo_entrp">   -113.98517580 </i>
    <i name="e_0_energy">   -113.98901509 </i>
   </energy>
  </scstep>
  <scstep>
   <time name="diag">    0.08    0.08</time>
   <time name="diis">    0.27    0.27</time>
   <time name="orth">    0.01    0.01</time>
   <time name="total">    0.60    0.62</time>
   <energy>
    <i name="e_fr_energy">   -113.99283208 </i>
    <i name="e_wo_entrp">   -113.98506704 </i>
    <i name="e_0_energy">   -113.98894956 </i>
   </energy>
  </scstep>
  <scstep>
   <time name="diag">    0.08    0.08</time>
   <time name="diis">    0.25    0.25</time>
   <time name="orth">    0.01    0.01</time>
   <time name="total">    0.58    0.59</time>
   <energy>
    <i name="e_fr_energy">   -113.99283341 </i>
    <i name="e_wo_entrp">   -113.98513380 </i>
    <i name="e_0_energy">   -113.98898361 </i>
   </energy>
  </scstep>
  <scstep>
   <time name="diag">    0.08    0.08</time>
   <time name="diis">    0.23    0.23</time>
   <time name="orth">    0.01    0.01</time>
   <time name="total">    0.79    0.81</time>
   <energy>
    <i name="e_fr_energy">   -113.99282778 </i>
    <i name="e_wo_entrp">   -113.98503908 </i>
    <i name="e_0_energy">   -113.98893343 </i>
   </energy>
  </scstep>
  <scstep>
   <time name="diag">    0.08    0.08</time>
   <time name="diis">    0.19    0.19</time>
   <time name="orth">    0.01    0.01</time>
   <time name="total">    0.38    0.40</time>
   <energy>
    <i name="alphaZ">     63.13679939 </i>
    <i name="ewald">  -2218.09259964 </i>
    <i name="hartreedc">   -506.54594559 </i>
    <i name="XCdc">      3.17353189 </i>
    <i name="pawpsdc">   9797.64042450 </i>
    <i name="pawaedc">  -9610.45813137 </i>
    <i name="eentropy">     -0.00780843 </i>
    <i name="bandstr">     83.95111660 </i>
    <i name="atom">   2273.20978491 </i>
    <i name="e_fr_energy">   -113.99282775 </i>
    <i name="e_wo_entrp">   -113.98501932 </i>
    <i name="e_0_energy">   -113.98892353 </i>
   </energy>
  </scstep>
  <structure>
   <crystal>
    <varray name="basis" >
     <v>       3.14465372       0.00000000       0.00000000 </v>
     <v>      -1.57232686       2.72335001       0.00000000 </v>
     <v>       0.00000000       0.00000000      20.11565310 </v>
    </varray>
    <i name="volume">    172.27030701 </i>
    <varray name="rec_basis" >
     <v>       0.31800004       0.18359741       0.00000000 </v>
     <v>       0.00000000       0.36719481       0.00000000 </v>
     <v>       0.00000000       0.00000000       0.04971253 </v>
    </varray>
   </crystal>
   <varray name="positions" >
    <v>       0.33333333       0.66666667       0.24820937 </v>
    <v>       0.33333333       0.66666667       0.74897406 </v>
    <v>       0.66666667       0.33333333       0.38063888 </v>
    <v>       0.66666667       0.33333333       0.87289887 </v>
    <v>       0.33333333       0.66666667       0.99486054 </v>
    <v>       0.33333333       0.66666667       0.50322227 </v>
    <v>       0.66666667       0.33333333       0.12073107 </v>
    <v>       0.66666667       0.33333333       0.62271390 </v>
    <v>       0.33333333       0.66666667       0.60227711 </v>
    <v>       0.33333333       0.66666667       0.84541399 </v>
    <v>       0.66666667       0.33333333       0.22147051 </v>
    <v>       0.66666667       0.33333333       0.46577338 </v>
    <v>       0.33333333       0.66666667       0.08835858 </v>
    <v>       0.33333333       0.66666667       0.34021866 </v>
    <v>       0.66666667       0.33333333       0.73052836 </v>
    <v>       0.66666667       0.33333333       0.96371045 </v>
   </varray>
  </structure>
  <varray name="forces" >
   <v>       0.00000000       0.00000000      -0.00552592 </v>
   <v>       0.00000000       0.00000000       0.00584496 </v>
   <v>       0.00000000       0.00000000       0.00976625 </v>
   <v>       0.00000000       0.00000000      -0.00294720 </v>
   <v>       0.00000000       0.00000000       0.00222110 </v>
   <v>       0.00000000       0.00000000       0.00765219 </v>
   <v>       0.00000000       0.00000000      -0.01024379 </v>
   <v>       0.00000000       0.00000000       0.00631209 </v>
   <v>       0.00000000       0.00000000       0.00327787 </v>
   <v>       0.00000000       0.00000000      -0.00697555 </v>
   <v>       0.00000000       0.00000000       0.00296530 </v>
   <v>       0.00000000       0.00000000      -0.00089244 </v>
   <v>       0.00000000       0.00000000      -0.00115489 </v>
   <v>       0.00000000       0.00000000      -0.00479678 </v>
   <v>       0.00000000       0.00000000      -0.00775311 </v>
   <v>       0.00000000       0.00000000       0.00224992 </v>
  </varray>
  <varray name="stress" >
   <v>       0.07231146       0.00000000       0.00000000 </v>
   <v>       0.00000000       0.07231146       0.00000000 </v>
   <v>       0.00000000       0.00000000       0.00152034 </v>
  </varray>
  <energy>
   <i name="e_fr_energy">   -113.99282775 </i>
   <i name="e_wo_entrp">   -113.98892353 </i>
   <i name="e_0_energy">     -0.00780843 </i>
  </energy>
  <time name="totalsc">   15.87   16.48</time>
  <eigenvalues>
   <array>
    <dimension dim="1">band</dimension>
    <dimension dim="2">kpoint</dimension>
    <dimension dim="3">spin</dimension>
    <field>eigene</field>
    <field>occ</field>
    <set>
     <set comment="spin 1">
      <set comment="kpoint 1">
       <r>  -10.0953    1.0000 </r>
       <r>   -9.8102    1.0000 </r>
       <r>   -9.6249    1.0000 </r>
       <r>   -8.3019    1.0000 </r>
       <r>   -6.3924    1.0000 </r>
       <r>   -6.1802    1.0000 </r>
       <r>   -3.7183    1.0000 </r>
       <r>   -2.5057    1.0000 </r>
       <r>   -0.6769    1.0000 </r>
       <r>    0.2631    1.0000 </r>
       <r>    1.2528    1.0000 </r>
       <r>    2.9015    1.0000 </r>
       <r>    3.4451    1.0000 </r>
       <r>    3.4451    1.0000 </r>
       <r>    3.4503    1.0000 </r>
       <r>    4.3020    1.0000 </r>
       <r>    4.3020    1.0000 </r>
       <r>    4.3705    1.0000 </r>
       <r>    4.3705    1.0000 </r>
       <r>    5.2183    1.0000 </r>
       <r>    5.2843    1.0000 </r>
       <r>    5.2843    1.0000 </r>
       <r>    5.5243    1.0000 </r>
       <r>    6.0734    1.0000 </r>
       <r>    6.0734    1.0000 </r>
       <r>    6.4465    1.0000 </r>
       <r>    6.4465    1.0000 </r>
       <r>    7.7064    1.0000 </r>
       <r>    9.2480    1.0000 </r>
       <r>    9.4753    0.9638 </r>
       <r>    9.4753    0.9638 </r>
       <r>    9.7009    0.0817 </r>
       <r>    9.8702    0.0001 </r>
       <r>    9.8702    0.0001 </r>
       <r>   10.8643    0.0000 </r>
       <r>   11.4795    0.0000 </r>
       <r>   12.4459    0.0000 </r>
       <r>   12.6785    0.0000 </r>
       <r>   13.2360    0.0000 </r>
       <r>   13.2456    0.0000 </r>
       <r>   13.8694    0.0000 </r>
       <r>   13.9931    0.0000 </r>
       <r>   14.6048    0.0000 </r>
       <r>   15.8138    0.0000 </r>
      </set>
      <set comment="kpoint 2">
       <r>   -9.8340    1.0000 </r>
       <r>   -9.5675    1.0000 </r>
       <r>   -9.3971    1.0000 </r>
       <r>   -8.0927    1.0000 </r>
       <r>   -6.1189    1.0000 </r>
       <r>   -5.8918    1.0000 </r>
       <r>   -3.4532    1.0000 </r>
       <r>   -2.2303    1.0000 </r>
       <r>   -0.4411    1.0000 </r>
       <r>    0.4282    1.0000 </r>
       <r>    1.3277    1.0000 </r>
       <r>    2.0784    1.0000 </r>
       <r>    2.5199    1.0000 </r>
       <r>    3.1558    1.0000 </r>
       <r>    3.1654    1.0000 </r>
       <r>    3.3787    1.0000 </r>
       <r>    3.9223    1.0000 </r>
       <r>    4.0156    1.0000 </r>
       <r>    4.1193    1.0000 </r>
       <r>    4.4537    1.0000 </r>
       <r>    4.7746    1.0000 </r>
       <r>    5.0795    1.0000 </r>
       <r>    5.0887    1.0000 </r>
       <r>    5.5359    1.0000 </r>
       <r>    5.7320    1.0000 </r>
       <r>    5.7968    1.0000 </r>
       <r>    6.1069    1.0000 </r>
       <r>    7.7476    1.0000 </r>
       <r>    8.2397    1.0000 </r>
       <r>    8.8016    1.0000 </r>
       <r>    9.1731    1.0000 </r>
       <r>    9.6644    0.1901 </r>
       <r>   10.1981    0.0000 </r>
       <r>   10.5531    0.0000 </r>
       <r>   11.3400    0.0000 </r>
       <r>   12.0858    0.0000 </r>
       <r>   12.4213    0.0000 </r>
       <r>   12.7000    0.0000 </r>
       <r>   13.1900    0.0000 </r>
       <r>   13.4804    0.0000 </r>
       <r>   13.7758    0.0000 </r>
       <r>   14.1554    0.0000 </r>
       <r>   14.5213    0.0000 </r>
       <r>   15.1664    0.0000 </r>
      </set>
      <set comment="kpoint 3">
       <r>   -9.1322    1.0000 </r>
       <r>   -8.9272    1.0000 </r>
       <r>   -8.8034    1.0000 </r>
       <r>   -7.5707    1.0000 </r>
       <r>   -5.3965    1.0000 </r>
       <r>   -5.0536    1.0000 </r>
       <r>   -2.7883    1.0000 </r>
       <r>   -1.5180    1.0000 </r>
       <r>   -0.5589    1.0000 </r>
       <r>    0.4741    1.0000 </r>
       <r>    0.5335    1.0000 </r>
       <r>    0.9491    1.0000 </r>
       <r>    1.0237    1.0000 </r>
       <r>    2.0585    1.0000 </r>
       <r>    2.2972    1.0000 </r>
       <r>    2.6260    1.0000 </r>
       <r>    2.6997    1.0000 </r>
       <r>    2.9179    1.0000 </r>
       <r>    3.4638    1.0000 </r>
       <r>    3.6301    1.0000 </r>
       <r>    4.0281    1.0000 </r>
       <r>    4.6462    1.0000 </r>
       <r>    4.6624    1.0000 </r>
       <r>    5.2052    1.0000 </r>
       <r>    5.2823    1.0000 </r>
       <r>    5.3655    1.0000 </r>
       <r>    5.5035    1.0000 </r>
       <r>    6.2075    1.0000 </r>
       <r>    7.0565    1.0000 </r>
       <r>    7.6895    1.0000 </r>
       <r>    8.6066    1.0000 </r>
       <r>    9.2214    1.0000 </r>
       <r>   10.0693    0.0000 </r>
       <r>   10.5265    0.0000 </r>
       <r>   11.0608    0.0000 </r>
       <r>   11.3859    0.0000 </r>
       <r>   11.6522    0.0000 </r>
       <r>   12.4279    0.0000 </r>
       <r>   13.0089    0.0000 </r>
       <r>   13.3308    0.0000 </r>
       <r>   13.6875    0.0000 </r>
       <r>   13.9948    0.0000 </r>
       <r>   14.5066    0.0000 </r>
       <r>   14.8315    0.0000 </r>
      </set>
      <set comment="kpoint 4">
       <r>   -8.3641    1.0000 </r>
       <r>   -8.2567    1.0000 </r>
       <r>   -8.1949    1.0000 </r>
       <r>   -7.0933    1.0000 </r>
       <r>   -4.6390    1.0000 </r>
       <r>   -3.9718    1.0000 </r>
       <r>   -2.3454    1.0000 </r>
       <r>   -1.8471    1.0000 </r>
       <r>   -0.7972    1.0000 </r>
       <r>   -0.6017    1.0000 </r>
       <r>   -0.3425    1.0000 </r>
       <r>   -0.0329    1.0000 </r>
       <r>    0.4150    1.0000 </r>
       <r>    1.1319    1.0000 </r>
       <r>    1.7878    1.0000 </r>
       <r>    2.1172    1.0000 </r>
       <r>    2.2565    1.0000 </r>
       <r>    3.0862    1.0000 </r>
       <r>    3.2907    1.0000 </r>
       <r>    3.3899    1.0000 </r>
       <r>    3.7464    1.0000 </r>
       <r>    4.1029    1.0000 </r>
       <r>    4.3265    1.0000 </r>
       <r>    4.3425    1.0000 </r>
       <r>    4.9253    1.0000 </r>
       <r>    4.9795    1.0000 </r>
       <r>    5.1307    1.0000 </r>
       <r>    5.4140    1.0000 </r>
       <r>    6.1818    1.0000 </r>
       <r>    7.4786    1.0000 </r>
       <r>    8.2248    1.0000 </r>
       <r>    8.8982    1.0000 </r>
       <r>    9.4793    0.9591 </r>
       <r>    9.7541    0.0159 </r>
       <r>   10.3089    0.0000 </r>
       <r>   10.6971    0.0000 </r>
       <r>   10.9423    0.0000 </r>
       <r>   11.2429    0.0000 </r>
       <r>   12.7420    0.0000 </r>
       <r>   12.9958    0.0000 </r>
       <r>   13.1388    0.0000 </r>
       <r>   13.9026    0.0000 </r>
       <r>   14.2995    0.0000 </r>
       <r>   14.6772    0.0000 </r>
      </set>
      <set comment="kpoint 5">
       <r>   -9.3493    1.0000 </r>
       <r>   -9.1230    1.0000 </r>
       <r>   -8.9836    1.0000 </r>
       <r>   -7.7245    1.0000 </r>
       <r>   -5.6178    1.0000 </r>
       <r>   -5.3245    1.0000 </r>
       <r>   -2.9797    1.0000 </r>
       <r>   -1.7242    1.0000 </r>
       <r>   -0.2574    1.0000 </r>
       <r>    0.5417    1.0000 </r>
       <r>    0.9474    1.0000 </r>
       <r>    1.2163    1.0000 </r>
       <r>    1.5387    1.0000 </r>
       <r>    2.2853    1.0000 </r>
       <r>    2.6104    1.0000 </r>
       <r>    2.7850    1.0000 </r>
       <r>    2.9278    1.0000 </r>
       <r>    3.1233    1.0000 </r>
       <r>    3.4195    1.0000 </r>
       <r>    3.7674    1.0000 </r>
       <r>    4.1789    1.0000 </r>
       <r>    4.5965    1.0000 </r>
       <r>    4.6645    1.0000 </r>
       <r>    5.0026    1.0000 </r>
       <r>    5.2167    1.0000 </r>
       <r>    5.4583    1.0000 </r>
       <r>    5.5990    1.0000 </r>
       <r>    6.9704    1.0000 </r>
       <r>    7.4775    1.0000 </r>
       <r>    7.7493    1.0000 </r>
       <r>    8.5519    1.0000 </r>
       <r>    8.9440    1.0000 </r>
       <r>   11.2839    0.0000 </r>
       <r>   11.5812    0.0000 </r>
       <r>   11.6393    0.0000 </r>
       <r>   12.0705    0.0000 </r>
       <r>   12.2940    0.0000 </r>
       <r>   12.4296    0.0000 </r>
       <r>   12.6810    0.0000 </r>
       <r>   13.1475    0.0000 </r>
       <r>   13.5792    0.0000 </r>
       <r>   14.1545    0.0000 </r>
       <r>   14.4891    0.0000 </r>
       <r>   15.0027    0.0000 </r>
      </set>
      <set comment="kpoint 6">
       <r>   -8.5789    1.0000 </r>
       <r>   -8.4378    1.0000 </r>
       <r>   -8.3579    1.0000 </r>
       <r>   -7.2091    1.0000 </r>
       <r>   -4.8304    1.0000 </r>
       <r>   -4.3059    1.0000 </r>
       <r>   -2.3696    1.0000 </r>
       <r>   -1.3725    1.0000 </r>
       <r>   -0.7159    1.0000 </r>
       <r>   -0.0313    1.0000 </r>
       <r>    0.1186    1.0000 </r>
       <r>    0.5393    1.0000 </r>
       <r>    0.8505    1.0000 </r>
       <r>    1.3650    1.0000 </r>
       <r>    1.6843    1.0000 </r>
       <r>    1.7580    1.0000 </r>
       <r>    2.1708    1.0000 </r>
       <r>    2.5366    1.0000 </r>
       <r>    2.7596    1.0000 </r>
       <r>    3.3484    1.0000 </r>
       <r>    3.5978    1.0000 </r>
       <r>    4.0201    1.0000 </r>
       <r>    4.2998    1.0000 </r>
       <r>    4.4066    1.0000 </r>
       <r>    4.6132    1.0000 </r>
       <r>    4.7823    1.0000 </r>
       <r>    5.4202    1.0000 </r>
       <r>    5.6624    1.0000 </r>
       <r>    6.4357    1.0000 </r>
       <r>    7.4401    1.0000 </r>
       <r>    7.8181    1.0000 </r>
       <r>    8.1941    1.0000 </r>
       <r>   10.8005    0.0000 </r>
       <r>   11.0831    0.0000 </r>
       <r>   11.4975    0.0000 </r>
       <r>   11.7075    0.0000 </r>
       <r>   11.7602    0.0000 </r>
       <r>   12.2186    0.0000 </r>
       <r>   13.0597    0.0000 </r>
       <r>   13.1702    0.0000 </r>
       <r>   13.4272    0.0000 </r>
       <r>   13.9730    0.0000 </r>
       <r>   14.1033    0.0000 </r>
       <r>   14.3623    0.0000 </r>
      </set>
      <set comment="kpoint 7">
       <r>   -8.1285    1.0000 </r>
       <r>   -8.0556    1.0000 </r>
       <r>   -8.0147    1.0000 </r>
       <r>   -6.9608    1.0000 </r>
       <r>   -4.3960    1.0000 </r>
       <r>   -3.5968    1.0000 </r>
       <r>   -2.1518    1.0000 </r>
       <r>   -1.7596    1.0000 </r>
       <r>   -0.9265    1.0000 </r>
       <r>   -0.6276    1.0000 </r>
       <r>   -0.1924    1.0000 </r>
       <r>    0.0374    1.0000 </r>
       <r>    0.3701    1.0000 </r>
       <r>    1.0887    1.0000 </r>
       <r>    1.2524    1.0000 </r>
       <r>    1.8104    1.0000 </r>
       <r>    2.1910    1.0000 </r>
       <r>    2.2850    1.0000 </r>
       <r>    2.4487    1.0000 </r>
       <r>    3.2590    1.0000 </r>
       <r>    3.6214    1.0000 </r>
       <r>    3.6938    1.0000 </r>
       <r>    3.9384    1.0000 </r>
       <r>    4.1342    1.0000 </r>
       <r>    4.3113    1.0000 </r>
       <r>    4.5412    1.0000 </r>
       <r>    4.9700    1.0000 </r>
       <r>    5.4422    1.0000 </r>
       <r>    6.2403    1.0000 </r>
       <r>    7.0646    1.0000 </r>
       <r>    7.7037    1.0000 </r>
       <r>    7.9482    1.0000 </r>
       <r>   10.4504    0.0000 </r>
       <r>   10.5748    0.0000 </r>
       <r>   11.0844    0.0000 </r>
       <r>   11.3184    0.0000 </r>
       <r>   11.4292    0.0000 </r>
       <r>   11.8777    0.0000 </r>
       <r>   12.9034    0.0000 </r>
       <r>   13.2069    0.0000 </r>
       <r>   13.3588    0.0000 </r>
       <r>   14.0510    0.0000 </r>
       <r>   14.2112    0.0000 </r>
       <r>   14.4106    0.0000 </r>
      </set>
      <set comment="kpoint 8">
       <r>   -8.0434    1.0000 </r>
       <r>   -7.9794    1.0000 </r>
       <r>   -7.9463    1.0000 </r>
       <r>   -6.9051    1.0000 </r>
       <r>   -4.2690    1.0000 </r>
       <r>   -3.4616    1.0000 </r>
       <r>   -1.9747    1.0000 </r>
       <r>   -1.3928    1.0000 </r>
       <r>   -0.5453    1.0000 </r>
       <r>   -0.2514    1.0000 </r>
       <r>   -0.0136    1.0000 </r>
       <r>    0.1108    1.0000 </r>
       <r>    0.3556    1.0000 </r>
       <r>    0.8003    1.0000 </r>
       <r>    0.8870    1.0000 </r>
       <r>    1.1737    1.0000 </r>
       <r>    1.6122    1.0000 </r>
       <r>    2.0652    1.0000 </r>
       <r>    2.4339    1.0000 </r>
       <r>    2.5959    1.0000 </r>
       <r>    2.7573    1.0000 </r>
       <r>    3.2553    1.0000 </r>
       <r>    3.8250    1.0000 </r>
       <r>    3.9939    1.0000 </r>
       <r>    4.5556    1.0000 </r>
       <r>    4.7866    1.0000 </r>
       <r>    5.2762    1.0000 </r>
       <r>    5.3809    1.0000 </r>
       <r>    5.7925    1.0000 </r>
       <r>    6.4273    1.0000 </r>
       <r>    7.0213    1.0000 </r>
       <r>    7.8569    1.0000 </r>
       <r>   10.6203    0.0000 </r>
       <r>   11.2944    0.0000 </r>
       <r>   11.7730    0.0000 </r>
       <r>   12.1378    0.0000 </r>
       <r>   12.7986    0.0000 </r>
       <r>   12.9907    0.0000 </r>
       <r>   13.3529    0.0000 </r>
       <r>   13.4540    0.0000 </r>
       <r>   13.6342    0.0000 </r>
       <r>   13.9387    0.0000 </r>
       <r>   14.1002    0.0000 </r>
       <r>   14.2662    0.0000 </r>
      </set>
     </set>
    </set>
   </array>
  </eigenvalues>
  <separator name="orbital magnetization" >
   <v name="MAGDIPOLOUT">      0.00000000      0.00000000      0.00000000</v>
  </separator>
  <dos>
   <i name="efermi">      9.60231012 </i>
   <total>
    <array>
     <dimension dim="1">gridpoints</dimension>
     <dimension dim="2">spin</dimension>
     <field>energy</field>
     <field>total</field>
     <field>integrated</field>
     <set>
      <set comment="spin 1">
       <r>   -11.3907     0.0000     0.0000 </r>
       <r>   -11.2957     0.0000     0.0000 </r>
       <r>   -11.2007     0.0000     0.0000 </r>
       <r>   -11.1057     0.0000     0.0000 </r>
       <r>   -11.0107     0.0000     0.0000 </r>
       <r>   -10.9157     0.0000     0.0000 </r>
       <r>   -10.8207     0.0000     0.0000 </r>
       <r>   -10.7257     0.0000     0.0000 </r>
       <r>   -10.6307     0.0000     0.0000 </r>
       <r>   -10.5357     0.0000     0.0000 </r>
       <r>   -10.4407     0.0000     0.0000 </r>
       <r>   -10.3457     0.0001     0.0000 </r>
       <r>   -10.2507     0.0059     0.0006 </r>
       <r>   -10.1557     0.0783     0.0080 </r>
       <r>   -10.0607     0.2128     0.0282 </r>
       <r>    -9.9657     0.2046     0.0477 </r>
       <r>    -9.8707     0.7897     0.1227 </r>
       <r>    -9.7757     1.4941     0.2646 </r>
       <r>    -9.6807     0.8316     0.3436 </r>
       <r>    -9.5857     1.1620     0.4540 </r>
       <r>    -9.4907     1.5929     0.6053 </r>
       <r>    -9.3957     2.0208     0.7973 </r>
       <r>    -9.3007     2.3872     1.0241 </r>
       <r>    -9.2057     1.4553     1.1624 </r>
       <r>    -9.1107     2.5314     1.4028 </r>
       <r>    -9.0157     2.8070     1.6695 </r>
       <r>    -8.9207     2.7781     1.9334 </r>
       <r>    -8.8257     2.3029     2.1522 </r>
       <r>    -8.7307     1.5176     2.2964 </r>
       <r>    -8.6357     1.3949     2.4289 </r>
       <r>    -8.5407     2.9757     2.7116 </r>
       <r>    -8.4457     4.1893     3.1096 </r>
       <r>    -8.3507     6.1522     3.6940 </r>
       <r>    -8.2557     5.3352     4.2009 </r>
       <r>    -8.1607     4.4737     4.6259 </r>
       <r>    -8.0657     6.2193     5.2167 </r>
       <r>    -7.9707     6.9319     5.8752 </r>
       <r>    -7.8757     3.6648     6.2234 </r>
       <r>    -7.7807     1.1774     6.3352 </r>
       <r>    -7.6857     1.4386     6.4719 </r>
       <r>    -7.5907     1.5444     6.6186 </r>
       <r>    -7.4957     1.2777     6.7400 </r>
       <r>    -7.4007     0.3704     6.7752 </r>
       <r>    -7.3057     0.4496     6.8179 </r>
       <r>    -7.2107     2.2097     7.0278 </r>
       <r>    -7.1157     3.0267     7.3153 </r>
       <r>    -7.0207     2.2810     7.5320 </r>
       <r>    -6.9257     2.5193     7.7714 </r>
       <r>    -6.8307     1.9441     7.9561 </r>
       <r>    -6.7357     0.4392     7.9978 </r>
       <r>    -6.6407     0.0231     8.0000 </r>
       <r>    -6.5457     0.0066     8.0006 </r>
       <r>    -6.4507     0.0815     8.0084 </r>
       <r>    -6.3557     0.2157     8.0288 </r>
       <r>    -6.2607     0.2251     8.0502 </r>
       <r>    -6.1657     0.8049     8.1267 </r>
       <r>    -6.0707     1.4530     8.2647 </r>
       <r>    -5.9757     0.8974     8.3500 </r>
       <r>    -5.8807     1.2014     8.4641 </r>
       <r>    -5.7857     0.9799     8.5572 </r>
       <r>    -5.6907     0.5339     8.6079 </r>
       <r>    -5.5957     1.2273     8.7245 </r>
       <r>    -5.5007     1.0378     8.8231 </r>
       <r>    -5.4057     1.4035     8.9565 </r>
       <r>    -5.3107     2.3015     9.1751 </r>
       <r>    -5.2157     1.2341     9.2923 </r>
       <r>    -5.1207     0.5812     9.3476 </r>
       <r>    -5.0257     1.2624     9.4675 </r>
       <r>    -4.9307     1.1751     9.5791 </r>
       <r>    -4.8357     2.1311     9.7816 </r>
       <r>    -4.7407     2.3945    10.0090 </r>
       <r>    -4.6457     1.5028    10.1518 </r>
       <r>    -4.5507     1.1744    10.2634 </r>
       <r>    -4.4557     0.8342    10.3426 </r>
       <r>    -4.3607     2.5614    10.5860 </r>
       <r>    -4.2657     4.3552    10.9997 </r>
       <r>    -4.1707     2.4437    11.2319 </r>
       <r>    -4.0757     0.5238    11.2816 </r>
       <r>    -3.9807     0.9882    11.3755 </r>
       <r>    -3.8857     1.1340    11.4832 </r>
       <r>    -3.7907     0.3441    11.5159 </r>
       <r>    -3.6957     0.4192    11.5557 </r>
       <r>    -3.6007     1.2728    11.6767 </r>
       <r>    -3.5057     2.2756    11.8928 </r>
       <r>    -3.4107     2.8092    12.1597 </r>
       <r>    -3.3157     1.2088    12.2746 </r>
       <r>    -3.2207     0.1162    12.2856 </r>
       <r>    -3.1257     0.0514    12.2905 </r>
       <r>    -3.0307     0.5565    12.3433 </r>
       <r>    -2.9357     1.3300    12.4697 </r>
       <r>    -2.8407     1.1682    12.5807 </r>
       <r>    -2.7457     1.3445    12.7084 </r>
       <r>    -2.6507     0.6487    12.7700 </r>
       <r>    -2.5557     0.1852    12.7876 </r>
       <r>    -2.4607     0.8328    12.8667 </r>
       <r>    -2.3657     3.2215    13.1728 </r>
       <r>    -2.2707     4.0389    13.5565 </r>
       <r>    -2.1757     2.8685    13.8290 </r>
       <r>    -2.0807     1.9527    14.0145 </r>
       <r>    -1.9857     1.4479    14.1520 </r>
       <r>    -1.8907     1.9017    14.3327 </r>
       <r>    -1.7957     2.6522    14.5846 </r>
       <r>    -1.7007     3.0732    14.8766 </r>
       <r>    -1.6057     1.6364    15.0320 </r>
       <r>    -1.5107     1.5210    15.1765 </r>
       <r>    -1.4157     3.0979    15.4708 </r>
       <r>    -1.3207     3.9689    15.8479 </r>
       <r>    -1.2257     1.4798    15.9885 </r>
       <r>    -1.1307     0.1244    16.0003 </r>
       <r>    -1.0357     0.1555    16.0151 </r>
       <r>    -0.9407     0.9827    16.1084 </r>
       <r>    -0.8457     1.9230    16.2911 </r>
       <r>    -0.7507     3.2486    16.5997 </r>
       <r>    -0.6557     5.0278    17.0774 </r>
       <r>    -0.5607     5.7400    17.6227 </r>
       <r>    -0.4657     4.3432    18.0353 </r>
       <r>    -0.3707     2.9276    18.3134 </r>
       <r>    -0.2757     3.6644    18.6615 </r>
       <r>    -0.1807     4.1718    19.0578 </r>
       <r>    -0.0857     3.7827    19.4172 </r>
       <r>     0.0093     6.5434    20.0388 </r>
       <r>     0.1043     6.9034    20.6946 </r>
       <r>     0.1993     4.3234    21.1054 </r>
       <r>     0.2943     2.1331    21.3080 </r>
       <r>     0.3893     4.5775    21.7429 </r>
       <r>     0.4843     7.3791    22.4439 </r>
       <r>     0.5793     7.2084    23.1287 </r>
       <r>     0.6743     2.9991    23.4136 </r>
       <r>     0.7693     1.8035    23.5849 </r>
       <r>     0.8643     5.0401    24.0637 </r>
       <r>     0.9593     6.3514    24.6671 </r>
       <r>     1.0543     5.0825    25.1499 </r>
       <r>     1.1493     5.0488    25.6296 </r>
       <r>     1.2443     5.6003    26.1616 </r>
       <r>     1.3393     5.4364    26.6781 </r>
       <r>     1.4343     4.0560    27.0634 </r>
       <r>     1.5293     2.3169    27.2835 </r>
       <r>     1.6243     3.4768    27.6138 </r>
       <r>     1.7193     5.7599    28.1610 </r>
       <r>     1.8143     6.4874    28.7773 </r>
       <r>     1.9093     3.1183    29.0735 </r>
       <r>     2.0043     1.9402    29.2578 </r>
       <r>     2.0993     5.7104    29.8003 </r>
       <r>     2.1943     8.0897    30.5688 </r>
       <r>     2.2893     7.8294    31.3126 </r>
       <r>     2.3843     5.5307    31.8381 </r>
       <r>     2.4793     5.2187    32.3338 </r>
       <r>     2.5743     7.4672    33.0432 </r>
       <r>     2.6693     7.4687    33.7527 </r>
       <r>     2.7643     7.1772    34.4346 </r>
       <r>     2.8593     5.7967    34.9853 </r>
       <r>     2.9543     3.7996    35.3462 </r>
       <r>     3.0493     2.9904    35.6303 </r>
       <r>     3.1442     4.8214    36.0883 </r>
       <r>     3.2392     6.4706    36.7030 </r>
       <r>     3.3342     7.9028    37.4538 </r>
       <r>     3.4292     8.5991    38.2707 </r>
       <r>     3.5242     5.9077    38.8319 </r>
       <r>     3.6192     5.8829    39.3908 </r>
       <r>     3.7142     6.6207    40.0198 </r>
       <r>     3.8092     5.3338    40.5265 </r>
       <r>     3.9042     4.8054    40.9830 </r>
       <r>     3.9992     7.7614    41.7203 </r>
       <r>     4.0942     9.4390    42.6170 </r>
       <r>     4.1892     7.0475    43.2866 </r>
       <r>     4.2842     6.6146    43.9149 </r>
       <r>     4.3792     9.1634    44.7855 </r>
       <r>     4.4742     7.4030    45.4887 </r>
       <r>     4.5692     7.1852    46.1713 </r>
       <r>     4.6642     9.5256    47.0763 </r>
       <r>     4.7592     8.1868    47.8540 </r>
       <r>     4.8542     6.2151    48.4444 </r>
       <r>     4.9492     5.0400    48.9232 </r>
       <r>     5.0442     6.3178    49.5234 </r>
       <r>     5.1392     6.1848    50.1110 </r>
       <r>     5.2342     6.3609    50.7153 </r>
       <r>     5.3292     7.3509    51.4136 </r>
       <r>     5.4242     9.6148    52.3270 </r>
       <r>     5.5192     9.3903    53.2191 </r>
       <r>     5.6142     6.2448    53.8123 </r>
       <r>     5.7092     5.4757    54.3325 </r>
       <r>     5.8042     4.8556    54.7938 </r>
       <r>     5.8992     2.4411    55.0257 </r>
       <r>     5.9942     0.6316    55.0857 </r>
       <r>     6.0892     1.6922    55.2465 </r>
       <r>     6.1842     3.9185    55.6187 </r>
       <r>     6.2792     4.0391    56.0025 </r>
       <r>     6.3742     2.8627    56.2744 </r>
       <r>     6.4692     4.3185    56.6847 </r>
       <r>     6.5642     2.3872    56.9115 </r>
       <r>     6.6592     0.2811    56.9382 </r>
       <r>     6.7542     0.0096    56.9391 </r>
       <r>     6.8492     0.1353    56.9519 </r>
       <r>     6.9442     1.3937    57.0843 </r>
       <r>     7.0392     4.1357    57.4772 </r>
       <r>     7.1342     3.7067    57.8294 </r>
       <r>     7.2292     0.8965    57.9145 </r>
       <r>     7.3242     0.3772    57.9504 </r>
       <r>     7.4192     2.6876    58.2057 </r>
       <r>     7.5142     4.9882    58.6795 </r>
       <r>     7.6092     2.8279    58.9482 </r>
       <r>     7.7042     4.1636    59.3437 </r>
       <r>     7.7992     7.0216    60.0108 </r>
       <r>     7.8942     5.7217    60.5544 </r>
       <r>     7.9892     2.7834    60.8188 </r>
       <r>     8.0842     1.1676    60.9297 </r>
       <r>     8.1792     2.9883    61.2136 </r>
       <r>     8.2742     4.8957    61.6787 </r>
       <r>     8.3692     1.9334    61.8624 </r>
       <r>     8.4642     0.4906    61.9090 </r>
       <r>     8.5592     1.7132    62.0717 </r>
       <r>     8.6542     2.3243    62.2925 </r>
       <r>     8.7492     1.3685    62.4225 </r>
       <r>     8.8442     2.0690    62.6191 </r>
       <r>     8.9392     2.9362    62.8980 </r>
       <r>     9.0342     1.8909    63.0777 </r>
       <r>     9.1292     1.2022    63.1919 </r>
       <r>     9.2242     2.5168    63.4310 </r>
       <r>     9.3192     1.8335    63.6051 </r>
       <r>     9.4142     0.9047    63.6911 </r>
       <r>     9.5092     1.7234    63.8548 </r>
       <r>     9.6042     1.5601    64.0030 </r>
       <r>     9.6992     2.0941    64.2020 </r>
       <r>     9.7942     2.2912    64.4196 </r>
       <r>     9.8892     1.1977    64.5334 </r>
       <r>     9.9842     0.6512    64.5953 </r>
       <r>    10.0792     1.3016    64.7189 </r>
       <r>    10.1742     1.8689    64.8965 </r>
       <r>    10.2692     2.0780    65.0939 </r>
       <r>    10.3642     1.9804    65.2820 </r>
       <r>    10.4592     2.4671    65.5164 </r>
       <r>    10.5542     4.6711    65.9601 </r>
       <r>    10.6492     5.1380    66.4483 </r>
       <r>    10.7442     3.7827    66.8076 </r>
       <r>    10.8392     3.5992    67.1495 </r>
       <r>    10.9342     2.8274    67.4181 </r>
       <r>    11.0292     3.6690    67.7667 </r>
       <r>    11.1242     5.5505    68.2940 </r>
       <r>    11.2192     4.3805    68.7101 </r>
       <r>    11.3142     6.2852    69.3072 </r>
       <r>    11.4092     7.0400    69.9760 </r>
       <r>    11.5042     5.8267    70.5296 </r>
       <r>    11.5992     5.4281    71.0452 </r>
       <r>    11.6942     6.9159    71.7022 </r>
       <r>    11.7892     7.5740    72.4218 </r>
       <r>    11.8842     4.3064    72.8309 </r>
       <r>    11.9792     1.8178    73.0036 </r>
       <r>    12.0742     2.7876    73.2684 </r>
       <r>    12.1692     4.6819    73.7132 </r>
       <r>    12.2642     4.6692    74.1567 </r>
       <r>    12.3592     3.8716    74.5245 </r>
       <r>    12.4542     4.4653    74.9487 </r>
       <r>    12.5492     2.6991    75.2051 </r>
       <r>    12.6442     1.9142    75.3870 </r>
       <r>    12.7392     4.3091    75.7964 </r>
       <r>    12.8342     4.0702    76.1830 </r>
       <r>    12.9292     3.6654    76.5312 </r>
       <r>    13.0242     6.3762    77.1370 </r>
       <r>    13.1192     8.5356    77.9479 </r>
       <r>    13.2142     9.1664    78.8187 </r>
       <r>    13.3092     6.6839    79.4536 </r>
       <r>    13.4042     6.9918    80.1179 </r>
       <r>    13.4992     6.8661    80.7701 </r>
       <r>    13.5942     4.4531    81.1932 </r>
       <r>    13.6892     3.7903    81.5533 </r>
       <r>    13.7842     3.0694    81.8448 </r>
       <r>    13.8792     3.3765    82.1656 </r>
       <r>    13.9742     6.6183    82.7944 </r>
       <r>    14.0692     8.6381    83.6150 </r>
       <r>    14.1642     8.7491    84.4461 </r>
       <r>    14.2592     6.8441    85.0963 </r>
       <r>    14.3542     6.0440    85.6705 </r>
       <r>    14.4492     5.9202    86.2329 </r>
       <r>    14.5442     5.1991    86.7268 </r>
       <r>    14.6392     3.0507    87.0166 </r>
       <r>    14.7342     1.8450    87.1919 </r>
       <r>    14.8292     1.5763    87.3417 </r>
       <r>    14.9242     1.4441    87.4789 </r>
       <r>    15.0192     1.4648    87.6180 </r>
       <r>    15.1142     1.4588    87.7566 </r>
       <r>    15.2092     1.4257    87.8920 </r>
       <r>    15.3042     0.6407    87.9529 </r>
       <r>    15.3992     0.0649    87.9591 </r>
       <r>    15.4942     0.0013    87.9592 </r>
       <r>    15.5892     0.0003    87.9592 </r>
       <r>    15.6842     0.0141    87.9605 </r>
       <r>    15.7792     0.1199    87.9719 </r>
       <r>    15.8742     0.2110    87.9920 </r>
       <r>    15.9692     0.0783    87.9994 </r>
       <r>    16.0642     0.0059    88.0000 </r>
       <r>    16.1592     0.0001    88.0000 </r>
       <r>    16.2542     0.0000    88.0000 </r>
       <r>    16.3492     0.0000    88.0000 </r>
       <r>    16.4442     0.0000    88.0000 </r>
       <r>    16.5392     0.0000    88.0000 </r>
       <r>    16.6342     0.0000    88.0000 </r>
       <r>    16.7292     0.0000    88.0000 </r>
       <r>    16.8242     0.0000    88.0000 </r>
       <r>    16.9192     0.0000    88.0000 </r>
       <r>    17.0142     0.0000    88.0000 </r>
       <r>    17.1092     0.0000    88.0000 </r>
      </set>
     </set>
    </array>
   </total>
  </dos>
 </calculation>
 <structure name="finalpos" >
  <crystal>
   <varray name="basis" >
    <v>       3.14465372       0.00000000       0.00000000 </v>
    <v>      -1.57232686       2.72335001       0.00000000 </v>
    <v>       0.00000000       0.00000000      20.11565310 </v>
   </varray>
   <i name="volume">    172.27030701 </i>
   <varray name="rec_basis" >
    <v>       0.31800004       0.18359741       0.00000000 </v>
    <v>       0.00000000       0.36719481       0.00000000 </v>
    <v>       0.00000000       0.00000000       0.04971253 </v>
   </varray>
  </crystal>
  <varray name="positions" >
   <v>       0.33333333       0.66666667       0.24820937 </v>
   <v>       0.33333333       0.66666667       0.74897406 </v>
   <v>       0.66666667       0.33333333       0.38063888 </v>
   <v>       0.66666667       0.33333333       0.87289887 </v>
   <v>       0.33333333       0.66666667       0.99486054 </v>
   <v>       0.33333333       0.66666667       0.50322227 </v>
   <v>       0.66666667       0.33333333       0.12073107 </v>
   <v>       0.66666667       0.33333333       0.62271390 </v>
   <v>       0.33333333       0.66666667       0.60227711 </v>
   <v>       0.33333333       0.66666667       0.84541399 </v>
   <v>       0.66666667       0.33333333       0.22147051 </v>
   <v>       0.66666667       0.33333333       0.46577338 </v>
   <v>       0.33333333       0.66666667       0.08835858 </v>
   <v>       0.33333333       0.66666667       0.34021866 </v>
   <v>       0.66666667       0.33333333       0.73052836 </v>
   <v>       0.66666667       0.33333333       0.96371045 </v>
  </varray>
 </structure>
</modeling>
