<?xml version="1.0" encoding="ISO-8859-1"?>
<modeling>
 <generator>
  <i name="program" type="string">vasp </i>
  <i name="version" type="string">5.3.5  </i>
  <i name="subversion" type="string">31Mar14 (build Jun 20 2014 13:15:13) complex                          parallel </i>
  <i name="platform" type="string">LinuxIFC </i>
  <i name="date" type="string">2025 11 27 </i>
  <i name="time" type="string">08:47:29 </i>
 </generator>
 <incar>
  <i type="string" name="PREC">accurate</i>
  <i type="int" name="IALGO">    68</i>
  <i type="logical" name="ADDGRID"> T  </i>
  <i type="int" name="NELM">   200</i>
  <i type="int" name="NELMIN">     4</i>
  <i type="int" name="IBRION">     2</i>
  <i name="EDIFF">      0.00000100</i>
  <i name="EDIFFG">     -0.02000000</i>
  <i type="int" name="NSW">    30</i>
  <i type="int" name="ISIF">     3</i>
  <i name="ENCUT">    500.00000000</i>
  <i type="logical" name="LREAL"> F  </i>
  <i type="int" name="ISMEAR">     1</i>
  <i name="SIGMA">      0.30000000</i>
  <i type="logical" name="LWAVE"> F  </i>
  <i type="logical" name="LCHARG"> F  </i>
  <i type="int" name="NELM">   200</i>
 </incar>
 <kpoints>
  <generation param="Auto">
   <i name="subdivisionlength">     70.00000000 </i>
   <v type="int" name="divisions">      29       29        5 </v>
   <v name="usershift">      0.00000000       0.00000000       0.00000000 </v>
   <v name="genvec1">      0.03448276       0.00000000       0.00000000 </v>
   <v name="genvec2">      0.00000000       0.03448276       0.00000000 </v>
   <v name="genvec3">      0.00000000       0.00000000       0.20000000 </v>
   <v name="shift">      0.00000000       0.00000000       0.00000000 </v>
  </generation>
  <varray name="kpointlist" >
   <v>       0.00000000       0.00000000       0.00000000 </v>
   <v>       0.03448276       0.00000000       0.00000000 </v>
   <v>       0.06896552       0.00000000       0.00000000 </v>
   <v>       0.10344828       0.00000000       0.00000000 </v>
   <v>       0.13793103       0.00000000       0.00000000 </v>
   <v>       0.17241379       0.00000000       0.00000000 </v>
   <v>       0.20689655       0.00000000       0.00000000 </v>
   <v>       0.24137931       0.00000000       0.00000000 </v>
   <v>       0.27586207       0.00000000       0.00000000 </v>
   <v>       0.31034483       0.00000000       0.00000000 </v>
   <v>       0.34482759       0.00000000       0.00000000 </v>
   <v>       0.37931034       0.00000000       0.00000000 </v>
   <v>       0.41379310       0.00000000       0.00000000 </v>
   <v>       0.44827586       0.00000000       0.00000000 </v>
   <v>       0.48275862       0.00000000       0.00000000 </v>
   <v>       0.03448276       0.03448276       0.00000000 </v>
   <v>       0.06896552       0.03448276       0.00000000 </v>
   <v>       0.10344828       0.03448276       0.00000000 </v>
   <v>       0.13793103       0.03448276       0.00000000 </v>
   <v>       0.17241379       0.03448276       0.00000000 </v>
   <v>       0.20689655       0.03448276       0.00000000 </v>
   <v>       0.24137931       0.03448276       0.00000000 </v>
   <v>       0.27586207       0.03448276       0.00000000 </v>
   <v>       0.31034483       0.03448276       0.00000000 </v>
   <v>       0.34482759       0.03448276       0.00000000 </v>
   <v>       0.37931034       0.03448276       0.00000000 </v>
   <v>       0.41379310       0.03448276       0.00000000 </v>
   <v>       0.44827586       0.03448276       0.00000000 </v>
   <v>       0.48275862       0.03448276       0.00000000 </v>
   <v>       0.06896552       0.06896552       0.00000000 </v>
   <v>       0.10344828       0.06896552       0.00000000 </v>
   <v>       0.13793103       0.06896552       0.00000000 </v>
   <v>       0.17241379       0.06896552       0.00000000 </v>
   <v>       0.20689655       0.06896552       0.00000000 </v>
   <v>       0.24137931       0.06896552       0.00000000 </v>
   <v>       0.27586207       0.06896552       0.00000000 </v>
   <v>       0.31034483       0.06896552       0.00000000 </v>
   <v>       0.34482759       0.06896552       0.00000000 </v>
   <v>       0.37931034       0.06896552       0.00000000 </v>
   <v>       0.41379310       0.06896552       0.00000000 </v>
   <v>       0.44827586       0.06896552       0.00000000 </v>
   <v>       0.10344828       0.10344828       0.00000000 </v>
   <v>       0.13793103       0.10344828       0.00000000 </v>
   <v>       0.17241379       0.10344828       0.00000000 </v>
   <v>       0.20689655       0.10344828       0.00000000 </v>
   <v>       0.24137931       0.10344828       0.00000000 </v>
   <v>       0.27586207       0.10344828       0.00000000 </v>
   <v>       0.31034483       0.10344828       0.00000000 </v>
   <v>       0.34482759       0.10344828       0.00000000 </v>
   <v>       0.37931034       0.10344828       0.00000000 </v>
   <v>       0.41379310       0.10344828       0.00000000 </v>
   <v>       0.44827586       0.10344828       0.00000000 </v>
   <v>       0.13793103       0.13793103       0.00000000 </v>
   <v>       0.17241379       0.13793103       0.00000000 </v>
   <v>       0.20689655       0.13793103       0.00000000 </v>
   <v>       0.24137931       0.13793103       0.00000000 </v>
   <v>       0.27586207       0.13793103       0.00000000 </v>
   <v>       0.31034483       0.13793103       0.00000000 </v>
   <v>       0.34482759       0.13793103       0.00000000 </v>
   <v>       0.37931034       0.13793103       0.00000000 </v>
   <v>       0.41379310       0.13793103       0.00000000 </v>
   <v>       0.17241379       0.17241379       0.00000000 </v>
   <v>       0.20689655       0.17241379       0.00000000 </v>
   <v>       0.24137931       0.17241379       0.00000000 </v>
   <v>       0.27586207       0.17241379       0.00000000 </v>
   <v>       0.31034483       0.17241379       0.00000000 </v>
   <v>       0.34482759       0.17241379       0.00000000 </v>
   <v>       0.37931034       0.17241379       0.00000000 </v>
   <v>       0.41379310       0.17241379       0.00000000 </v>
   <v>       0.20689655       0.20689655       0.00000000 </v>
   <v>       0.24137931       0.20689655       0.00000000 </v>
   <v>       0.27586207       0.20689655       0.00000000 </v>
   <v>       0.31034483       0.20689655       0.00000000 </v>
   <v>       0.34482759       0.20689655       0.00000000 </v>
   <v>       0.37931034       0.20689655       0.00000000 </v>
   <v>       0.24137931       0.24137931       0.00000000 </v>
   <v>       0.27586207       0.24137931       0.00000000 </v>
   <v>       0.31034483       0.24137931       0.00000000 </v>
   <v>       0.34482759       0.24137931       0.00000000 </v>
   <v>       0.37931034       0.24137931       0.00000000 </v>
   <v>       0.27586207       0.27586207       0.00000000 </v>
   <v>       0.31034483       0.27586207       0.00000000 </v>
   <v>       0.34482759       0.27586207       0.00000000 </v>
   <v>       0.31034483       0.31034483       0.00000000 </v>
   <v>       0.34482759       0.31034483       0.00000000 </v>
   <v>       0.00000000       0.00000000       0.20000000 </v>
   <v>       0.03448276       0.00000000       0.20000000 </v>
   <v>       0.06896552       0.00000000       0.20000000 </v>
   <v>       0.10344828       0.00000000       0.20000000 </v>
   <v>       0.13793103       0.00000000       0.20000000 </v>
   <v>       0.17241379       0.00000000       0.20000000 </v>
   <v>       0.20689655       0.00000000       0.20000000 </v>
   <v>       0.24137931       0.00000000       0.20000000 </v>
   <v>       0.27586207       0.00000000       0.20000000 </v>
   <v>       0.31034483       0.00000000       0.20000000 </v>
   <v>       0.34482759       0.00000000       0.20000000 </v>
   <v>       0.37931034       0.00000000       0.20000000 </v>
   <v>       0.41379310       0.00000000       0.20000000 </v>
   <v>       0.44827586       0.00000000       0.20000000 </v>
   <v>       0.48275862       0.00000000       0.20000000 </v>
   <v>      -0.48275862       0.00000000       0.20000000 </v>
   <v>      -0.44827586       0.00000000       0.20000000 </v>
   <v>      -0.41379310       0.00000000       0.20000000 </v>
   <v>      -0.37931034       0.00000000       0.20000000 </v>
   <v>      -0.34482759       0.00000000       0.20000000 </v>
   <v>      -0.31034483       0.00000000       0.20000000 </v>
   <v>      -0.27586207       0.00000000       0.20000000 </v>
   <v>      -0.24137931       0.00000000       0.20000000 </v>
   <v>      -0.20689655       0.00000000       0.20000000 </v>
   <v>      -0.17241379       0.00000000       0.20000000 </v>
   <v>      -0.13793103       0.00000000       0.20000000 </v>
   <v>      -0.10344828       0.00000000       0.20000000 </v>
   <v>      -0.06896552       0.00000000       0.20000000 </v>
   <v>      -0.03448276       0.00000000       0.20000000 </v>
   <v>       0.03448276       0.03448276       0.20000000 </v>
   <v>       0.06896552       0.03448276       0.20000000 </v>
   <v>       0.10344828       0.03448276       0.20000000 </v>
   <v>       0.13793103       0.03448276       0.20000000 </v>
   <v>       0.17241379       0.03448276       0.20000000 </v>
   <v>       0.20689655       0.03448276       0.20000000 </v>
   <v>       0.24137931       0.03448276       0.20000000 </v>
   <v>       0.27586207       0.03448276       0.20000000 </v>
   <v>       0.31034483       0.03448276       0.20000000 </v>
   <v>       0.34482759       0.03448276       0.20000000 </v>
   <v>       0.37931034       0.03448276       0.20000000 </v>
   <v>       0.41379310       0.03448276       0.20000000 </v>
   <v>       0.44827586       0.03448276       0.20000000 </v>
   <v>       0.48275862       0.03448276       0.20000000 </v>
   <v>      -0.48275862       0.03448276       0.20000000 </v>
   <v>      -0.44827586       0.03448276       0.20000000 </v>
   <v>      -0.41379310       0.03448276       0.20000000 </v>
   <v>      -0.37931034       0.03448276       0.20000000 </v>
   <v>      -0.34482759       0.03448276       0.20000000 </v>
   <v>      -0.31034483       0.03448276       0.20000000 </v>
   <v>      -0.27586207       0.03448276       0.20000000 </v>
   <v>      -0.24137931       0.03448276       0.20000000 </v>
   <v>      -0.20689655       0.03448276       0.20000000 </v>
   <v>      -0.17241379       0.03448276       0.20000000 </v>
   <v>      -0.13793103       0.03448276       0.20000000 </v>
   <v>      -0.10344828       0.03448276       0.20000000 </v>
   <v>       0.06896552       0.06896552       0.20000000 </v>
   <v>       0.10344828       0.06896552       0.20000000 </v>
   <v>       0.13793103       0.06896552       0.20000000 </v>
   <v>       0.17241379       0.06896552       0.20000000 </v>
   <v>       0.20689655       0.06896552       0.20000000 </v>
   <v>       0.24137931       0.06896552       0.20000000 </v>
   <v>       0.27586207       0.06896552       0.20000000 </v>
   <v>       0.31034483       0.06896552       0.20000000 </v>
   <v>       0.34482759       0.06896552       0.20000000 </v>
   <v>       0.37931034       0.06896552       0.20000000 </v>
   <v>       0.41379310       0.06896552       0.20000000 </v>
   <v>       0.44827586       0.06896552       0.20000000 </v>
   <v>       0.48275862       0.06896552       0.20000000 </v>
   <v>      -0.48275862       0.06896552       0.20000000 </v>
   <v>      -0.44827586       0.06896552       0.20000000 </v>
   <v>      -0.41379310       0.06896552       0.20000000 </v>
   <v>      -0.37931034       0.06896552       0.20000000 </v>
   <v>      -0.34482759       0.06896552       0.20000000 </v>
   <v>      -0.31034483       0.06896552       0.20000000 </v>
   <v>      -0.27586207       0.06896552       0.20000000 </v>
   <v>      -0.24137931       0.06896552       0.20000000 </v>
   <v>      -0.20689655       0.06896552       0.20000000 </v>
   <v>      -0.17241379       0.06896552       0.20000000 </v>
   <v>       0.10344828       0.10344828       0.20000000 </v>
   <v>       0.13793103       0.10344828       0.20000000 </v>
   <v>       0.17241379       0.10344828       0.20000000 </v>
   <v>       0.20689655       0.10344828       0.20000000 </v>
   <v>       0.24137931       0.10344828       0.20000000 </v>
   <v>       0.27586207       0.10344828       0.20000000 </v>
   <v>       0.31034483       0.10344828       0.20000000 </v>
   <v>       0.34482759       0.10344828       0.20000000 </v>
   <v>       0.37931034       0.10344828       0.20000000 </v>
   <v>       0.41379310       0.10344828       0.20000000 </v>
   <v>       0.44827586       0.10344828       0.20000000 </v>
   <v>       0.48275862       0.10344828       0.20000000 </v>
   <v>      -0.48275862       0.10344828       0.20000000 </v>
   <v>      -0.44827586       0.10344828       0.20000000 </v>
   <v>      -0.41379310       0.10344828       0.20000000 </v>
   <v>      -0.37931034       0.10344828       0.20000000 </v>
   <v>      -0.34482759       0.10344828       0.20000000 </v>
   <v>      -0.31034483       0.10344828       0.20000000 </v>
   <v>      -0.27586207       0.10344828       0.20000000 </v>
   <v>      -0.24137931       0.10344828       0.20000000 </v>
   <v>       0.13793103       0.13793103       0.20000000 </v>
   <v>       0.17241379       0.13793103       0.20000000 </v>
   <v>       0.20689655       0.13793103       0.20000000 </v>
   <v>       0.24137931       0.13793103       0.20000000 </v>
   <v>       0.27586207       0.13793103       0.20000000 </v>
   <v>       0.31034483       0.13793103       0.20000000 </v>
   <v>       0.34482759       0.13793103       0.20000000 </v>
   <v>       0.37931034       0.13793103       0.20000000 </v>
   <v>       0.41379310       0.13793103       0.20000000 </v>
   <v>       0.44827586       0.13793103       0.20000000 </v>
   <v>       0.48275862       0.13793103       0.20000000 </v>
   <v>      -0.48275862       0.13793103       0.20000000 </v>
   <v>      -0.44827586       0.13793103       0.20000000 </v>
   <v>      -0.41379310       0.13793103       0.20000000 </v>
   <v>      -0.37931034       0.13793103       0.20000000 </v>
   <v>      -0.34482759       0.13793103       0.20000000 </v>
   <v>      -0.31034483       0.13793103       0.20000000 </v>
   <v>       0.17241379       0.17241379       0.20000000 </v>
   <v>       0.20689655       0.17241379       0.20000000 </v>
   <v>       0.24137931       0.17241379       0.20000000 </v>
   <v>       0.27586207       0.17241379       0.20000000 </v>
   <v>       0.31034483       0.17241379       0.20000000 </v>
   <v>       0.34482759       0.17241379       0.20000000 </v>
   <v>       0.37931034       0.17241379       0.20000000 </v>
   <v>       0.41379310       0.17241379       0.20000000 </v>
   <v>       0.44827586       0.17241379       0.20000000 </v>
   <v>       0.48275862       0.17241379       0.20000000 </v>
   <v>      -0.48275862       0.17241379       0.20000000 </v>
   <v>      -0.44827586       0.17241379       0.20000000 </v>
   <v>      -0.41379310       0.17241379       0.20000000 </v>
   <v>      -0.37931034       0.17241379       0.20000000 </v>
   <v>       0.20689655       0.20689655       0.20000000 </v>
   <v>       0.24137931       0.20689655       0.20000000 </v>
   <v>       0.27586207       0.20689655       0.20000000 </v>
   <v>       0.31034483       0.20689655       0.20000000 </v>
   <v>       0.34482759       0.20689655       0.20000000 </v>
   <v>       0.37931034       0.20689655       0.20000000 </v>
   <v>       0.41379310       0.20689655       0.20000000 </v>
   <v>       0.44827586       0.20689655       0.20000000 </v>
   <v>       0.48275862       0.20689655       0.20000000 </v>
   <v>      -0.48275862       0.20689655       0.20000000 </v>
   <v>      -0.44827586       0.20689655       0.20000000 </v>
   <v>       0.24137931       0.24137931       0.20000000 </v>
   <v>       0.27586207       0.24137931       0.20000000 </v>
   <v>       0.31034483       0.24137931       0.20000000 </v>
   <v>       0.34482759       0.24137931       0.20000000 </v>
   <v>       0.37931034       0.24137931       0.20000000 </v>
   <v>       0.41379310       0.24137931       0.20000000 </v>
   <v>       0.44827586       0.24137931       0.20000000 </v>
   <v>       0.48275862       0.24137931       0.20000000 </v>
   <v>       0.27586207       0.27586207       0.20000000 </v>
   <v>       0.31034483       0.27586207       0.20000000 </v>
   <v>       0.34482759       0.27586207       0.20000000 </v>
   <v>       0.37931034       0.27586207       0.20000000 </v>
   <v>       0.41379310       0.27586207       0.20000000 </v>
   <v>       0.31034483       0.31034483       0.20000000 </v>
   <v>       0.34482759       0.31034483       0.20000000 </v>
   <v>       0.00000000       0.00000000       0.40000000 </v>
   <v>       0.03448276       0.00000000       0.40000000 </v>
   <v>       0.06896552       0.00000000       0.40000000 </v>
   <v>       0.10344828       0.00000000       0.40000000 </v>
   <v>       0.13793103       0.00000000       0.40000000 </v>
   <v>       0.17241379       0.00000000       0.40000000 </v>
   <v>       0.20689655       0.00000000       0.40000000 </v>
   <v>       0.24137931       0.00000000       0.40000000 </v>
   <v>       0.27586207       0.00000000       0.40000000 </v>
   <v>       0.31034483       0.00000000       0.40000000 </v>
   <v>       0.34482759       0.00000000       0.40000000 </v>
   <v>       0.37931034       0.00000000       0.40000000 </v>
   <v>       0.41379310       0.00000000       0.40000000 </v>
   <v>       0.44827586       0.00000000       0.40000000 </v>
   <v>       0.48275862       0.00000000       0.40000000 </v>
   <v>      -0.48275862       0.00000000       0.40000000 </v>
   <v>      -0.44827586       0.00000000       0.40000000 </v>
   <v>      -0.41379310       0.00000000       0.40000000 </v>
   <v>      -0.37931034       0.00000000       0.40000000 </v>
   <v>      -0.34482759       0.00000000       0.40000000 </v>
   <v>      -0.31034483       0.00000000       0.40000000 </v>
   <v>      -0.27586207       0.00000000       0.40000000 </v>
   <v>      -0.24137931       0.00000000       0.40000000 </v>
   <v>      -0.20689655       0.00000000       0.40000000 </v>
   <v>      -0.17241379       0.00000000       0.40000000 </v>
   <v>      -0.13793103       0.00000000       0.40000000 </v>
   <v>      -0.10344828       0.00000000       0.40000000 </v>
   <v>      -0.06896552       0.00000000       0.40000000 </v>
   <v>      -0.03448276       0.00000000       0.40000000 </v>
   <v>       0.03448276       0.03448276       0.40000000 </v>
   <v>       0.06896552       0.03448276       0.40000000 </v>
   <v>       0.10344828       0.03448276       0.40000000 </v>
   <v>       0.13793103       0.03448276       0.40000000 </v>
   <v>       0.17241379       0.03448276       0.40000000 </v>
   <v>       0.20689655       0.03448276       0.40000000 </v>
   <v>       0.24137931       0.03448276       0.40000000 </v>
   <v>       0.27586207       0.03448276       0.40000000 </v>
   <v>       0.31034483       0.03448276       0.40000000 </v>
   <v>       0.34482759       0.03448276       0.40000000 </v>
   <v>       0.37931034       0.03448276       0.40000000 </v>
   <v>       0.41379310       0.03448276       0.40000000 </v>
   <v>       0.44827586       0.03448276       0.40000000 </v>
   <v>       0.48275862       0.03448276       0.40000000 </v>
   <v>      -0.48275862       0.03448276       0.40000000 </v>
   <v>      -0.44827586       0.03448276       0.40000000 </v>
   <v>      -0.41379310       0.03448276       0.40000000 </v>
   <v>      -0.37931034       0.03448276       0.40000000 </v>
   <v>      -0.34482759       0.03448276       0.40000000 </v>
   <v>      -0.31034483       0.03448276       0.40000000 </v>
   <v>      -0.27586207       0.03448276       0.40000000 </v>
   <v>      -0.24137931       0.03448276       0.40000000 </v>
   <v>      -0.20689655       0.03448276       0.40000000 </v>
   <v>      -0.17241379       0.03448276       0.40000000 </v>
   <v>      -0.13793103       0.03448276       0.40000000 </v>
   <v>      -0.10344828       0.03448276       0.40000000 </v>
   <v>       0.06896552       0.06896552       0.40000000 </v>
   <v>       0.10344828       0.06896552       0.40000000 </v>
   <v>       0.13793103       0.06896552       0.40000000 </v>
   <v>       0.17241379       0.06896552       0.40000000 </v>
   <v>       0.20689655       0.06896552       0.40000000 </v>
   <v>       0.24137931       0.06896552       0.40000000 </v>
   <v>       0.27586207       0.06896552       0.40000000 </v>
   <v>       0.31034483       0.06896552       0.40000000 </v>
   <v>       0.34482759       0.06896552       0.40000000 </v>
   <v>       0.37931034       0.06896552       0.40000000 </v>
   <v>       0.41379310       0.06896552       0.40000000 </v>
   <v>       0.44827586       0.06896552       0.40000000 </v>
   <v>       0.48275862       0.06896552       0.40000000 </v>
   <v>      -0.48275862       0.06896552       0.40000000 </v>
   <v>      -0.44827586       0.06896552       0.40000000 </v>
   <v>      -0.41379310       0.06896552       0.40000000 </v>
   <v>      -0.37931034       0.06896552       0.40000000 </v>
   <v>      -0.34482759       0.06896552       0.40000000 </v>
   <v>      -0.31034483       0.06896552       0.40000000 </v>
   <v>      -0.27586207       0.06896552       0.40000000 </v>
   <v>      -0.24137931       0.06896552       0.40000000 </v>
   <v>      -0.20689655       0.06896552       0.40000000 </v>
   <v>      -0.17241379       0.06896552       0.40000000 </v>
   <v>       0.10344828       0.10344828       0.40000000 </v>
   <v>       0.13793103       0.10344828       0.40000000 </v>
   <v>       0.17241379       0.10344828       0.40000000 </v>
   <v>       0.20689655       0.10344828       0.40000000 </v>
   <v>       0.24137931       0.10344828       0.40000000 </v>
   <v>       0.27586207       0.10344828       0.40000000 </v>
   <v>       0.31034483       0.10344828       0.40000000 </v>
   <v>       0.34482759       0.10344828       0.40000000 </v>
   <v>       0.37931034       0.10344828       0.40000000 </v>
   <v>       0.41379310       0.10344828       0.40000000 </v>
   <v>       0.44827586       0.10344828       0.40000000 </v>
   <v>       0.48275862       0.10344828       0.40000000 </v>
   <v>      -0.48275862       0.10344828       0.40000000 </v>
   <v>      -0.44827586       0.10344828       0.40000000 </v>
   <v>      -0.41379310       0.10344828       0.40000000 </v>
   <v>      -0.37931034       0.10344828       0.40000000 </v>
   <v>      -0.34482759       0.10344828       0.40000000 </v>
   <v>      -0.31034483       0.10344828       0.40000000 </v>
   <v>      -0.27586207       0.10344828       0.40000000 </v>
   <v>      -0.24137931       0.10344828       0.40000000 </v>
   <v>       0.13793103       0.13793103       0.40000000 </v>
   <v>       0.17241379       0.13793103       0.40000000 </v>
   <v>       0.20689655       0.13793103       0.40000000 </v>
   <v>       0.24137931       0.13793103       0.40000000 </v>
   <v>       0.27586207       0.13793103       0.40000000 </v>
   <v>       0.31034483       0.13793103       0.40000000 </v>
   <v>       0.34482759       0.13793103       0.40000000 </v>
   <v>       0.37931034       0.13793103       0.40000000 </v>
   <v>       0.41379310       0.13793103       0.40000000 </v>
   <v>       0.44827586       0.13793103       0.40000000 </v>
   <v>       0.48275862       0.13793103       0.40000000 </v>
   <v>      -0.48275862       0.13793103       0.40000000 </v>
   <v>      -0.44827586       0.13793103       0.40000000 </v>
   <v>      -0.41379310       0.13793103       0.40000000 </v>
   <v>      -0.37931034       0.13793103       0.40000000 </v>
   <v>      -0.34482759       0.13793103       0.40000000 </v>
   <v>      -0.31034483       0.13793103       0.40000000 </v>
   <v>       0.17241379       0.17241379       0.40000000 </v>
   <v>       0.20689655       0.17241379       0.40000000 </v>
   <v>       0.24137931       0.17241379       0.40000000 </v>
   <v>       0.27586207       0.17241379       0.40000000 </v>
   <v>       0.31034483       0.17241379       0.40000000 </v>
   <v>       0.34482759       0.17241379       0.40000000 </v>
   <v>       0.37931034       0.17241379       0.40000000 </v>
   <v>       0.41379310       0.17241379       0.40000000 </v>
   <v>       0.44827586       0.17241379       0.40000000 </v>
   <v>       0.48275862       0.17241379       0.40000000 </v>
   <v>      -0.48275862       0.17241379       0.40000000 </v>
   <v>      -0.44827586       0.17241379       0.40000000 </v>
   <v>      -0.41379310       0.17241379       0.40000000 </v>
   <v>      -0.37931034       0.17241379       0.40000000 </v>
   <v>       0.20689655       0.20689655       0.40000000 </v>
   <v>       0.24137931       0.20689655       0.40000000 </v>
   <v>       0.27586207       0.20689655       0.40000000 </v>
   <v>       0.31034483       0.20689655       0.40000000 </v>
   <v>       0.34482759       0.20689655       0.40000000 </v>
   <v>       0.37931034       0.20689655       0.40000000 </v>
   <v>       0.41379310       0.20689655       0.40000000 </v>
   <v>       0.44827586       0.20689655       0.40000000 </v>
   <v>       0.48275862       0.20689655       0.40000000 </v>
   <v>      -0.48275862       0.20689655       0.40000000 </v>
   <v>      -0.44827586       0.20689655       0.40000000 </v>
   <v>       0.24137931       0.24137931       0.40000000 </v>
   <v>       0.27586207       0.24137931       0.40000000 </v>
   <v>       0.31034483       0.24137931       0.40000000 </v>
   <v>       0.34482759       0.24137931       0.40000000 </v>
   <v>       0.37931034       0.24137931       0.40000000 </v>
   <v>       0.41379310       0.24137931       0.40000000 </v>
   <v>       0.44827586       0.24137931       0.40000000 </v>
   <v>       0.48275862       0.24137931       0.40000000 </v>
   <v>       0.27586207       0.27586207       0.40000000 </v>
   <v>       0.31034483       0.27586207       0.40000000 </v>
   <v>       0.34482759       0.27586207       0.40000000 </v>
   <v>       0.37931034       0.27586207       0.40000000 </v>
   <v>       0.41379310       0.27586207       0.40000000 </v>
   <v>       0.31034483       0.31034483       0.40000000 </v>
   <v>       0.34482759       0.31034483       0.40000000 </v>
  </varray>
  <varray name="weights" >
   <v>       0.00023781 </v>
   <v>       0.00142687 </v>
   <v>       0.00142687 </v>
   <v>       0.00142687 </v>
   <v>       0.00142687 </v>
   <v>       0.00142687 </v>
   <v>       0.00142687 </v>
   <v>       0.00142687 </v>
   <v>       0.00142687 </v>
   <v>       0.00142687 </v>
   <v>       0.00142687 </v>
   <v>       0.00142687 </v>
   <v>       0.00142687 </v>
   <v>       0.00142687 </v>
   <v>       0.00142687 </v>
   <v>       0.00142687 </v>
   <v>       0.00285375 </v>
   <v>       0.00285375 </v>
   <v>       0.00285375 </v>
   <v>       0.00285375 </v>
   <v>       0.00285375 </v>
   <v>       0.00285375 </v>
   <v>       0.00285375 </v>
   <v>       0.00285375 </v>
   <v>       0.00285375 </v>
   <v>       0.00285375 </v>
   <v>       0.00285375 </v>
   <v>       0.00285375 </v>
   <v>       0.00142687 </v>
   <v>       0.00142687 </v>
   <v>       0.00285375 </v>
   <v>       0.00285375 </v>
   <v>       0.00285375 </v>
   <v>       0.00285375 </v>
   <v>       0.00285375 </v>
   <v>       0.00285375 </v>
   <v>       0.00285375 </v>
   <v>       0.00285375 </v>
   <v>       0.00285375 </v>
   <v>       0.00285375 </v>
   <v>       0.00285375 </v>
   <v>       0.00142687 </v>
   <v>       0.00285375 </v>
   <v>       0.00285375 </v>
   <v>       0.00285375 </v>
   <v>       0.00285375 </v>
   <v>       0.00285375 </v>
   <v>       0.00285375 </v>
   <v>       0.00285375 </v>
   <v>       0.00285375 </v>
   <v>       0.00285375 </v>
   <v>       0.00142687 </v>
   <v>       0.00142687 </v>
   <v>       0.00285375 </v>
   <v>       0.00285375 </v>
   <v>       0.00285375 </v>
   <v>       0.00285375 </v>
   <v>       0.00285375 </v>
   <v>       0.00285375 </v>
   <v>       0.00285375 </v>
   <v>       0.00285375 </v>
   <v>       0.00142687 </v>
   <v>       0.00285375 </v>
   <v>       0.00285375 </v>
   <v>       0.00285375 </v>
   <v>       0.00285375 </v>
   <v>       0.00285375 </v>
   <v>       0.00285375 </v>
   <v>       0.00142687 </v>
   <v>       0.00142687 </v>
   <v>       0.00285375 </v>
   <v>       0.00285375 </v>
   <v>       0.00285375 </v>
   <v>       0.00285375 </v>
   <v>       0.00285375 </v>
   <v>       0.00142687 </v>
   <v>       0.00285375 </v>
   <v>       0.00285375 </v>
   <v>       0.00285375 </v>
   <v>       0.00142687 </v>
   <v>       0.00142687 </v>
   <v>       0.00285375 </v>
   <v>       0.00285375 </v>
   <v>       0.00142687 </v>
   <v>       0.00142687 </v>
   <v>       0.00047562 </v>
   <v>       0.00142687 </v>
   <v>       0.00142687 </v>
   <v>       0.00142687 </v>
   <v>       0.00142687 </v>
   <v>       0.00142687 </v>
   <v>       0.00142687 </v>
   <v>       0.00142687 </v>
   <v>       0.00142687 </v>
   <v>       0.00142687 </v>
   <v>       0.00142687 </v>
   <v>       0.00142687 </v>
   <v>       0.00142687 </v>
   <v>       0.00142687 </v>
   <v>       0.00142687 </v>
   <v>       0.00142687 </v>
   <v>       0.00142687 </v>
   <v>       0.00142687 </v>
   <v>       0.00142687 </v>
   <v>       0.00142687 </v>
   <v>       0.00142687 </v>
   <v>       0.00142687 </v>
   <v>       0.00142687 </v>
   <v>       0.00142687 </v>
   <v>       0.00142687 </v>
   <v>       0.00142687 </v>
   <v>       0.00142687 </v>
   <v>       0.00142687 </v>
   <v>       0.00142687 </v>
   <v>       0.00285375 </v>
   <v>       0.00285375 </v>
   <v>       0.00285375 </v>
   <v>       0.00285375 </v>
   <v>       0.00285375 </v>
   <v>       0.00285375 </v>
   <v>       0.00285375 </v>
   <v>       0.00285375 </v>
   <v>       0.00285375 </v>
   <v>       0.00285375 </v>
   <v>       0.00285375 </v>
   <v>       0.00285375 </v>
   <v>       0.00285375 </v>
   <v>       0.00285375 </v>
   <v>       0.00285375 </v>
   <v>       0.00285375 </v>
   <v>       0.00285375 </v>
   <v>       0.00285375 </v>
   <v>       0.00285375 </v>
   <v>       0.00285375 </v>
   <v>       0.00285375 </v>
   <v>       0.00285375 </v>
   <v>       0.00285375 </v>
   <v>       0.00285375 </v>
   <v>       0.00285375 </v>
   <v>       0.00285375 </v>
   <v>       0.00285375 </v>
   <v>       0.00285375 </v>
   <v>       0.00285375 </v>
   <v>       0.00285375 </v>
   <v>       0.00285375 </v>
   <v>       0.00285375 </v>
   <v>       0.00285375 </v>
   <v>       0.00285375 </v>
   <v>       0.00285375 </v>
   <v>       0.00285375 </v>
   <v>       0.00285375 </v>
   <v>       0.00285375 </v>
   <v>       0.00285375 </v>
   <v>       0.00285375 </v>
   <v>       0.00285375 </v>
   <v>       0.00285375 </v>
   <v>       0.00285375 </v>
   <v>       0.00285375 </v>
   <v>       0.00285375 </v>
   <v>       0.00285375 </v>
   <v>       0.00285375 </v>
   <v>       0.00285375 </v>
   <v>       0.00285375 </v>
   <v>       0.00285375 </v>
   <v>       0.00285375 </v>
   <v>       0.00285375 </v>
   <v>       0.00285375 </v>
   <v>       0.00285375 </v>
   <v>       0.00285375 </v>
   <v>       0.00285375 </v>
   <v>       0.00285375 </v>
   <v>       0.00285375 </v>
   <v>       0.00285375 </v>
   <v>       0.00285375 </v>
   <v>       0.00285375 </v>
   <v>       0.00285375 </v>
   <v>       0.00285375 </v>
   <v>       0.00285375 </v>
   <v>       0.00285375 </v>
   <v>       0.00285375 </v>
   <v>       0.00285375 </v>
   <v>       0.00285375 </v>
   <v>       0.00285375 </v>
   <v>       0.00285375 </v>
   <v>       0.00285375 </v>
   <v>       0.00285375 </v>
   <v>       0.00285375 </v>
   <v>       0.00285375 </v>
   <v>       0.00285375 </v>
   <v>       0.00285375 </v>
   <v>       0.00285375 </v>
   <v>       0.00285375 </v>
   <v>       0.00285375 </v>
   <v>       0.00285375 </v>
   <v>       0.00285375 </v>
   <v>       0.00285375 </v>
   <v>       0.00285375 </v>
   <v>       0.00285375 </v>
   <v>       0.00285375 </v>
   <v>       0.00285375 </v>
   <v>       0.00285375 </v>
   <v>       0.00285375 </v>
   <v>       0.00285375 </v>
   <v>       0.00285375 </v>
   <v>       0.00285375 </v>
   <v>       0.00285375 </v>
   <v>       0.00285375 </v>
   <v>       0.00285375 </v>
   <v>       0.00285375 </v>
   <v>       0.00285375 </v>
   <v>       0.00285375 </v>
   <v>       0.00285375 </v>
   <v>       0.00285375 </v>
   <v>       0.00285375 </v>
   <v>       0.00285375 </v>
   <v>       0.00285375 </v>
   <v>       0.00285375 </v>
   <v>       0.00285375 </v>
   <v>       0.00285375 </v>
   <v>       0.00285375 </v>
   <v>       0.00285375 </v>
   <v>       0.00285375 </v>
   <v>       0.00285375 </v>
   <v>       0.00285375 </v>
   <v>       0.00285375 </v>
   <v>       0.00285375 </v>
   <v>       0.00285375 </v>
   <v>       0.00285375 </v>
   <v>       0.00285375 </v>
   <v>       0.00285375 </v>
   <v>       0.00285375 </v>
   <v>       0.00285375 </v>
   <v>       0.00285375 </v>
   <v>       0.00285375 </v>
   <v>       0.00285375 </v>
   <v>       0.00285375 </v>
   <v>       0.00285375 </v>
   <v>       0.00285375 </v>
   <v>       0.00285375 </v>
   <v>       0.00285375 </v>
   <v>       0.00047562 </v>
   <v>       0.00142687 </v>
   <v>       0.00142687 </v>
   <v>       0.00142687 </v>
   <v>       0.00142687 </v>
   <v>       0.00142687 </v>
   <v>       0.00142687 </v>
   <v>       0.00142687 </v>
   <v>       0.00142687 </v>
   <v>       0.00142687 </v>
   <v>       0.00142687 </v>
   <v>       0.00142687 </v>
   <v>       0.00142687 </v>
   <v>       0.00142687 </v>
   <v>       0.00142687 </v>
   <v>       0.00142687 </v>
   <v>       0.00142687 </v>
   <v>       0.00142687 </v>
   <v>       0.00142687 </v>
   <v>       0.00142687 </v>
   <v>       0.00142687 </v>
   <v>       0.00142687 </v>
   <v>       0.00142687 </v>
   <v>       0.00142687 </v>
   <v>       0.00142687 </v>
   <v>       0.00142687 </v>
   <v>       0.00142687 </v>
   <v>       0.00142687 </v>
   <v>       0.00142687 </v>
   <v>       0.00285375 </v>
   <v>       0.00285375 </v>
   <v>       0.00285375 </v>
   <v>       0.00285375 </v>
   <v>       0.00285375 </v>
   <v>       0.00285375 </v>
   <v>       0.00285375 </v>
   <v>       0.00285375 </v>
   <v>       0.00285375 </v>
   <v>       0.00285375 </v>
   <v>       0.00285375 </v>
   <v>       0.00285375 </v>
   <v>       0.00285375 </v>
   <v>       0.00285375 </v>
   <v>       0.00285375 </v>
   <v>       0.00285375 </v>
   <v>       0.00285375 </v>
   <v>       0.00285375 </v>
   <v>       0.00285375 </v>
   <v>       0.00285375 </v>
   <v>       0.00285375 </v>
   <v>       0.00285375 </v>
   <v>       0.00285375 </v>
   <v>       0.00285375 </v>
   <v>       0.00285375 </v>
   <v>       0.00285375 </v>
   <v>       0.00285375 </v>
   <v>       0.00285375 </v>
   <v>       0.00285375 </v>
   <v>       0.00285375 </v>
   <v>       0.00285375 </v>
   <v>       0.00285375 </v>
   <v>       0.00285375 </v>
   <v>       0.00285375 </v>
   <v>       0.00285375 </v>
   <v>       0.00285375 </v>
   <v>       0.00285375 </v>
   <v>       0.00285375 </v>
   <v>       0.00285375 </v>
   <v>       0.00285375 </v>
   <v>       0.00285375 </v>
   <v>       0.00285375 </v>
   <v>       0.00285375 </v>
   <v>       0.00285375 </v>
   <v>       0.00285375 </v>
   <v>       0.00285375 </v>
   <v>       0.00285375 </v>
   <v>       0.00285375 </v>
   <v>       0.00285375 </v>
   <v>       0.00285375 </v>
   <v>       0.00285375 </v>
   <v>       0.00285375 </v>
   <v>       0.00285375 </v>
   <v>       0.00285375 </v>
   <v>       0.00285375 </v>
   <v>       0.00285375 </v>
   <v>       0.00285375 </v>
   <v>       0.00285375 </v>
   <v>       0.00285375 </v>
   <v>       0.00285375 </v>
   <v>       0.00285375 </v>
   <v>       0.00285375 </v>
   <v>       0.00285375 </v>
   <v>       0.00285375 </v>
   <v>       0.00285375 </v>
   <v>       0.00285375 </v>
   <v>       0.00285375 </v>
   <v>       0.00285375 </v>
   <v>       0.00285375 </v>
   <v>       0.00285375 </v>
   <v>       0.00285375 </v>
   <v>       0.00285375 </v>
   <v>       0.00285375 </v>
   <v>       0.00285375 </v>
   <v>       0.00285375 </v>
   <v>       0.00285375 </v>
   <v>       0.00285375 </v>
   <v>       0.00285375 </v>
   <v>       0.00285375 </v>
   <v>       0.00285375 </v>
   <v>       0.00285375 </v>
   <v>       0.00285375 </v>
   <v>       0.00285375 </v>
   <v>       0.00285375 </v>
   <v>       0.00285375 </v>
   <v>       0.00285375 </v>
   <v>       0.00285375 </v>
   <v>       0.00285375 </v>
   <v>       0.00285375 </v>
   <v>       0.00285375 </v>
   <v>       0.00285375 </v>
   <v>       0.00285375 </v>
   <v>       0.00285375 </v>
   <v>       0.00285375 </v>
   <v>       0.00285375 </v>
   <v>       0.00285375 </v>
   <v>       0.00285375 </v>
   <v>       0.00285375 </v>
   <v>       0.00285375 </v>
   <v>       0.00285375 </v>
   <v>       0.00285375 </v>
   <v>       0.00285375 </v>
   <v>       0.00285375 </v>
   <v>       0.00285375 </v>
   <v>       0.00285375 </v>
   <v>       0.00285375 </v>
   <v>       0.00285375 </v>
   <v>       0.00285375 </v>
   <v>       0.00285375 </v>
   <v>       0.00285375 </v>
   <v>       0.00285375 </v>
   <v>       0.00285375 </v>
   <v>       0.00285375 </v>
   <v>       0.00285375 </v>
   <v>       0.00285375 </v>
   <v>       0.00285375 </v>
   <v>       0.00285375 </v>
   <v>       0.00285375 </v>
   <v>       0.00285375 </v>
   <v>       0.00285375 </v>
   <v>       0.00285375 </v>
   <v>       0.00285375 </v>
   <v>       0.00285375 </v>
   <v>       0.00285375 </v>
   <v>       0.00285375 </v>
   <v>       0.00285375 </v>
  </varray>
 </kpoints>
 <parameters>
  <separator name="general" >
   <i type="string" name="SYSTEM">unknown system</i>
   <i type="logical" name="LCOMPAT"> F  </i>
  </separator>
  <separator name="electronic" >
   <i type="string" name="PREC">accura</i>
   <i name="ENMAX">    500.00000000</i>
   <i name="ENAUG">    586.98000000</i>
   <i name="EDIFF">      0.00000100</i>
   <i type="int" name="IALGO">    68</i>
   <i type="int" name="IWAVPR">    11</i>
   <i type="int" name="NBANDS">    40</i>
   <i name="NELECT">     66.00000000</i>
   <i type="int" name="TURBO">     0</i>
   <i type="int" name="IRESTART">     0</i>
   <i type="int" name="NREBOOT">     0</i>
   <i type="int" name="NMIN">     0</i>
   <i name="EREF">      0.00000000</i>
   <separator name="electronic smearing" >
    <i type="int" name="ISMEAR">     1</i>
    <i name="SIGMA">      0.30000000</i>
    <i name="KSPACING">      0.50000000</i>
    <i type="logical" name="KGAMMA"> T  </i>
   </separator>
   <separator name="electronic projectors" >
    <i type="logical" name="LREAL"> F  </i>
    <v name="ROPT">      0.00000000      0.00000000      0.00000000</v>
    <i type="int" name="LMAXPAW">  -100</i>
    <i type="int" name="LMAXMIX">     2</i>
    <i type="logical" name="NLSPLINE"> F  </i>
   </separator>
   <separator name="electronic startup" >
    <i type="int" name="ISTART">     0</i>
    <i type="int" name="ICHARG">     2</i>
    <i type="int" name="INIWAV">     1</i>
   </separator>
   <separator name="electronic spin" >
    <i type="int" name="ISPIN">     1</i>
    <i type="logical" name="LNONCOLLINEAR"> F  </i>
    <v name="MAGMOM">      1.00000000      1.00000000      1.00000000      1.00000000      1.00000000      1.00000000</v>
    <i name="NUPDOWN">     -1.00000000</i>
    <i type="logical" name="LSORBIT"> F  </i>
    <v name="SAXIS">      0.00000000      0.00000000      1.00000000</v>
    <i type="logical" name="LSPIRAL"> F  </i>
    <v name="QSPIRAL">      0.00000000      0.00000000      0.00000000</v>
    <i type="logical" name="LZEROZ"> F  </i>
   </separator>
   <separator name="electronic exchange-correlation" >
    <i type="logical" name="LASPH"> F  </i>
    <i type="logical" name="LMETAGGA"> F  </i>
   </separator>
   <separator name="electronic convergence" >
    <i type="int" name="NELM">   200</i>
    <i type="int" name="NELMDL">     0</i>
    <i type="int" name="NELMIN">     4</i>
    <i name="ENINI">    500.00000000</i>
    <separator name="electronic convergence detail" >
     <i type="logical" name="LDIAG"> T  </i>
     <i type="logical" name="LSUBROT"> F  </i>
     <i name="WEIMIN">      0.00100000</i>
     <i name="EBREAK">      0.00000001</i>
     <i name="DEPER">      0.30000000</i>
     <i type="int" name="NRMM">     4</i>
     <i name="TIME">      0.40000000</i>
    </separator>
   </separator>
   <separator name="electronic mixer" >
    <i name="AMIX">      0.40000000</i>
    <i name="BMIX">      1.00000000</i>
    <i name="AMIN">      0.10000000</i>
    <i name="AMIX_MAG">      1.60000000</i>
    <i name="BMIX_MAG">      1.00000000</i>
    <separator name="electronic mixer details" >
     <i type="int" name="IMIX">     4</i>
     <i type="int" name="MAXMIX">   -45</i>
     <i name="WC">    100.00000000</i>
     <i type="int" name="INIMIX">     1</i>
     <i type="int" name="MIXPRE">     1</i>
     <i type="int" name="MREMOVE">     5</i>
    </separator>
   </separator>
   <separator name="electronic dipolcorrection" >
    <i type="logical" name="LDIPOL"> F  </i>
    <i type="logical" name="LMONO"> F  </i>
    <i type="int" name="IDIPOL">     0</i>
    <i name="EPSILON">      1.00000000</i>
    <v name="DIPOL">   -100.00000000   -100.00000000   -100.00000000</v>
    <i name="EFIELD">      0.00000000</i>
   </separator>
  </separator>
  <separator name="grids" >
   <i type="int" name="NGX">    20</i>
   <i type="int" name="NGY">    20</i>
   <i type="int" name="NGZ">    96</i>
   <i type="int" name="NGXF">    40</i>
   <i type="int" name="NGYF">    40</i>
   <i type="int" name="NGZF">   192</i>
   <i type="logical" name="ADDGRID"> T  </i>
  </separator>
  <separator name="ionic" >
   <i type="int" name="NSW">    30</i>
   <i type="int" name="IBRION">     2</i>
   <i type="int" name="ISIF">     3</i>
   <i name="PSTRESS">      0.00000000</i>
   <i name="EDIFFG">     -0.02000000</i>
   <i type="int" name="NFREE">     1</i>
   <i name="POTIM">      0.50000000</i>
   <i name="SMASS">     -3.00000000</i>
   <i name="SCALEE">      1.00000000</i>
  </separator>
  <separator name="ionic md" >
   <i name="TEBEG">      0.00010000</i>
   <i name="TEEND">      0.00010000</i>
   <i type="int" name="NBLOCK">     1</i>
   <i type="int" name="KBLOCK">    30</i>
   <i type="int" name="NPACO">   256</i>
   <i name="APACO">     16.00000000</i>
  </separator>
  <separator name="symmetry" >
   <i type="int" name="ISYM">     2</i>
   <i name="SYMPREC">      0.00001000</i>
  </separator>
  <separator name="dos" >
   <i type="logical" name="LORBIT"> F  </i>
   <v name="RWIGS">     -1.00000000     -1.00000000     -1.00000000</v>
   <i type="int" name="NEDOS">   301</i>
   <i name="EMIN">     10.00000000</i>
   <i name="EMAX">    -10.00000000</i>
   <i name="EFERMI">      0.00000000</i>
  </separator>
  <separator name="writing" >
   <i type="int" name="NWRITE">     2</i>
   <i type="logical" name="LWAVE"> F  </i>
   <i type="logical" name="LCHARG"> F  </i>
   <i type="logical" name="LPARD"> F  </i>
   <i type="logical" name="LVTOT"> F  </i>
   <i type="logical" name="LVHAR"> F  </i>
   <i type="logical" name="LELF"> F  </i>
   <i type="logical" name="LOPTICS"> F  </i>
   <v name="STM">      0.00000000      0.00000000      0.00000000      0.00000000      0.00000000      0.00000000      0.00000000</v>
  </separator>
  <separator name="performance" >
   <i type="int" name="NPAR">     4</i>
   <i type="int" name="NSIM">     4</i>
   <i type="int" name="NBLK">    -1</i>
   <i type="logical" name="LPLANE"> T  </i>
   <i type="logical" name="LSCALAPACK"> T  </i>
   <i type="logical" name="LSCAAWARE"> F  </i>
   <i type="logical" name="LSCALU"> F  </i>
   <i type="logical" name="LASYNC"> F  </i>
   <i type="logical" name="LORBITALREAL"> F  </i>
  </separator>
  <separator name="miscellaneous" >
   <i type="int" name="IDIOT">     3</i>
   <i type="logical" name="LMUSIC"> F  </i>
   <v name="POMASS">     63.54600000    107.86800000    196.96600000</v>
   <v name="DARWINR">      0.00000000      0.00000000      0.00000000</v>
   <v name="DARWINV">      1.00000000      1.00000000      1.00000000</v>
   <i type="logical" name="LCORR"> T  </i>
  </separator>
  <i type="logical" name="GGA_COMPAT"> T  </i>
  <i type="logical" name="LBERRY"> F  </i>
  <i type="int" name="ICORELEVEL">     0</i>
  <i type="logical" name="LDAU"> F  </i>
  <i type="int" name="I_CONSTRAINED_M">     0</i>
  <separator name="electronic exchange-correlation" >
   <i type="string" name="GGA">--</i>
   <i type="int" name="VOSKOWN">     0</i>
   <i type="logical" name="LHFCALC"> F  </i>
   <i type="string" name="PRECFOCK"></i>
   <i type="logical" name="LSYMGRAD"> F  </i>
   <i type="logical" name="LHFONE"> F  </i>
   <i type="logical" name="LRHFCALC"> F  </i>
   <i type="logical" name="LTHOMAS"> F  </i>
   <i type="logical" name="LMODELHF"> F  </i>
   <i name="ENCUT4O">     -1.00000000</i>
   <i type="int" name="EXXOEP">     0</i>
   <i type="int" name="FOURORBIT">     0</i>
   <i name="AEXX">      0.00000000</i>
   <i name="HFALPHA">      0.00000000</i>
   <i name="MCALPHA">      0.00000000</i>
   <i name="ALDAX">      1.00000000</i>
   <i name="AGGAX">      1.00000000</i>
   <i name="ALDAC">      1.00000000</i>
   <i name="AGGAC">      1.00000000</i>
   <i type="int" name="NKREDX">     1</i>
   <i type="int" name="NKREDY">     1</i>
   <i type="int" name="NKREDZ">     1</i>
   <i type="logical" name="SHIFTRED"> F  </i>
   <i type="logical" name="ODDONLY"> F  </i>
   <i type="logical" name="EVENONLY"> F  </i>
   <i type="int" name="LMAXFOCK">     0</i>
   <i type="int" name="NMAXFOCKAE">     0</i>
   <i type="logical" name="LFOCKAEDFT"> F  </i>
   <i name="HFSCREEN">      0.00000000</i>
   <i name="HFSCREENC">      0.00000000</i>
   <i type="int" name="NBANDSGWLOW">     0</i>
  </separator>
  <separator name="vdW DFT" >
   <i type="logical" name="LUSE_VDW"> F  </i>
   <i name="Zab_VDW">     -0.84910000</i>
   <i name="PARAM1">      0.12340000</i>
   <i name="PARAM2">      1.00000000</i>
   <i name="PARAM3">      0.00000000</i>
  </separator>
  <separator name="model GW" >
   <i type="int" name="MODEL_GW">     0</i>
   <i name="MODEL_EPS0">      8.56914668</i>
   <i name="MODEL_ALPHA">      1.00000000</i>
  </separator>
  <separator name="linear response parameters" >
   <i type="logical" name="LEPSILON"> F  </i>
   <i type="logical" name="LRPA"> F  </i>
   <i type="logical" name="LNABLA"> F  </i>
   <i type="logical" name="LVEL"> F  </i>
   <i type="int" name="KINTER">     0</i>
   <i name="CSHIFT">      0.10000000</i>
   <i name="OMEGAMAX">     -1.00000000</i>
   <i name="DEG_THRESHOLD">      0.00200000</i>
  </separator>
  <separator name="orbital magnetization" >
   <i type="logical" name="NUCIND"> F  </i>
   <v name="MAGPOS">      0.00000000      0.00000000      0.00000000</v>
   <i type="logical" name="LNICSALL"> T  </i>
   <i type="logical" name="ORBITALMAG"> F  </i>
   <i type="logical" name="LMAGBLOCH"> F  </i>
   <i type="logical" name="LCHIMAG"> F  </i>
   <i type="logical" name="LGAUGE"> T  </i>
   <i type="int" name="MAGATOM">     0</i>
   <v name="MAGDIPOL">      0.00000000      0.00000000      0.00000000</v>
   <v name="AVECCONST">      0.00000000      0.00000000      0.00000000</v>
  </separator>
  <separator name="response functions" >
   <i type="logical" name="LADDER"> F  </i>
   <i type="logical" name="LFXC"> F  </i>
   <i type="logical" name="LHARTREE"> T  </i>
   <i type="int" name="IBSE">     0</i>
   <i type="logical" name="LTCTE"> F  </i>
   <i type="logical" name="LTETE"> F  </i>
   <i type="logical" name="LTRIPLET"> F  </i>
   <i type="logical" name="LFXCEPS"> F  </i>
   <i type="logical" name="LFXHEG"> F  </i>
   <i type="logical" name="L2ORDER"> F  </i>
   <i type="logical" name="LUSEW"> F  </i>
   <i name="ENCUTGW">     -2.00000000</i>
   <i name="ENCUTGWSOFT">     -2.00000000</i>
   <i name="ENCUTLF">     -1.00000000</i>
   <i type="int" name="LMAXMP2">    -1</i>
   <i name="SCISSOR">      0.00000000</i>
   <i type="int" name="NOMEGA">     0</i>
   <i type="int" name="NOMEGAR">     0</i>
   <i type="int" name="NBANDSGW">    -1</i>
   <i type="int" name="NBANDSO">    -1</i>
   <i type="int" name="NBANDSV">    -1</i>
   <i type="int" name="NELM">   200</i>
   <i type="int" name="DIM">     3</i>
   <i type="int" name="ANTIRES">     0</i>
   <i name="OMEGAMAX">    -30.00000000</i>
   <i name="OMEGAMIN">    -30.00000000</i>
   <i name="OMEGATL">   -200.00000000</i>
   <i type="int" name="OMEGAGRID">     0</i>
   <i name="CSHIFT">     -0.10000000</i>
   <i type="logical" name="SELFENERGY"> F  </i>
   <i type="logical" name="LSPECTRAL"> F  </i>
   <i type="logical" name="ODDONLYGW"> F  </i>
   <i type="logical" name="EVENONLYGW"> F  </i>
   <i type="int" name="NKREDLFX">     1</i>
   <i type="int" name="NKREDLFY">     1</i>
   <i type="int" name="NKREDLFZ">     1</i>
   <i type="int" name="MAXMEM">  1800</i>
   <i type="int" name="TELESCOPE">     0</i>
   <i type="int" name="TAUPAR">     1</i>
  </separator>
  <separator name="External order field" >
   <i name="OFIELD_KAPPA">      0.00000000</i>
   <v name="OFIELD_K">      0.00000000      0.00000000      0.00000000</v>
   <i name="OFIELD_Q6_NEAR">      0.00000000</i>
   <i name="OFIELD_Q6_FAR">      0.00000000</i>
   <i name="OFIELD_A">      0.00000000</i>
  </separator>
 </parameters>
 <atominfo>
  <atoms>       6 </atoms>
  <types>       3 </types>
  <array name="atoms" >
   <dimension dim="1">ion</dimension>
   <field type="string">element</field>
   <field type="int">atomtype</field>
   <set>
    <rc><c>Cu</c><c>   1</c></rc>
    <rc><c>Cu</c><c>   1</c></rc>
    <rc><c>Cu</c><c>   1</c></rc>
    <rc><c>Cu</c><c>   1</c></rc>
    <rc><c>Ag</c><c>   2</c></rc>
    <rc><c>Au</c><c>   3</c></rc>
   </set>
  </array>
  <array name="atomtypes" >
   <dimension dim="1">type</dimension>
   <field type="int">atomspertype</field>
   <field type="string">element</field>
   <field>mass</field>
   <field>valence</field>
   <field type="string">pseudopotential</field>
   <set>
    <rc><c>   4</c><c>Cu</c><c>     63.54600000</c><c>     11.00000000</c><c>  PAW_PBE Cu 22Jun2005                  </c></rc>
    <rc><c>   1</c><c>Ag</c><c>    107.86800000</c><c>     11.00000000</c><c>  PAW_PBE Ag 02Apr2005                  </c></rc>
    <rc><c>   1</c><c>Au</c><c>    196.96600000</c><c>     11.00000000</c><c>  PAW_PBE Au 04Oct2007                  </c></rc>
   </set>
  </array>
 </atominfo>
 <structure name="initialpos" >
  <crystal>
   <varray name="basis" >
    <v>       1.94900953       0.00000000       1.94900953 </v>
    <v>       0.00000000      -1.94900953      -1.94900953 </v>
    <v>       7.51949017       7.51949017      -7.51949017 </v>
   </varray>
   <i name="volume">     85.69146679 </i>
   <varray name="rec_basis" >
    <v>       0.34205408      -0.17102704       0.17102704 </v>
    <v>       0.17102704      -0.34205408      -0.17102704 </v>
    <v>       0.04432925       0.04432925      -0.04432925 </v>
   </varray>
  </crystal>
  <varray name="positions" >
   <v>       0.66666667       0.33333333       0.35484995 </v>
   <v>       0.00000000       0.00000000       0.50681100 </v>
   <v>       0.33333333       0.66666667       0.65983622 </v>
   <v>       0.66666667       0.33333333       0.81126678 </v>
   <v>       0.33333333       0.66666667       0.18263409 </v>
   <v>       0.00000000       0.00000000       0.98460196 </v>
  </varray>
 </structure>
 <calculation>
  <scstep>
   <time name="dav">    4.30    4.30</time>
   <time name="total">    4.35    4.38</time>
   <energy>
    <i name="alphaZ">    345.94013514 </i>
    <i name="ewald">  -6027.40450562 </i>
    <i name="hartreedc">  -2069.95207589 </i>
    <i name="XCdc">    187.55023153 </i>
    <i name="pawpsdc">   6790.38629219 </i>
    <i name="pawaedc">  -7144.55327756 </i>
    <i name="eentropy">     -0.00076542 </i>
    <i name="bandstr">   1005.33502764 </i>
    <i name="atom">   7527.25095326 </i>
    <i name="e_fr_energy">    614.55201527 </i>
    <i name="e_wo_entrp">    614.55278069 </i>
    <i name="e_0_energy">    614.55227041 </i>
   </energy>
  </scstep>
  <scstep>
   <time name="dav">    4.34    4.34</time>
   <time name="total">    4.35    4.37</time>
   <energy>
    <i name="e_fr_energy">     52.08661103 </i>
    <i name="e_wo_entrp">     52.08202276 </i>
    <i name="e_0_energy">     52.08508161 </i>
   </energy>
  </scstep>
  <scstep>
   <time name="dav">    4.86    4.86</time>
   <time name="total">    4.88    4.89</time>
   <energy>
    <i name="e_fr_energy">    -21.78602328 </i>
    <i name="e_wo_entrp">    -21.78879292 </i>
    <i name="e_0_energy">    -21.78694650 </i>
   </energy>
  </scstep>
  <scstep>
   <time name="dav">    5.98    5.98</time>
   <time name="total">    6.00    6.02</time>
   <energy>
    <i name="e_fr_energy">    -24.24279051 </i>
    <i name="e_wo_entrp">    -24.24519944 </i>
    <i name="e_0_energy">    -24.24359349 </i>
   </energy>
  </scstep>
  <scstep>
   <time name="dav">    6.24    6.24</time>
   <time name="total">    6.54    6.55</time>
   <energy>
    <i name="e_fr_energy">    -24.26810804 </i>
    <i name="e_wo_entrp">    -24.27050322 </i>
    <i name="e_0_energy">    -24.26890643 </i>
   </energy>
  </scstep>
  <scstep>
   <time name="diag">    1.18    1.19</time>
   <time name="diis">    1.87    1.87</time>
   <time name="orth">    0.19    0.19</time>
   <time name="total">    3.57    3.58</time>
   <energy>
    <i name="e_fr_energy">    -22.34887798 </i>
    <i name="e_wo_entrp">    -22.34828676 </i>
    <i name="e_0_energy">    -22.34868091 </i>
   </energy>
  </scstep>
  <scstep>
   <time name="diag">    1.18    1.18</time>
   <time name="diis">    1.90    1.90</time>
   <time name="orth">    0.19    0.19</time>
   <time name="total">    3.59    3.61</time>
   <energy>
    <i name="e_fr_energy">    -20.68519230 </i>
    <i name="e_wo_entrp">    -20.68636167 </i>
    <i name="e_0_energy">    -20.68558209 </i>
   </energy>
  </scstep>
  <scstep>
   <time name="diag">    1.18    1.18</time>
   <time name="diis">    1.94    1.94</time>
   <time name="orth">    0.19    0.19</time>
   <time name="total">    3.64    3.65</time>
   <energy>
    <i name="e_fr_energy">    -20.47394147 </i>
    <i name="e_wo_entrp">    -20.47360640 </i>
    <i name="e_0_energy">    -20.47382978 </i>
   </energy>
  </scstep>
  <scstep>
   <time name="diag">    1.18    1.18</time>
   <time name="diis">    1.90    1.90</time>
   <time name="orth">    0.19    0.19</time>
   <time name="total">    3.59    3.61</time>
   <energy>
    <i name="e_fr_energy">    -20.58131514 </i>
    <i name="e_wo_entrp">    -20.58118140 </i>
    <i name="e_0_energy">    -20.58127056 </i>
   </energy>
  </scstep>
  <scstep>
   <time name="diag">    1.24    1.24</time>
   <time name="diis">    1.87    1.87</time>
   <time name="orth">    0.19    0.19</time>
   <time name="total">    3.62    3.63</time>
   <energy>
    <i name="e_fr_energy">    -20.43273694 </i>
    <i name="e_wo_entrp">    -20.43191809 </i>
    <i name="e_0_energy">    -20.43246399 </i>
   </energy>
  </scstep>
  <scstep>
   <time name="diag">    1.18    1.18</time>
   <time name="diis">    1.90    1.91</time>
   <time name="orth">    0.19    0.19</time>
   <time name="total">    3.64    3.66</time>
   <energy>
    <i name="e_fr_energy">    -20.43097192 </i>
    <i name="e_wo_entrp">    -20.42999560 </i>
    <i name="e_0_energy">    -20.43064648 </i>
   </energy>
  </scstep>
  <scstep>
   <time name="diag">    1.18    1.18</time>
   <time name="diis">    2.07    2.07</time>
   <time name="orth">    0.20    0.20</time>
   <time name="total">    3.81    3.82</time>
   <energy>
    <i name="e_fr_energy">    -20.43083668 </i>
    <i name="e_wo_entrp">    -20.42985391 </i>
    <i name="e_0_energy">    -20.43050909 </i>
   </energy>
  </scstep>
  <scstep>
   <time name="diag">    1.18    1.18</time>
   <time name="diis">    2.11    2.11</time>
   <time name="orth">    0.19    0.19</time>
   <time name="total">    3.84    3.85</time>
   <energy>
    <i name="e_fr_energy">    -20.43080552 </i>
    <i name="e_wo_entrp">    -20.42986892 </i>
    <i name="e_0_energy">    -20.43049332 </i>
   </energy>
  </scstep>
  <scstep>
   <time name="diag">    1.19    1.19</time>
   <time name="diis">    1.93    1.93</time>
   <time name="orth">    0.19    0.19</time>
   <time name="total">    3.66    3.67</time>
   <energy>
    <i name="e_fr_energy">    -20.43080073 </i>
    <i name="e_wo_entrp">    -20.42985666 </i>
    <i name="e_0_energy">    -20.43048604 </i>
   </energy>
  </scstep>
  <scstep>
   <time name="diag">    1.18    1.18</time>
   <time name="diis">    1.74    1.74</time>
   <time name="orth">    0.19    0.19</time>
   <time name="total">    3.46    3.47</time>
   <energy>
    <i name="e_fr_energy">    -20.43079991 </i>
    <i name="e_wo_entrp">    -20.42985197 </i>
    <i name="e_0_energy">    -20.43048393 </i>
   </energy>
  </scstep>
  <scstep>
   <time name="diag">    1.19    1.19</time>
   <time name="diis">    1.24    1.24</time>
   <time name="orth">    0.19    0.19</time>
   <time name="total">    2.67    2.69</time>
   <energy>
    <i name="alphaZ">    345.94013514 </i>
    <i name="ewald">  -6027.40450562 </i>
    <i name="hartreedc">  -1960.96682476 </i>
    <i name="XCdc">    182.52602117 </i>
    <i name="pawpsdc">   7364.63555047 </i>
    <i name="pawaedc">  -7731.20241562 </i>
    <i name="eentropy">     -0.00094946 </i>
    <i name="bandstr">    278.79123592 </i>
    <i name="atom">   7527.25095326 </i>
    <i name="e_fr_energy">    -20.43079949 </i>
    <i name="e_wo_entrp">    -20.42985003 </i>
    <i name="e_0_energy">    -20.43048301 </i>
   </energy>
  </scstep>
  <structure>
   <crystal>
    <varray name="basis" >
     <v>       1.94900953       0.00000000       1.94900953 </v>
     <v>       0.00000000      -1.94900953      -1.94900953 </v>
     <v>       7.51949017       7.51949017      -7.51949017 </v>
    </varray>
    <i name="volume">     85.69146679 </i>
    <varray name="rec_basis" >
     <v>       0.34205408      -0.17102704       0.17102704 </v>
     <v>       0.17102704      -0.34205408      -0.17102704 </v>
     <v>       0.04432925       0.04432925      -0.04432925 </v>
    </varray>
   </crystal>
   <varray name="positions" >
    <v>       0.66666667       0.33333333       0.35484995 </v>
    <v>       0.00000000       0.00000000       0.50681100 </v>
    <v>       0.33333333       0.66666667       0.65983622 </v>
    <v>       0.66666667       0.33333333       0.81126678 </v>
    <v>       0.33333333       0.66666667       0.18263409 </v>
    <v>       0.00000000       0.00000000       0.98460196 </v>
   </varray>
  </structure>
  <varray name="forces" >
   <v>       0.00242710       0.00242710      -0.00242710 </v>
   <v>       0.00215791       0.00215791      -0.00215791 </v>
   <v>      -0.00321147      -0.00321147       0.00321147 </v>
   <v>      -0.00126524      -0.00126524       0.00126524 </v>
   <v>      -0.00352346      -0.00352346       0.00352346 </v>
   <v>       0.00341515       0.00341515      -0.00341515 </v>
  </varray>
  <varray name="stress" >
   <v>      -0.40717279      -0.07378987       0.07378987 </v>
   <v>      -0.07378987      -0.40717279       0.07378987 </v>
   <v>       0.07378987       0.07378987      -0.40717279 </v>
  </varray>
  <energy>
   <i name="e_fr_energy">    -20.43079949 </i>
   <i name="e_wo_entrp">    -20.43048301 </i>
   <i name="e_0_energy">     -0.00094946 </i>
  </energy>
  <time name="totalsc">   68.29   68.59</time>
  <eigenvalues>
   <array>
    <dimension dim="1">band</dimension>
    <dimension dim="2">kpoint</dimension>
    <dimension dim="3">spin</dimension>
    <field>eigene</field>
    <field>occ</field>
    <set>
     <set comment="spin 1">
      <set comment="kpoint 1">
       <r>   -1.7149    1.0000 </r>
       <r>   -0.5930    1.0000 </r>
       <r>    0.0288    1.0000 </r>
       <r>    0.6829    1.0000 </r>
       <r>    1.5978    1.0000 </r>
       <r>    2.6401    1.0000 </r>
       <r>    2.6401    1.0000 </r>
       <r>    2.7684    1.0000 </r>
       <r>    2.7684    1.0000 </r>
       <r>    2.8185    1.0000 </r>
       <r>    2.9334    1.0000 </r>
       <r>    3.9030    1.0000 </r>
       <r>    3.9030    1.0000 </r>
       <r>    4.1865    1.0000 </r>
       <r>    4.5175    1.0000 </r>
       <r>    4.5175    1.0000 </r>
       <r>    4.7134    1.0000 </r>
       <r>    4.7134    1.0000 </r>
       <r>    4.7662    1.0000 </r>
       <r>    4.7662    1.0000 </r>
       <r>    4.8769    1.0000 </r>
       <r>    4.9771    1.0000 </r>
       <r>    4.9771    1.0000 </r>
       <r>    5.0398    1.0000 </r>
       <r>    5.0985    1.0000 </r>
       <r>    5.1125    1.0000 </r>
       <r>    5.1125    1.0000 </r>
       <r>    5.4600    1.0000 </r>
       <r>    5.4600    1.0000 </r>
       <r>    5.5346    1.0000 </r>
       <r>    5.5346    1.0000 </r>
       <r>    5.7218    1.0000 </r>
       <r>    5.7218    1.0000 </r>
       <r>    6.0280    1.0000 </r>
       <r>    6.0280    1.0000 </r>
       <r>    7.2780    1.0227 </r>
       <r>   11.2181    0.0000 </r>
       <r>   15.8985    0.0000 </r>
       <r>   15.0070    0.0000 </r>
       <r>   20.1752    0.0000 </r>
      </set>
      <set comment="kpoint 2">
       <r>   -1.6733    1.0000 </r>
       <r>   -0.5594    1.0000 </r>
       <r>    0.0614    1.0000 </r>
       <r>    0.7113    1.0000 </r>
       <r>    1.6171    1.0000 </r>
       <r>    2.6257    1.0000 </r>
       <r>    2.6617    1.0000 </r>
       <r>    2.7472    1.0000 </r>
       <r>    2.7961    1.0000 </r>
       <r>    2.8334    1.0000 </r>
       <r>    2.9264    1.0000 </r>
       <r>    3.8666    1.0000 </r>
       <r>    3.8974    1.0000 </r>
       <r>    4.1873    1.0000 </r>
       <r>    4.4672    1.0000 </r>
       <r>    4.5159    1.0000 </r>
       <r>    4.7028    1.0000 </r>
       <r>    4.7176    1.0000 </r>
       <r>    4.7590    1.0000 </r>
       <r>    4.7762    1.0000 </r>
       <r>    4.8250    1.0000 </r>
       <r>    4.9683    1.0000 </r>
       <r>    4.9840    1.0000 </r>
       <r>    5.0285    1.0000 </r>
       <r>    5.1110    1.0000 </r>
       <r>    5.1142    1.0000 </r>
       <r>    5.1931    1.0000 </r>
       <r>    5.4503    1.0000 </r>
       <r>    5.4730    1.0000 </r>
       <r>    5.5402    1.0000 </r>
       <r>    5.5433    1.0000 </r>
       <r>    5.7261    1.0000 </r>
       <r>    5.7673    1.0000 </r>
       <r>    5.9548    1.0000 </r>
       <r>    6.0285    1.0000 </r>
       <r>    7.4119    0.8870 </r>
       <r>   11.2282    0.0000 </r>
       <r>   15.9080    0.0000 </r>
       <r>   14.8835    0.0000 </r>
       <r>   20.2290    0.0000 </r>
      </set>
      <set comment="kpoint 3">
       <r>   -1.5498    1.0000 </r>
       <r>   -0.4590    1.0000 </r>
       <r>    0.1578    1.0000 </r>
       <r>    0.7949    1.0000 </r>
       <r>    1.6732    1.0000 </r>
       <r>    2.5849    1.0000 </r>
       <r>    2.6886    1.0000 </r>
       <r>    2.7254    1.0000 </r>
       <r>    2.8705    1.0000 </r>
       <r>    2.8789    1.0000 </r>
       <r>    2.9036    1.0000 </r>
       <r>    3.7847    1.0000 </r>
       <r>    3.8810    1.0000 </r>
       <r>    4.1482    1.0000 </r>
       <r>    4.3844    1.0000 </r>
       <r>    4.5104    1.0000 </r>
       <r>    4.6677    1.0000 </r>
       <r>    4.7299    1.0000 </r>
       <r>    4.7308    1.0000 </r>
       <r>    4.7664    1.0000 </r>
       <r>    4.8052    1.0000 </r>
       <r>    4.9448    1.0000 </r>
       <r>    5.0041    1.0000 </r>
       <r>    5.0122    1.0000 </r>
       <r>    5.1204    1.0000 </r>
       <r>    5.1421    1.0000 </r>
       <r>    5.2730    1.0000 </r>
       <r>    5.4315    1.0000 </r>
       <r>    5.5039    1.0000 </r>
       <r>    5.5614    1.0000 </r>
       <r>    5.5764    1.0000 </r>
       <r>    5.7376    1.0000 </r>
       <r>    5.7787    1.0000 </r>
       <r>    5.9389    1.0000 </r>
       <r>    6.0303    1.0000 </r>
       <r>    7.7420    0.0945 </r>
       <r>   11.2590    0.0000 </r>
       <r>   15.9109    0.0000 </r>
       <r>   14.6299    0.0000 </r>
       <r>   20.5905    0.0000 </r>
      </set>
      <set comment="kpoint 4">
       <r>   -1.3488    1.0000 </r>
       <r>   -0.2939    1.0000 </r>
       <r>    0.3138    1.0000 </r>
       <r>    0.9280    1.0000 </r>
       <r>    1.7598    1.0000 </r>
       <r>    2.5242    1.0000 </r>
       <r>    2.6067    1.0000 </r>
       <r>    2.8287    1.0000 </r>
       <r>    2.8297    1.0000 </r>
       <r>    2.9412    1.0000 </r>
       <r>    3.0146    1.0000 </r>
       <r>    3.6981    1.0000 </r>
       <r>    3.8552    1.0000 </r>
       <r>    4.0512    1.0000 </r>
       <r>    4.3442    1.0000 </r>
       <r>    4.4992    1.0000 </r>
       <r>    4.6015    1.0000 </r>
       <r>    4.6805    1.0000 </r>
       <r>    4.7232    1.0000 </r>
       <r>    4.7488    1.0000 </r>
       <r>    4.8508    1.0000 </r>
       <r>    4.9207    1.0000 </r>
       <r>    5.0153    1.0000 </r>
       <r>    5.0341    1.0000 </r>
       <r>    5.1352    1.0000 </r>
       <r>    5.1798    1.0000 </r>
       <r>    5.2724    1.0000 </r>
       <r>    5.4172    1.0000 </r>
       <r>    5.4614    1.0000 </r>
       <r>    5.5742    1.0000 </r>
       <r>    5.5817    1.0000 </r>
       <r>    5.7531    1.0000 </r>
       <r>    5.8361    1.0000 </r>
       <r>    6.0336    1.0000 </r>
       <r>    6.1250    1.0000 </r>
       <r>    8.1796   -0.0073 </r>
       <r>   11.3123    0.0000 </r>
       <r>   15.1340    0.0000 </r>
       <r>   14.2017    0.0000 </r>
       <r>   20.1108    0.0000 </r>
      </set>
      <set comment="kpoint 5">
       <r>   -1.0785    1.0000 </r>
       <r>   -0.0683    1.0000 </r>
       <r>    0.5208    1.0000 </r>
       <r>    1.0973    1.0000 </r>
       <r>    1.8632    1.0000 </r>
       <r>    2.4492    1.0000 </r>
       <r>    2.5343    1.0000 </r>
       <r>    2.7195    1.0000 </r>
       <r>    2.9680    1.0000 </r>
       <r>    3.0028    1.0000 </r>
       <r>    3.1976    1.0000 </r>
       <r>    3.6372    1.0000 </r>
       <r>    3.8237    1.0000 </r>
       <r>    3.9687    1.0000 </r>
       <r>    4.3156    1.0000 </r>
       <r>    4.4808    1.0000 </r>
       <r>    4.5143    1.0000 </r>
       <r>    4.6202    1.0000 </r>
       <r>    4.6833    1.0000 </r>
       <r>    4.7696    1.0000 </r>
       <r>    4.8959    1.0000 </r>
       <r>    4.9100    1.0000 </r>
       <r>    5.0425    1.0000 </r>
       <r>    5.0669    1.0000 </r>
       <r>    5.1664    1.0000 </r>
       <r>    5.1934    1.0000 </r>
       <r>    5.2248    1.0000 </r>
       <r>    5.3718    1.0000 </r>
       <r>    5.4166    1.0000 </r>
       <r>    5.5806    1.0000 </r>
       <r>    5.6030    1.0000 </r>
       <r>    5.7693    1.0000 </r>
       <r>    6.0203    1.0000 </r>
       <r>    6.0388    1.0000 </r>
       <r>    6.3600    1.0000 </r>
       <r>    8.6832    0.0000 </r>
       <r>   11.3912    0.0000 </r>
       <r>   14.4790    0.0000 </r>
       <r>   13.8162    0.0000 </r>
       <r>   18.1640    0.0000 </r>
      </set>
      <set comment="kpoint 6">
       <r>   -0.7522    1.0000 </r>
       <r>    0.2094    1.0000 </r>
       <r>    0.7632    1.0000 </r>
       <r>    1.2752    1.0000 </r>
       <r>    1.9600    1.0000 </r>
       <r>    2.3704    1.0000 </r>
       <r>    2.5116    1.0000 </r>
       <r>    2.5904    1.0000 </r>
       <r>    3.0407    1.0000 </r>
       <r>    3.1383    1.0000 </r>
       <r>    3.4122    1.0000 </r>
       <r>    3.6267    1.0000 </r>
       <r>    3.7993    1.0000 </r>
       <r>    3.9359    1.0000 </r>
       <r>    4.2759    1.0000 </r>
       <r>    4.4241    1.0000 </r>
       <r>    4.4556    1.0000 </r>
       <r>    4.5561    1.0000 </r>
       <r>    4.6476    1.0000 </r>
       <r>    4.7859    1.0000 </r>
       <r>    4.8813    1.0000 </r>
       <r>    4.9767    1.0000 </r>
       <r>    5.0594    1.0000 </r>
       <r>    5.0970    1.0000 </r>
       <r>    5.0995    1.0000 </r>
       <r>    5.2207    1.0000 </r>
       <r>    5.2527    1.0000 </r>
       <r>    5.3367    1.0000 </r>
       <r>    5.4360    1.0000 </r>
       <r>    5.6148    1.0000 </r>
       <r>    5.6263    1.0000 </r>
       <r>    5.7839    1.0000 </r>
       <r>    6.0459    1.0000 </r>
       <r>    6.2233    1.0000 </r>
       <r>    6.6233    1.0000 </r>
       <r>    9.2339    0.0000 </r>
       <r>   11.4999    0.0000 </r>
       <r>   13.9896    0.0000 </r>
       <r>   13.7858    0.0000 </r>
       <r>   16.3640    0.0000 </r>
      </set>
      <set comment="kpoint 7">
       <r>   -0.3923    1.0000 </r>
       <r>    0.5227    1.0000 </r>
       <r>    1.0116    1.0000 </r>
       <r>    1.4136    1.0000 </r>
       <r>    2.0279    1.0000 </r>
       <r>    2.3177    1.0000 </r>
       <r>    2.4309    1.0000 </r>
       <r>    2.6476    1.0000 </r>
       <r>    3.0450    1.0000 </r>
       <r>    3.3322    1.0000 </r>
       <r>    3.5845    1.0000 </r>
       <r>    3.6760    1.0000 </r>
       <r>    3.8510    1.0000 </r>
       <r>    3.9416    1.0000 </r>
       <r>    4.2179    1.0000 </r>
       <r>    4.3475    1.0000 </r>
       <r>    4.4264    1.0000 </r>
       <r>    4.4992    1.0000 </r>
       <r>    4.6125    1.0000 </r>
       <r>    4.7916    1.0000 </r>
       <r>    4.8977    1.0000 </r>
       <r>    4.9777    1.0000 </r>
       <r>    5.0370    1.0000 </r>
       <r>    5.1008    1.0000 </r>
       <r>    5.1460    1.0000 </r>
       <r>    5.2556    1.0000 </r>
       <r>    5.2944    1.0000 </r>
       <r>    5.3654    1.0000 </r>
       <r>    5.4768    1.0000 </r>
       <r>    5.6524    1.0000 </r>
       <r>    5.6670    1.0000 </r>
       <r>    5.7961    1.0000 </r>
       <r>    6.0548    1.0000 </r>
       <r>    6.4356    1.0000 </r>
       <r>    6.9094    1.0039 </r>
       <r>    9.8194    0.0000 </r>
       <r>   11.6433    0.0000 </r>
       <r>   13.8414    0.0000 </r>
       <r>   13.9888    0.0000 </r>
       <r>   14.6732    0.0000 </r>
      </set>
      <set comment="kpoint 8">
       <r>   -0.0378    1.0000 </r>
       <r>    0.8431    1.0000 </r>
       <r>    1.2106    1.0000 </r>
       <r>    1.4876    1.0000 </r>
       <r>    2.0312    1.0000 </r>
       <r>    2.2639    1.0000 </r>
       <r>    2.5181    1.0000 </r>
       <r>    2.8260    1.0000 </r>
       <r>    3.0603    1.0000 </r>
       <r>    3.5212    1.0000 </r>
       <r>    3.6252    1.0000 </r>
       <r>    3.7551    1.0000 </r>
       <r>    3.9677    1.0000 </r>
       <r>    4.0735    1.0000 </r>
       <r>    4.1439    1.0000 </r>
       <r>    4.2952    1.0000 </r>
       <r>    4.4049    1.0000 </r>
       <r>    4.4615    1.0000 </r>
       <r>    4.5794    1.0000 </r>
       <r>    4.7850    1.0000 </r>
       <r>    4.9051    1.0000 </r>
       <r>    4.9776    1.0000 </r>
       <r>    5.0783    1.0000 </r>
       <r>    5.1128    1.0000 </r>
       <r>    5.2199    1.0000 </r>
       <r>    5.2343    1.0000 </r>
       <r>    5.3803    1.0000 </r>
       <r>    5.4468    1.0000 </r>
       <r>    5.5355    1.0000 </r>
       <r>    5.6823    1.0000 </r>
       <r>    5.7316    1.0000 </r>
       <r>    5.8063    1.0000 </r>
       <r>    6.0648    1.0000 </r>
       <r>    6.6610    1.0001 </r>
       <r>    7.2208    1.0349 </r>
       <r>   10.4287    0.0000 </r>
       <r>   11.8254    0.0000 </r>
       <r>   15.1631    0.0000 </r>
       <r>   13.9625    0.0000 </r>
       <r>   14.4352    0.0000 </r>
      </set>
      <set comment="kpoint 9">
       <r>    0.2458    1.0000 </r>
       <r>    1.1202    1.0000 </r>
       <r>    1.3147    1.0000 </r>
       <r>    1.5453    1.0000 </r>
       <r>    1.9555    1.0000 </r>
       <r>    2.3307    1.0000 </r>
       <r>    2.7676    1.0000 </r>
       <r>    2.9646    1.0000 </r>
       <r>    3.2265    1.0000 </r>
       <r>    3.5385    1.0000 </r>
       <r>    3.7909    1.0000 </r>
       <r>    3.8090    1.0000 </r>
       <r>    4.0123    1.0000 </r>
       <r>    4.0767    1.0000 </r>
       <r>    4.2673    1.0000 </r>
       <r>    4.2697    1.0000 </r>
       <r>    4.4513    1.0000 </r>
       <r>    4.4849    1.0000 </r>
       <r>    4.5688    1.0000 </r>
       <r>    4.7699    1.0000 </r>
       <r>    4.8987    1.0000 </r>
       <r>    5.0478    1.0000 </r>
       <r>    5.1070    1.0000 </r>
       <r>    5.1520    1.0000 </r>
       <r>    5.2323    1.0000 </r>
       <r>    5.3102    1.0000 </r>
       <r>    5.4722    1.0000 </r>
       <r>    5.5585    1.0000 </r>
       <r>    5.6066    1.0000 </r>
       <r>    5.7157    1.0000 </r>
       <r>    5.8041    1.0000 </r>
       <r>    5.8162    1.0000 </r>
       <r>    6.0751    1.0000 </r>
       <r>    6.9087    1.0038 </r>
       <r>    7.5654    0.5168 </r>
       <r>   11.0444    0.0000 </r>
       <r>   12.0444    0.0000 </r>
       <r>   15.1556    0.0000 </r>
       <r>   15.4178    0.0000 </r>
       <r>   13.6975    0.0000 </r>
      </set>
      <set comment="kpoint 10">
       <r>    0.3954    1.0000 </r>
       <r>    1.1810    1.0000 </r>
       <r>    1.4664    1.0000 </r>
       <r>    1.6194    1.0000 </r>
       <r>    1.9232    1.0000 </r>
       <r>    2.4879    1.0000 </r>
       <r>    3.0246    1.0000 </r>
       <r>    3.0689    1.0000 </r>
       <r>    3.4944    1.0000 </r>
       <r>    3.5575    1.0000 </r>
       <r>    3.8234    1.0000 </r>
       <r>    3.9911    1.0000 </r>
       <r>    4.0012    1.0000 </r>
       <r>    4.1065    1.0000 </r>
       <r>    4.2795    1.0000 </r>
       <r>    4.2828    1.0000 </r>
       <r>    4.4764    1.0000 </r>
       <r>    4.6206    1.0000 </r>
       <r>    4.7164    1.0000 </r>
       <r>    4.8009    1.0000 </r>
       <r>    4.9556    1.0000 </r>
       <r>    5.0790    1.0000 </r>
       <r>    5.1305    1.0000 </r>
       <r>    5.1532    1.0000 </r>
       <r>    5.3675    1.0000 </r>
       <r>    5.4035    1.0000 </r>
       <r>    5.5642    1.0000 </r>
       <r>    5.6833    1.0000 </r>
       <r>    5.7021    1.0000 </r>
       <r>    5.7507    1.0000 </r>
       <r>    5.8285    1.0000 </r>
       <r>    5.8829    1.0000 </r>
       <r>    6.0852    1.0000 </r>
       <r>    7.1927    1.0353 </r>
       <r>    7.9527   -0.0351 </r>
       <r>   11.6170    0.0000 </r>
       <r>   12.2849    0.0000 </r>
       <r>   13.9681    0.0000 </r>
       <r>   15.1790    0.0000 </r>
       <r>   15.4835    0.0000 </r>
      </set>
      <set comment="kpoint 11">
       <r>    0.4238    1.0000 </r>
       <r>    1.1205    1.0000 </r>
       <r>    1.4264    1.0000 </r>
       <r>    1.8014    1.0000 </r>
       <r>    2.0541    1.0000 </r>
       <r>    2.6648    1.0000 </r>
       <r>    3.1306    1.0000 </r>
       <r>    3.2469    1.0000 </r>
       <r>    3.4480    1.0000 </r>
       <r>    3.7620    1.0000 </r>
       <r>    3.8585    1.0000 </r>
       <r>    4.0970    1.0000 </r>
       <r>    4.1381    1.0000 </r>
       <r>    4.1497    1.0000 </r>
       <r>    4.3188    1.0000 </r>
       <r>    4.3204    1.0000 </r>
       <r>    4.6020    1.0000 </r>
       <r>    4.7139    1.0000 </r>
       <r>    4.7317    1.0000 </r>
       <r>    5.0728    1.0000 </r>
       <r>    5.0736    1.0000 </r>
       <r>    5.1242    1.0000 </r>
       <r>    5.1675    1.0000 </r>
       <r>    5.1773    1.0000 </r>
       <r>    5.4917    1.0000 </r>
       <r>    5.5720    1.0000 </r>
       <r>    5.6505    1.0000 </r>
       <r>    5.7580    1.0000 </r>
       <r>    5.7850    1.0000 </r>
       <r>    5.8465    1.0000 </r>
       <r>    5.8905    1.0000 </r>
       <r>    5.9773    1.0000 </r>
       <r>    6.0945    1.0000 </r>
       <r>    7.5283    0.6202 </r>
       <r>    8.3870   -0.0004 </r>
       <r>   11.8754    0.0000 </r>
       <r>   12.5612    0.0000 </r>
       <r>   12.9479    0.0000 </r>
       <r>   14.2750    0.0000 </r>
       <r>   14.9804    0.0000 </r>
      </set>
      <set comment="kpoint 12">
       <r>    0.3914    1.0000 </r>
       <r>    1.0467    1.0000 </r>
       <r>    1.3345    1.0000 </r>
       <r>    1.8241    1.0000 </r>
       <r>    2.3721    1.0000 </r>
       <r>    2.8156    1.0000 </r>
       <r>    3.2242    1.0000 </r>
       <r>    3.3240    1.0000 </r>
       <r>    3.4067    1.0000 </r>
       <r>    3.7701    1.0000 </r>
       <r>    3.8255    1.0000 </r>
       <r>    4.1405    1.0000 </r>
       <r>    4.1668    1.0000 </r>
       <r>    4.2750    1.0000 </r>
       <r>    4.4331    1.0000 </r>
       <r>    4.4658    1.0000 </r>
       <r>    4.6948    1.0000 </r>
       <r>    4.8131    1.0000 </r>
       <r>    4.9596    1.0000 </r>
       <r>    5.0995    1.0000 </r>
       <r>    5.1436    1.0000 </r>
       <r>    5.1603    1.0000 </r>
       <r>    5.3894    1.0000 </r>
       <r>    5.4799    1.0000 </r>
       <r>    5.5735    1.0000 </r>
       <r>    5.7257    1.0000 </r>
       <r>    5.8021    1.0000 </r>
       <r>    5.8101    1.0000 </r>
       <r>    5.8303    1.0000 </r>
       <r>    5.8723    1.0000 </r>
       <r>    6.0786    1.0000 </r>
       <r>    6.1030    1.0000 </r>
       <r>    6.2033    1.0000 </r>
       <r>    7.9210   -0.0349 </r>
       <r>    8.8479    0.0000 </r>
       <r>   11.3556    0.0000 </r>
       <r>   12.0344    0.0000 </r>
       <r>   13.0851    0.0000 </r>
       <r>   13.4416    0.0000 </r>
       <r>   14.6195    0.0000 </r>
      </set>
      <set comment="kpoint 13">
       <r>    0.3429    1.0000 </r>
       <r>    0.9815    1.0000 </r>
       <r>    1.2533    1.0000 </r>
       <r>    1.8073    1.0000 </r>
       <r>    2.6696    1.0000 </r>
       <r>    2.9221    1.0000 </r>
       <r>    3.2940    1.0000 </r>
       <r>    3.3318    1.0000 </r>
       <r>    3.3734    1.0000 </r>
       <r>    3.7792    1.0000 </r>
       <r>    3.7871    1.0000 </r>
       <r>    4.1492    1.0000 </r>
       <r>    4.1513    1.0000 </r>
       <r>    4.2830    1.0000 </r>
       <r>    4.5659    1.0000 </r>
       <r>    4.6060    1.0000 </r>
       <r>    4.6870    1.0000 </r>
       <r>    4.8854    1.0000 </r>
       <r>    5.0802    1.0000 </r>
       <r>    5.1476    1.0000 </r>
       <r>    5.1540    1.0000 </r>
       <r>    5.4958    1.0000 </r>
       <r>    5.5631    1.0000 </r>
       <r>    5.6907    1.0000 </r>
       <r>    5.7633    1.0000 </r>
       <r>    5.7855    1.0000 </r>
       <r>    5.8428    1.0000 </r>
       <r>    5.8763    1.0000 </r>
       <r>    5.9062    1.0000 </r>
       <r>    6.0554    1.0000 </r>
       <r>    6.1111    1.0000 </r>
       <r>    6.3730    1.0000 </r>
       <r>    6.6645    1.0001 </r>
       <r>    8.3493   -0.0008 </r>
       <r>    9.1952    0.0000 </r>
       <r>   10.5844    0.0000 </r>
       <r>   11.2621    0.0000 </r>
       <r>   12.3751    0.0000 </r>
       <r>   13.7660    0.0000 </r>
       <r>   14.5327    0.0000 </r>
      </set>
      <set comment="kpoint 14">
       <r>    0.3016    1.0000 </r>
       <r>    0.9342    1.0000 </r>
       <r>    1.1955    1.0000 </r>
       <r>    1.7876    1.0000 </r>
       <r>    2.8878    1.0000 </r>
       <r>    2.9929    1.0000 </r>
       <r>    3.2901    1.0000 </r>
[...]
       <r>    5.2810    1.0000 </r>
       <r>    5.4236    1.0000 </r>
       <r>    5.5167    1.0000 </r>
       <r>    5.6004    1.0000 </r>
       <r>    5.6592    1.0000 </r>
       <r>    5.7735    1.0000 </r>
       <r>    5.9072    1.0000 </r>
       <r>    5.9320    1.0000 </r>
       <r>    5.9954    1.0000 </r>
       <r>    8.3060   -0.0015 </r>
       <r>    8.9353    0.0000 </r>
       <r>   10.0084    0.0000 </r>
       <r>   10.5500    0.0000 </r>
       <r>   10.9149    0.0000 </r>
       <r>   11.4537    0.0000 </r>
       <r>   11.7404    0.0000 </r>
       <r>   12.2985    0.0000 </r>
       <r>   12.6546    0.0000 </r>
       <r>   13.2740    0.0000 </r>
      </set>
      <set comment="kpoint 394">
       <r>    1.7855    1.0000 </r>
       <r>    1.9786    1.0000 </r>
       <r>    2.0901    1.0000 </r>
       <r>    2.2761    1.0000 </r>
       <r>    2.3536    1.0000 </r>
       <r>    2.5339    1.0000 </r>
       <r>    2.6345    1.0000 </r>
       <r>    3.4126    1.0000 </r>
       <r>    3.5377    1.0000 </r>
       <r>    3.6960    1.0000 </r>
       <r>    3.7913    1.0000 </r>
       <r>    3.8717    1.0000 </r>
       <r>    3.9479    1.0000 </r>
       <r>    4.0234    1.0000 </r>
       <r>    4.0996    1.0000 </r>
       <r>    4.1865    1.0000 </r>
       <r>    4.3519    1.0000 </r>
       <r>    4.6611    1.0000 </r>
       <r>    4.6842    1.0000 </r>
       <r>    5.0774    1.0000 </r>
       <r>    5.1522    1.0000 </r>
       <r>    5.2789    1.0000 </r>
       <r>    5.4199    1.0000 </r>
       <r>    5.5365    1.0000 </r>
       <r>    5.6126    1.0000 </r>
       <r>    5.6491    1.0000 </r>
       <r>    5.7900    1.0000 </r>
       <r>    5.8928    1.0000 </r>
       <r>    5.9161    1.0000 </r>
       <r>    5.9571    1.0000 </r>
       <r>    8.9986    0.0000 </r>
       <r>    9.6184    0.0000 </r>
       <r>   10.4757    0.0000 </r>
       <r>   10.6484    0.0000 </r>
       <r>   10.9658    0.0000 </r>
       <r>   11.2193    0.0000 </r>
       <r>   11.4905    0.0000 </r>
       <r>   11.8198    0.0000 </r>
       <r>   12.6530    0.0000 </r>
       <r>   12.9766    0.0000 </r>
      </set>
      <set comment="kpoint 395">
       <r>    1.8389    1.0000 </r>
       <r>    2.0448    1.0000 </r>
       <r>    2.0890    1.0000 </r>
       <r>    2.2755    1.0000 </r>
       <r>    2.3764    1.0000 </r>
       <r>    2.5087    1.0000 </r>
       <r>    2.5662    1.0000 </r>
       <r>    3.4112    1.0000 </r>
       <r>    3.5846    1.0000 </r>
       <r>    3.6368    1.0000 </r>
       <r>    3.8357    1.0000 </r>
       <r>    3.8774    1.0000 </r>
       <r>    3.9820    1.0000 </r>
       <r>    4.0183    1.0000 </r>
       <r>    4.0467    1.0000 </r>
       <r>    4.1924    1.0000 </r>
       <r>    4.3472    1.0000 </r>
       <r>    4.6580    1.0000 </r>
       <r>    4.6816    1.0000 </r>
       <r>    5.0924    1.0000 </r>
       <r>    5.1452    1.0000 </r>
       <r>    5.2771    1.0000 </r>
       <r>    5.4180    1.0000 </r>
       <r>    5.5427    1.0000 </r>
       <r>    5.6149    1.0000 </r>
       <r>    5.6494    1.0000 </r>
       <r>    5.7965    1.0000 </r>
       <r>    5.8911    1.0000 </r>
       <r>    5.9152    1.0000 </r>
       <r>    5.9316    1.0000 </r>
       <r>    9.7110    0.0000 </r>
       <r>    9.7941    0.0000 </r>
       <r>   10.1987    0.0000 </r>
       <r>   10.6085    0.0000 </r>
       <r>   10.6838    0.0000 </r>
       <r>   11.3758    0.0000 </r>
       <r>   11.5626    0.0000 </r>
       <r>   12.1330    0.0000 </r>
       <r>   12.3464    0.0000 </r>
       <r>   12.5559    0.0000 </r>
      </set>
     </set>
    </set>
   </array>
  </eigenvalues>
  <separator name="orbital magnetization" >
   <v name="MAGDIPOLOUT">      0.00000000      0.00000000      0.00000000</v>
  </separator>
  <dos>
   <i name="efermi">      7.57136642 </i>
   <total>
    <array>
     <dimension dim="1">gridpoints</dimension>
     <dimension dim="2">spin</dimension>
     <field>energy</field>
     <field>total</field>
     <field>integrated</field>
     <set>
      <set comment="spin 1">
       <r>    -4.7149     0.0000     0.0000 </r>
       <r>    -4.6195     0.0000     0.0000 </r>
       <r>    -4.5241     0.0000     0.0000 </r>
       <r>    -4.4287     0.0000     0.0000 </r>
       <r>    -4.3333     0.0000     0.0000 </r>
       <r>    -4.2379     0.0000     0.0000 </r>
       <r>    -4.1425     0.0000     0.0000 </r>
       <r>    -4.0470     0.0000     0.0000 </r>
       <r>    -3.9516     0.0000     0.0000 </r>
       <r>    -3.8562     0.0000     0.0000 </r>
       <r>    -3.7608     0.0000     0.0000 </r>
       <r>    -3.6654     0.0000     0.0000 </r>
       <r>    -3.5700     0.0000     0.0000 </r>
       <r>    -3.4746     0.0000     0.0000 </r>
       <r>    -3.3792     0.0000     0.0000 </r>
       <r>    -3.2838     0.0000     0.0000 </r>
       <r>    -3.1884     0.0000     0.0000 </r>
       <r>    -3.0930     0.0000     0.0000 </r>
       <r>    -2.9976     0.0000     0.0000 </r>
       <r>    -2.9022     0.0000     0.0000 </r>
       <r>    -2.8068     0.0000     0.0000 </r>
       <r>    -2.7114     0.0000     0.0000 </r>
       <r>    -2.6160     0.0000     0.0000 </r>
       <r>    -2.5206     0.0000     0.0000 </r>
       <r>    -2.4252    -0.0002     0.0000 </r>
       <r>    -2.3297    -0.0007    -0.0001 </r>
       <r>    -2.2343    -0.0022    -0.0003 </r>
       <r>    -2.1389    -0.0048    -0.0008 </r>
       <r>    -2.0435    -0.0071    -0.0014 </r>
       <r>    -1.9481    -0.0041    -0.0018 </r>
       <r>    -1.8527     0.0126    -0.0006 </r>
       <r>    -1.7573     0.0490     0.0041 </r>
       <r>    -1.6619     0.1012     0.0137 </r>
       <r>    -1.5665     0.1549     0.0285 </r>
       <r>    -1.4711     0.1952     0.0471 </r>
       <r>    -1.3757     0.2164     0.0678 </r>
       <r>    -1.2803     0.2228     0.0890 </r>
       <r>    -1.1849     0.2220     0.1102 </r>
       <r>    -1.0895     0.2199     0.1312 </r>
       <r>    -0.9941     0.2207     0.1522 </r>
       <r>    -0.8987     0.2306     0.1742 </r>
       <r>    -0.8033     0.2591     0.1989 </r>
       <r>    -0.7079     0.3122     0.2287 </r>
       <r>    -0.6124     0.3820     0.2652 </r>
       <r>    -0.5170     0.4496     0.3081 </r>
       <r>    -0.4216     0.4995     0.3557 </r>
       <r>    -0.3262     0.5257     0.4059 </r>
       <r>    -0.2308     0.5303     0.4565 </r>
       <r>    -0.1354     0.5288     0.5069 </r>
       <r>    -0.0400     0.5590     0.5602 </r>
       <r>     0.0554     0.6753     0.6247 </r>
       <r>     0.1508     0.9249     0.7129 </r>
       <r>     0.2462     1.3069     0.8376 </r>
       <r>     0.3416     1.7298     1.0026 </r>
       <r>     0.4370     2.0325     1.1965 </r>
       <r>     0.5324     2.1037     1.3972 </r>
       <r>     0.6278     1.9936     1.5874 </r>
       <r>     0.7232     1.8845     1.7672 </r>
       <r>     0.8186     1.9556     1.9538 </r>
       <r>     0.9140     2.2889     2.1722 </r>
       <r>     1.0094     2.8691     2.4459 </r>
       <r>     1.1049     3.6176     2.7910 </r>
       <r>     1.2003     4.4186     3.2126 </r>
       <r>     1.2957     5.1478     3.7037 </r>
       <r>     1.3911     5.7090     4.2484 </r>
       <r>     1.4865     6.0624     4.8268 </r>
       <r>     1.5819     6.2376     5.4219 </r>
       <r>     1.6773     6.3112     6.0240 </r>
       <r>     1.7727     6.3296     6.6279 </r>
       <r>     1.8681     6.2477     7.2240 </r>
       <r>     1.9635     5.9953     7.7960 </r>
       <r>     2.0589     5.6269     8.3328 </r>
       <r>     2.1543     5.3468     8.8429 </r>
       <r>     2.2497     5.3357     9.3520 </r>
       <r>     2.3451     5.5815     9.8845 </r>
       <r>     2.4405     5.9065    10.4480 </r>
       <r>     2.5359     6.1309    11.0329 </r>
       <r>     2.6313     6.2022    11.6246 </r>
       <r>     2.7267     6.2146    12.2175 </r>
       <r>     2.8222     6.3242    12.8209 </r>
       <r>     2.9176     6.6222    13.4527 </r>
       <r>     3.0130     7.0953    14.1296 </r>
       <r>     3.1084     7.6980    14.8641 </r>
       <r>     3.2038     8.3847    15.6640 </r>
       <r>     3.2992     9.0371    16.5262 </r>
       <r>     3.3946     9.4888    17.4315 </r>
       <r>     3.4900     9.7645    18.3631 </r>
       <r>     3.5854    10.2353    19.3396 </r>
       <r>     3.6808    11.3310    20.4206 </r>
       <r>     3.7762    13.0209    21.6629 </r>
       <r>     3.8716    14.7132    23.0666 </r>
       <r>     3.9670    15.7861    24.5727 </r>
       <r>     4.0624    16.1346    26.1120 </r>
       <r>     4.1578    16.0753    27.6457 </r>
       <r>     4.2532    15.8341    29.1563 </r>
       <r>     4.3486    15.3881    30.6244 </r>
       <r>     4.4440    14.8110    32.0375 </r>
       <r>     4.5395    14.4356    33.4147 </r>
       <r>     4.6349    14.4889    34.7971 </r>
       <r>     4.7303    14.8289    36.2118 </r>
       <r>     4.8257    15.2867    37.6702 </r>
       <r>     4.9211    16.0268    39.1993 </r>
       <r>     5.0165    17.2261    40.8428 </r>
       <r>     5.1119    18.5544    42.6129 </r>
       <r>     5.2073    19.3751    44.4614 </r>
       <r>     5.3027    19.4826    46.3202 </r>
       <r>     5.3981    19.3675    48.1680 </r>
       <r>     5.4935    19.6898    50.0465 </r>
       <r>     5.5889    20.6573    52.0173 </r>
       <r>     5.6843    21.9236    54.1089 </r>
       <r>     5.7797    22.8176    56.2859 </r>
       <r>     5.8751    22.5129    58.4337 </r>
       <r>     5.9705    20.2759    60.3681 </r>
       <r>     6.0659    16.0286    61.8974 </r>
       <r>     6.1613    10.7547    62.9234 </r>
       <r>     6.2568     6.0384    63.4995 </r>
       <r>     6.3522     3.0021    63.7859 </r>
       <r>     6.4476     1.7128    63.9493 </r>
       <r>     6.5430     1.5169    64.0941 </r>
       <r>     6.6384     1.7112    64.2573 </r>
       <r>     6.7338     1.8901    64.4376 </r>
       <r>     6.8292     1.9365    64.6224 </r>
       <r>     6.9246     1.9063    64.8043 </r>
       <r>     7.0200     1.9025    64.9858 </r>
       <r>     7.1154     1.9504    65.1719 </r>
       <r>     7.2108     1.9673    65.3595 </r>
       <r>     7.3062     1.8793    65.5388 </r>
       <r>     7.4016     1.7433    65.7052 </r>
       <r>     7.4970     1.6997    65.8673 </r>
       <r>     7.5924     1.8019    66.0392 </r>
       <r>     7.6878     1.9387    66.2242 </r>
       <r>     7.7832     1.9462    66.4099 </r>
       <r>     7.8786     1.7826    66.5799 </r>
       <r>     7.9740     1.5773    66.7304 </r>
       <r>     8.0695     1.5091    66.8744 </r>
       <r>     8.1649     1.6333    67.0302 </r>
       <r>     8.2603     1.8256    67.2044 </r>
       <r>     8.3557     1.9026    67.3859 </r>
       <r>     8.4511     1.7970    67.5574 </r>
       <r>     8.5465     1.5993    67.7099 </r>
       <r>     8.6419     1.4489    67.8482 </r>
       <r>     8.7373     1.4254    67.9842 </r>
       <r>     8.8327     1.5245    68.1296 </r>
       <r>     8.9281     1.6748    68.2894 </r>
       <r>     9.0235     1.7699    68.4582 </r>
       <r>     9.1189     1.7384    68.6241 </r>
       <r>     9.2143     1.6043    68.7772 </r>
       <r>     9.3097     1.4644    68.9169 </r>
       <r>     9.4051     1.4043    69.0508 </r>
       <r>     9.5005     1.4384    69.1881 </r>
       <r>     9.5959     1.5157    69.3327 </r>
       <r>     9.6913     1.5694    69.4824 </r>
       <r>     9.7868     1.5626    69.6315 </r>
       <r>     9.8822     1.5002    69.7746 </r>
       <r>     9.9776     1.4068    69.9088 </r>
       <r>    10.0730     1.3062    70.0335 </r>
       <r>    10.1684     1.2217    70.1500 </r>
       <r>    10.2638     1.1785    70.2624 </r>
       <r>    10.3592     1.1872    70.3757 </r>
       <r>    10.4546     1.2283    70.4929 </r>
       <r>    10.5500     1.2733    70.6144 </r>
       <r>    10.6454     1.3241    70.7407 </r>
       <r>    10.7408     1.4120    70.8754 </r>
       <r>    10.8362     1.5467    71.0230 </r>
       <r>    10.9316     1.6828    71.1835 </r>
       <r>    11.0270     1.7542    71.3509 </r>
       <r>    11.1224     1.7358    71.5165 </r>
       <r>    11.2178     1.6673    71.6756 </r>
       <r>    11.3132     1.6243    71.8305 </r>
       <r>    11.4086     1.6620    71.9891 </r>
       <r>    11.5041     1.7758    72.1585 </r>
       <r>    11.5995     1.9077    72.3405 </r>
       <r>    11.6949     1.9923    72.5306 </r>
       <r>    11.7903     1.9996    72.7214 </r>
       <r>    11.8857     1.9424    72.9067 </r>
       <r>    11.9811     1.8543    73.0836 </r>
       <r>    12.0765     1.7684    73.2523 </r>
       <r>    12.1719     1.7127    73.4157 </r>
       <r>    12.2673     1.7069    73.5786 </r>
       <r>    12.3627     1.7504    73.7456 </r>
       <r>    12.4581     1.8156    73.9188 </r>
       <r>    12.5535     1.8615    74.0964 </r>
       <r>    12.6489     1.8572    74.2736 </r>
       <r>    12.7443     1.7957    74.4449 </r>
       <r>    12.8397     1.6947    74.6066 </r>
       <r>    12.9351     1.5832    74.7576 </r>
       <r>    13.0305     1.4836    74.8992 </r>
       <r>    13.1259     1.4069    75.0334 </r>
       <r>    13.2214     1.3619    75.1633 </r>
       <r>    13.3168     1.3630    75.2933 </r>
       <r>    13.4122     1.4177    75.4286 </r>
       <r>    13.5076     1.5142    75.5731 </r>
       <r>    13.6030     1.6295    75.7285 </r>
       <r>    13.6984     1.7457    75.8951 </r>
       <r>    13.7938     1.8489    76.0715 </r>
       <r>    13.8892     1.9245    76.2551 </r>
       <r>    13.9846     1.9690    76.4429 </r>
       <r>    14.0800     1.9956    76.6333 </r>
       <r>    14.1754     2.0136    76.8254 </r>
       <r>    14.2708     2.0158    77.0178 </r>
       <r>    14.3662     1.9991    77.2085 </r>
       <r>    14.4616     1.9757    77.3970 </r>
       <r>    14.5570     1.9525    77.5833 </r>
       <r>    14.6524     1.9190    77.7664 </r>
       <r>    14.7478     1.8710    77.9449 </r>
       <r>    14.8432     1.8264    78.1191 </r>
       <r>    14.9387     1.8026    78.2911 </r>
       <r>    15.0341     1.7876    78.4616 </r>
       <r>    15.1295     1.7516    78.6287 </r>
       <r>    15.2249     1.6880    78.7898 </r>
       <r>    15.3203     1.6273    78.9450 </r>
       <r>    15.4157     1.5952    79.0972 </r>
       <r>    15.5111     1.5600    79.2461 </r>
       <r>    15.6065     1.4392    79.3834 </r>
       <r>    15.7019     1.1754    79.4955 </r>
       <r>    15.7973     0.8068    79.5725 </r>
       <r>    15.8927     0.4477    79.6152 </r>
       <r>    15.9881     0.1996    79.6343 </r>
       <r>    16.0835     0.0894    79.6428 </r>
       <r>    16.1789     0.0822    79.6506 </r>
       <r>    16.2743     0.1255    79.6626 </r>
       <r>    16.3697     0.1757    79.6794 </r>
       <r>    16.4651     0.2047    79.6989 </r>
       <r>    16.5605     0.2027    79.7182 </r>
       <r>    16.6560     0.1774    79.7352 </r>
       <r>    16.7514     0.1449    79.7490 </r>
       <r>    16.8468     0.1188    79.7603 </r>
       <r>    16.9422     0.1061    79.7704 </r>
       <r>    17.0376     0.1067    79.7806 </r>
       <r>    17.1330     0.1141    79.7915 </r>
       <r>    17.2284     0.1179    79.8028 </r>
       <r>    17.3238     0.1076    79.8130 </r>
       <r>    17.4192     0.0809    79.8207 </r>
       <r>    17.5146     0.0453    79.8251 </r>
       <r>    17.6100     0.0132    79.8263 </r>
       <r>    17.7054    -0.0057    79.8258 </r>
       <r>    17.8008    -0.0058    79.8252 </r>
       <r>    17.8962     0.0178    79.8269 </r>
       <r>    17.9916     0.0672    79.8333 </r>
       <r>    18.0870     0.1323    79.8460 </r>
       <r>    18.1824     0.1882    79.8639 </r>
       <r>    18.2778     0.2075    79.8837 </r>
       <r>    18.3733     0.1816    79.9010 </r>
       <r>    18.4687     0.1262    79.9131 </r>
       <r>    18.5641     0.0676    79.9195 </r>
       <r>    18.6595     0.0254    79.9219 </r>
       <r>    18.7549     0.0068    79.9226 </r>
       <r>    18.8503     0.0097    79.9235 </r>
       <r>    18.9457     0.0247    79.9259 </r>
       <r>    19.0411     0.0387    79.9296 </r>
       <r>    19.1365     0.0420    79.9336 </r>
       <r>    19.2319     0.0360    79.9370 </r>
       <r>    19.3273     0.0309    79.9400 </r>
       <r>    19.4227     0.0345    79.9433 </r>
       <r>    19.5181     0.0438    79.9474 </r>
       <r>    19.6135     0.0503    79.9522 </r>
       <r>    19.7089     0.0497    79.9570 </r>
       <r>    19.8043     0.0458    79.9613 </r>
       <r>    19.8997     0.0448    79.9656 </r>
       <r>    19.9951     0.0481    79.9702 </r>
       <r>    20.0906     0.0513    79.9751 </r>
       <r>    20.1860     0.0499    79.9799 </r>
       <r>    20.2814     0.0433    79.9840 </r>
       <r>    20.3768     0.0346    79.9873 </r>
       <r>    20.4722     0.0267    79.9898 </r>
       <r>    20.5676     0.0208    79.9918 </r>
       <r>    20.6630     0.0172    79.9935 </r>
       <r>    20.7584     0.0159    79.9950 </r>
       <r>    20.8538     0.0163    79.9965 </r>
       <r>    20.9492     0.0159    79.9980 </r>
       <r>    21.0446     0.0127    79.9993 </r>
       <r>    21.1400     0.0074    80.0000 </r>
       <r>    21.2354     0.0025    80.0002 </r>
       <r>    21.3308    -0.0002    80.0002 </r>
       <r>    21.4262    -0.0009    80.0001 </r>
       <r>    21.5216    -0.0006    80.0000 </r>
       <r>    21.6170    -0.0003    80.0000 </r>
       <r>    21.7124    -0.0001    80.0000 </r>
       <r>    21.8079     0.0000    80.0000 </r>
       <r>    21.9033     0.0000    80.0000 </r>
       <r>    21.9987     0.0000    80.0000 </r>
       <r>    22.0941     0.0000    80.0000 </r>
       <r>    22.1895     0.0000    80.0000 </r>
       <r>    22.2849     0.0000    80.0000 </r>
       <r>    22.3803     0.0000    80.0000 </r>
       <r>    22.4757     0.0000    80.0000 </r>
       <r>    22.5711     0.0000    80.0000 </r>
       <r>    22.6665     0.0000    80.0000 </r>
       <r>    22.7619     0.0000    80.0000 </r>
       <r>    22.8573     0.0000    80.0000 </r>
       <r>    22.9527     0.0000    80.0000 </r>
       <r>    23.0481     0.0000    80.0000 </r>
       <r>    23.1435     0.0000    80.0000 </r>
       <r>    23.2389     0.0000    80.0000 </r>
       <r>    23.3343     0.0000    80.0000 </r>
       <r>    23.4297     0.0000    80.0000 </r>
       <r>    23.5252     0.0000    80.0000 </r>
       <r>    23.6206     0.0000    80.0000 </r>
       <r>    23.7160     0.0000    80.0000 </r>
       <r>    23.8114     0.0000    80.0000 </r>
       <r>    23.9068     0.0000    80.0000 </r>
      </set>
     </set>
    </array>
   </total>
  </dos>
 </calculation>
 <structure name="finalpos" >
  <crystal>
   <varray name="basis" >
    <v>       1.94900953       0.00000000       1.94900953 </v>
    <v>       0.00000000      -1.94900953      -1.94900953 </v>
    <v>       7.51949017       7.51949017      -7.51949017 </v>
   </varray>
   <i name="volume">     85.69146679 </i>
   <varray name="rec_basis" >
    <v>       0.34205408      -0.17102704       0.17102704 </v>
    <v>       0.17102704      -0.34205408      -0.17102704 </v>
    <v>       0.04432925       0.04432925      -0.04432925 </v>
   </varray>
  </crystal>
  <varray name="positions" >
   <v>       0.66666667       0.33333333       0.35484995 </v>
   <v>       0.00000000       0.00000000       0.50681100 </v>
   <v>       0.33333333       0.66666667       0.65983622 </v>
   <v>       0.66666667       0.33333333       0.81126678 </v>
   <v>       0.33333333       0.66666667       0.18263409 </v>
   <v>       0.00000000       0.00000000       0.98460196 </v>
  </varray>
 </structure>
</modeling>
