<?xml version="1.0" encoding="ISO-8859-1"?>
<modeling>
 <generator>
  <i name="program" type="string">vasp </i>
  <i name="version" type="string">5.3.5  </i>
  <i name="subversion" type="string">31Mar14 (build Jun 20 2014 13:15:13) complex                          parallel </i>
  <i name="platform" type="string">LinuxIFC </i>
  <i name="date" type="string">2025 11 21 </i>
  <i name="time" type="string">12:28:45 </i>
 </generator>
 <incar>
  <i type="string" name="PREC">accurate</i>
  <i type="int" name="IALGO">    68</i>
  <i type="logical" name="ADDGRID"> T  </i>
  <i type="int" name="NELM">   100</i>
  <i type="int" name="NELMIN">     4</i>
  <i type="int" name="IBRION">     2</i>
  <i name="EDIFF">      0.00000100</i>
  <i name="EDIFFG">     -0.02000000</i>
  <i type="int" name="NSW">    30</i>
  <i type="int" name="ISIF">     3</i>
  <i name="ENCUT">    500.00000000</i>
  <i type="logical" name="LREAL"> F  </i>
  <i type="int" name="ISMEAR">     1</i>
  <i name="SIGMA">      0.30000000</i>
  <i type="logical" name="LWAVE"> F  </i>
  <i type="logical" name="LCHARG"> F  </i>
  <i type="int" name="NELM">   100</i>
 </incar>
 <kpoints>
  <generation param="Auto">
   <i name="subdivisionlength">     70.00000000 </i>
   <v type="int" name="divisions">      25       12       11 </v>
   <v name="usershift">      0.00000000       0.00000000       0.00000000 </v>
   <v name="genvec1">      0.04000000       0.00000000       0.00000000 </v>
   <v name="genvec2">      0.00000000       0.08333333       0.00000000 </v>
   <v name="genvec3">      0.00000000       0.00000000       0.09090909 </v>
   <v name="shift">      0.00000000       0.00000000       0.00000000 </v>
  </generation>
  <varray name="kpointlist" >
   <v>       0.00000000       0.00000000       0.00000000 </v>
   <v>       0.04000000       0.00000000       0.00000000 </v>
   <v>       0.08000000       0.00000000       0.00000000 </v>
   <v>       0.12000000       0.00000000       0.00000000 </v>
   <v>       0.16000000       0.00000000       0.00000000 </v>
   <v>       0.20000000       0.00000000       0.00000000 </v>
   <v>       0.24000000       0.00000000       0.00000000 </v>
   <v>       0.28000000       0.00000000       0.00000000 </v>
   <v>       0.32000000       0.00000000       0.00000000 </v>
   <v>       0.36000000       0.00000000       0.00000000 </v>
   <v>       0.40000000       0.00000000       0.00000000 </v>
   <v>       0.44000000       0.00000000       0.00000000 </v>
   <v>       0.48000000       0.00000000       0.00000000 </v>
   <v>       0.00000000       0.08333333       0.00000000 </v>
   <v>       0.04000000       0.08333333       0.00000000 </v>
   <v>       0.08000000       0.08333333       0.00000000 </v>
   <v>       0.12000000       0.08333333       0.00000000 </v>
   <v>       0.16000000       0.08333333       0.00000000 </v>
   <v>       0.20000000       0.08333333       0.00000000 </v>
   <v>       0.24000000       0.08333333       0.00000000 </v>
   <v>       0.28000000       0.08333333       0.00000000 </v>
   <v>       0.32000000       0.08333333       0.00000000 </v>
   <v>       0.36000000       0.08333333       0.00000000 </v>
   <v>       0.40000000       0.08333333       0.00000000 </v>
   <v>       0.44000000       0.08333333       0.00000000 </v>
   <v>       0.48000000       0.08333333       0.00000000 </v>
   <v>      -0.48000000       0.08333333       0.00000000 </v>
   <v>      -0.44000000       0.08333333       0.00000000 </v>
   <v>      -0.40000000       0.08333333       0.00000000 </v>
   <v>      -0.36000000       0.08333333       0.00000000 </v>
   <v>      -0.32000000       0.08333333       0.00000000 </v>
   <v>      -0.28000000       0.08333333       0.00000000 </v>
   <v>      -0.24000000       0.08333333       0.00000000 </v>
   <v>      -0.20000000       0.08333333       0.00000000 </v>
   <v>      -0.16000000       0.08333333       0.00000000 </v>
   <v>      -0.12000000       0.08333333       0.00000000 </v>
   <v>      -0.08000000       0.08333333       0.00000000 </v>
   <v>      -0.04000000       0.08333333       0.00000000 </v>
   <v>       0.00000000       0.16666667       0.00000000 </v>
   <v>       0.04000000       0.16666667       0.00000000 </v>
   <v>       0.08000000       0.16666667       0.00000000 </v>
   <v>       0.12000000       0.16666667       0.00000000 </v>
   <v>       0.16000000       0.16666667       0.00000000 </v>
   <v>       0.20000000       0.16666667       0.00000000 </v>
   <v>       0.24000000       0.16666667       0.00000000 </v>
   <v>       0.28000000       0.16666667       0.00000000 </v>
   <v>       0.32000000       0.16666667       0.00000000 </v>
   <v>       0.36000000       0.16666667       0.00000000 </v>
   <v>       0.40000000       0.16666667       0.00000000 </v>
   <v>       0.44000000       0.16666667       0.00000000 </v>
   <v>       0.48000000       0.16666667       0.00000000 </v>
   <v>      -0.48000000       0.16666667       0.00000000 </v>
   <v>      -0.44000000       0.16666667       0.00000000 </v>
   <v>      -0.40000000       0.16666667       0.00000000 </v>
   <v>      -0.36000000       0.16666667       0.00000000 </v>
   <v>      -0.32000000       0.16666667       0.00000000 </v>
   <v>      -0.28000000       0.16666667       0.00000000 </v>
   <v>      -0.24000000       0.16666667       0.00000000 </v>
   <v>      -0.20000000       0.16666667       0.00000000 </v>
   <v>      -0.16000000       0.16666667       0.00000000 </v>
   <v>      -0.12000000       0.16666667       0.00000000 </v>
   <v>      -0.08000000       0.16666667       0.00000000 </v>
   <v>      -0.04000000       0.16666667       0.00000000 </v>
   <v>       0.00000000       0.25000000       0.00000000 </v>
   <v>       0.04000000       0.25000000       0.00000000 </v>
   <v>       0.08000000       0.25000000       0.00000000 </v>
   <v>       0.12000000       0.25000000       0.00000000 </v>
   <v>       0.16000000       0.25000000       0.00000000 </v>
   <v>       0.20000000       0.25000000       0.00000000 </v>
   <v>       0.24000000       0.25000000       0.00000000 </v>
   <v>       0.28000000       0.25000000       0.00000000 </v>
   <v>       0.32000000       0.25000000       0.00000000 </v>
   <v>       0.36000000       0.25000000       0.00000000 </v>
   <v>       0.40000000       0.25000000       0.00000000 </v>
   <v>       0.44000000       0.25000000       0.00000000 </v>
   <v>       0.48000000       0.25000000       0.00000000 </v>
   <v>      -0.48000000       0.25000000       0.00000000 </v>
   <v>      -0.44000000       0.25000000       0.00000000 </v>
   <v>      -0.40000000       0.25000000       0.00000000 </v>
   <v>      -0.36000000       0.25000000       0.00000000 </v>
   <v>      -0.32000000       0.25000000       0.00000000 </v>
   <v>      -0.28000000       0.25000000       0.00000000 </v>
   <v>      -0.24000000       0.25000000       0.00000000 </v>
   <v>      -0.20000000       0.25000000       0.00000000 </v>
   <v>      -0.16000000       0.25000000       0.00000000 </v>
   <v>      -0.12000000       0.25000000       0.00000000 </v>
   <v>      -0.08000000       0.25000000       0.00000000 </v>
   <v>      -0.04000000       0.25000000       0.00000000 </v>
   <v>       0.00000000       0.33333333       0.00000000 </v>
   <v>       0.04000000       0.33333333       0.00000000 </v>
   <v>       0.08000000       0.33333333       0.00000000 </v>
   <v>       0.12000000       0.33333333       0.00000000 </v>
   <v>       0.16000000       0.33333333       0.00000000 </v>
   <v>       0.20000000       0.33333333       0.00000000 </v>
   <v>       0.24000000       0.33333333       0.00000000 </v>
   <v>       0.28000000       0.33333333       0.00000000 </v>
   <v>       0.32000000       0.33333333       0.00000000 </v>
   <v>       0.36000000       0.33333333       0.00000000 </v>
   <v>       0.40000000       0.33333333       0.00000000 </v>
   <v>       0.44000000       0.33333333       0.00000000 </v>
   <v>       0.48000000       0.33333333       0.00000000 </v>
   <v>      -0.48000000       0.33333333       0.00000000 </v>
   <v>      -0.44000000       0.33333333       0.00000000 </v>
   <v>      -0.40000000       0.33333333       0.00000000 </v>
   <v>      -0.36000000       0.33333333       0.00000000 </v>
   <v>      -0.32000000       0.33333333       0.00000000 </v>
   <v>      -0.28000000       0.33333333       0.00000000 </v>
   <v>      -0.24000000       0.33333333       0.00000000 </v>
   <v>      -0.20000000       0.33333333       0.00000000 </v>
   <v>      -0.16000000       0.33333333       0.00000000 </v>
   <v>      -0.12000000       0.33333333       0.00000000 </v>
   <v>      -0.08000000       0.33333333       0.00000000 </v>
   <v>      -0.04000000       0.33333333       0.00000000 </v>
   <v>       0.00000000       0.41666667       0.00000000 </v>
   <v>       0.04000000       0.41666667       0.00000000 </v>
   <v>       0.08000000       0.41666667       0.00000000 </v>
   <v>       0.12000000       0.41666667       0.00000000 </v>
   <v>       0.16000000       0.41666667       0.00000000 </v>
   <v>       0.20000000       0.41666667       0.00000000 </v>
   <v>       0.24000000       0.41666667       0.00000000 </v>
   <v>       0.28000000       0.41666667       0.00000000 </v>
   <v>       0.32000000       0.41666667       0.00000000 </v>
   <v>       0.36000000       0.41666667       0.00000000 </v>
   <v>       0.40000000       0.41666667       0.00000000 </v>
   <v>       0.44000000       0.41666667       0.00000000 </v>
   <v>       0.48000000       0.41666667       0.00000000 </v>
   <v>      -0.48000000       0.41666667       0.00000000 </v>
   <v>      -0.44000000       0.41666667       0.00000000 </v>
   <v>      -0.40000000       0.41666667       0.00000000 </v>
   <v>      -0.36000000       0.41666667       0.00000000 </v>
   <v>      -0.32000000       0.41666667       0.00000000 </v>
   <v>      -0.28000000       0.41666667       0.00000000 </v>
   <v>      -0.24000000       0.41666667       0.00000000 </v>
   <v>      -0.20000000       0.41666667       0.00000000 </v>
   <v>      -0.16000000       0.41666667       0.00000000 </v>
   <v>      -0.12000000       0.41666667       0.00000000 </v>
   <v>      -0.08000000       0.41666667       0.00000000 </v>
   <v>      -0.04000000       0.41666667       0.00000000 </v>
   <v>       0.00000000       0.50000000       0.00000000 </v>
   <v>       0.04000000       0.50000000       0.00000000 </v>
   <v>       0.08000000       0.50000000       0.00000000 </v>
   <v>       0.12000000       0.50000000       0.00000000 </v>
   <v>       0.16000000       0.50000000       0.00000000 </v>
   <v>       0.20000000       0.50000000       0.00000000 </v>
   <v>       0.24000000       0.50000000       0.00000000 </v>
   <v>       0.28000000       0.50000000       0.00000000 </v>
   <v>       0.32000000       0.50000000       0.00000000 </v>
   <v>       0.36000000       0.50000000       0.00000000 </v>
   <v>       0.40000000       0.50000000       0.00000000 </v>
   <v>       0.44000000       0.50000000       0.00000000 </v>
   <v>       0.48000000       0.50000000       0.00000000 </v>
   <v>       0.00000000       0.00000000       0.09090909 </v>
   <v>       0.04000000       0.00000000       0.09090909 </v>
   <v>       0.08000000       0.00000000       0.09090909 </v>
   <v>       0.12000000       0.00000000       0.09090909 </v>
   <v>       0.16000000       0.00000000       0.09090909 </v>
   <v>       0.20000000       0.00000000       0.09090909 </v>
   <v>       0.24000000       0.00000000       0.09090909 </v>
   <v>       0.28000000       0.00000000       0.09090909 </v>
   <v>       0.32000000       0.00000000       0.09090909 </v>
   <v>       0.36000000       0.00000000       0.09090909 </v>
   <v>       0.40000000       0.00000000       0.09090909 </v>
   <v>       0.44000000       0.00000000       0.09090909 </v>
   <v>       0.48000000       0.00000000       0.09090909 </v>
   <v>      -0.48000000       0.00000000       0.09090909 </v>
   <v>      -0.44000000       0.00000000       0.09090909 </v>
   <v>      -0.40000000       0.00000000       0.09090909 </v>
   <v>      -0.36000000       0.00000000       0.09090909 </v>
   <v>      -0.32000000       0.00000000       0.09090909 </v>
   <v>      -0.28000000       0.00000000       0.09090909 </v>
   <v>      -0.24000000       0.00000000       0.09090909 </v>
   <v>      -0.20000000       0.00000000       0.09090909 </v>
   <v>      -0.16000000       0.00000000       0.09090909 </v>
   <v>      -0.12000000       0.00000000       0.09090909 </v>
   <v>      -0.08000000       0.00000000       0.09090909 </v>
   <v>      -0.04000000       0.00000000       0.09090909 </v>
   <v>       0.00000000       0.08333333       0.09090909 </v>
   <v>       0.04000000       0.08333333       0.09090909 </v>
   <v>       0.08000000       0.08333333       0.09090909 </v>
   <v>       0.12000000       0.08333333       0.09090909 </v>
   <v>       0.16000000       0.08333333       0.09090909 </v>
   <v>       0.20000000       0.08333333       0.09090909 </v>
   <v>       0.24000000       0.08333333       0.09090909 </v>
   <v>       0.28000000       0.08333333       0.09090909 </v>
   <v>       0.32000000       0.08333333       0.09090909 </v>
   <v>       0.36000000       0.08333333       0.09090909 </v>
   <v>       0.40000000       0.08333333       0.09090909 </v>
   <v>       0.44000000       0.08333333       0.09090909 </v>
   <v>       0.48000000       0.08333333       0.09090909 </v>
   <v>      -0.48000000       0.08333333       0.09090909 </v>
   <v>      -0.44000000       0.08333333       0.09090909 </v>
   <v>      -0.40000000       0.08333333       0.09090909 </v>
   <v>      -0.36000000       0.08333333       0.09090909 </v>
   <v>      -0.32000000       0.08333333       0.09090909 </v>
   <v>      -0.28000000       0.08333333       0.09090909 </v>
   <v>      -0.24000000       0.08333333       0.09090909 </v>
   <v>      -0.20000000       0.08333333       0.09090909 </v>
   <v>      -0.16000000       0.08333333       0.09090909 </v>
   <v>      -0.12000000       0.08333333       0.09090909 </v>
   <v>      -0.08000000       0.08333333       0.09090909 </v>
   <v>      -0.04000000       0.08333333       0.09090909 </v>
   <v>       0.00000000       0.16666667       0.09090909 </v>
   <v>       0.04000000       0.16666667       0.09090909 </v>
   <v>       0.08000000       0.16666667       0.09090909 </v>
   <v>       0.12000000       0.16666667       0.09090909 </v>
   <v>       0.16000000       0.16666667       0.09090909 </v>
   <v>       0.20000000       0.16666667       0.09090909 </v>
   <v>       0.24000000       0.16666667       0.09090909 </v>
   <v>       0.28000000       0.16666667       0.09090909 </v>
   <v>       0.32000000       0.16666667       0.09090909 </v>
   <v>       0.36000000       0.16666667       0.09090909 </v>
   <v>       0.40000000       0.16666667       0.09090909 </v>
   <v>       0.44000000       0.16666667       0.09090909 </v>
   <v>       0.48000000       0.16666667       0.09090909 </v>
   <v>      -0.48000000       0.16666667       0.09090909 </v>
   <v>      -0.44000000       0.16666667       0.09090909 </v>
   <v>      -0.40000000       0.16666667       0.09090909 </v>
   <v>      -0.36000000       0.16666667       0.09090909 </v>
   <v>      -0.32000000       0.16666667       0.09090909 </v>
   <v>      -0.28000000       0.16666667       0.09090909 </v>
   <v>      -0.24000000       0.16666667       0.09090909 </v>
   <v>      -0.20000000       0.16666667       0.09090909 </v>
   <v>      -0.16000000       0.16666667       0.09090909 </v>
   <v>      -0.12000000       0.16666667       0.09090909 </v>
   <v>      -0.08000000       0.16666667       0.09090909 </v>
   <v>      -0.04000000       0.16666667       0.09090909 </v>
   <v>       0.00000000       0.25000000       0.09090909 </v>
   <v>       0.04000000       0.25000000       0.09090909 </v>
   <v>       0.08000000       0.25000000       0.09090909 </v>
   <v>       0.12000000       0.25000000       0.09090909 </v>
   <v>       0.16000000       0.25000000       0.09090909 </v>
   <v>       0.20000000       0.25000000       0.09090909 </v>
   <v>       0.24000000       0.25000000       0.09090909 </v>
   <v>       0.28000000       0.25000000       0.09090909 </v>
   <v>       0.32000000       0.25000000       0.09090909 </v>
   <v>       0.36000000       0.25000000       0.09090909 </v>
   <v>       0.40000000       0.25000000       0.09090909 </v>
   <v>       0.44000000       0.25000000       0.09090909 </v>
   <v>       0.48000000       0.25000000       0.09090909 </v>
   <v>      -0.48000000       0.25000000       0.09090909 </v>
   <v>      -0.44000000       0.25000000       0.09090909 </v>
   <v>      -0.40000000       0.25000000       0.09090909 </v>
   <v>      -0.36000000       0.25000000       0.09090909 </v>
   <v>      -0.32000000       0.25000000       0.09090909 </v>
   <v>      -0.28000000       0.25000000       0.09090909 </v>
   <v>      -0.24000000       0.25000000       0.09090909 </v>
   <v>      -0.20000000       0.25000000       0.09090909 </v>
   <v>      -0.16000000       0.25000000       0.09090909 </v>
   <v>      -0.12000000       0.25000000       0.09090909 </v>
   <v>      -0.08000000       0.25000000       0.09090909 </v>
   <v>      -0.04000000       0.25000000       0.09090909 </v>
   <v>       0.00000000       0.33333333       0.09090909 </v>
   <v>       0.04000000       0.33333333       0.09090909 </v>
   <v>       0.08000000       0.33333333       0.09090909 </v>
   <v>       0.12000000       0.33333333       0.09090909 </v>
   <v>       0.16000000       0.33333333       0.09090909 </v>
   <v>       0.20000000       0.33333333       0.09090909 </v>
   <v>       0.24000000       0.33333333       0.09090909 </v>
   <v>       0.28000000       0.33333333       0.09090909 </v>
   <v>       0.32000000       0.33333333       0.09090909 </v>
   <v>       0.36000000       0.33333333       0.09090909 </v>
   <v>       0.40000000       0.33333333       0.09090909 </v>
   <v>       0.44000000       0.33333333       0.09090909 </v>
   <v>       0.48000000       0.33333333       0.09090909 </v>
   <v>      -0.48000000       0.33333333       0.09090909 </v>
   <v>      -0.44000000       0.33333333       0.09090909 </v>
   <v>      -0.40000000       0.33333333       0.09090909 </v>
   <v>      -0.36000000       0.33333333       0.09090909 </v>
   <v>      -0.32000000       0.33333333       0.09090909 </v>
   <v>      -0.28000000       0.33333333       0.09090909 </v>
   <v>      -0.24000000       0.33333333       0.09090909 </v>
   <v>      -0.20000000       0.33333333       0.09090909 </v>
   <v>      -0.16000000       0.33333333       0.09090909 </v>
   <v>      -0.12000000       0.33333333       0.09090909 </v>
   <v>      -0.08000000       0.33333333       0.09090909 </v>
   <v>      -0.04000000       0.33333333       0.09090909 </v>
   <v>       0.00000000       0.41666667       0.09090909 </v>
   <v>       0.04000000       0.41666667       0.09090909 </v>
   <v>       0.08000000       0.41666667       0.09090909 </v>
   <v>       0.12000000       0.41666667       0.09090909 </v>
   <v>       0.16000000       0.41666667       0.09090909 </v>
   <v>       0.20000000       0.41666667       0.09090909 </v>
   <v>       0.24000000       0.41666667       0.09090909 </v>
   <v>       0.28000000       0.41666667       0.09090909 </v>
   <v>       0.32000000       0.41666667       0.09090909 </v>
   <v>       0.36000000       0.41666667       0.09090909 </v>
   <v>       0.40000000       0.41666667       0.09090909 </v>
   <v>       0.44000000       0.41666667       0.09090909 </v>
   <v>       0.48000000       0.41666667       0.09090909 </v>
   <v>      -0.48000000       0.41666667       0.09090909 </v>
   <v>      -0.44000000       0.41666667       0.09090909 </v>
   <v>      -0.40000000       0.41666667       0.09090909 </v>
   <v>      -0.36000000       0.41666667       0.09090909 </v>
   <v>      -0.32000000       0.41666667       0.09090909 </v>
   <v>      -0.28000000       0.41666667       0.09090909 </v>
   <v>      -0.24000000       0.41666667       0.09090909 </v>
   <v>      -0.20000000       0.41666667       0.09090909 </v>
   <v>      -0.16000000       0.41666667       0.09090909 </v>
   <v>      -0.12000000       0.41666667       0.09090909 </v>
   <v>      -0.08000000       0.41666667       0.09090909 </v>
   <v>      -0.04000000       0.41666667       0.09090909 </v>
   <v>       0.00000000       0.50000000       0.09090909 </v>
   <v>       0.04000000       0.50000000       0.09090909 </v>
   <v>       0.08000000       0.50000000       0.09090909 </v>
   <v>       0.12000000       0.50000000       0.09090909 </v>
   <v>       0.16000000       0.50000000       0.09090909 </v>
   <v>       0.20000000       0.50000000       0.09090909 </v>
   <v>       0.24000000       0.50000000       0.09090909 </v>
   <v>       0.28000000       0.50000000       0.09090909 </v>
   <v>       0.32000000       0.50000000       0.09090909 </v>
   <v>       0.36000000       0.50000000       0.09090909 </v>
   <v>       0.40000000       0.50000000       0.09090909 </v>
   <v>       0.44000000       0.50000000       0.09090909 </v>
   <v>       0.48000000       0.50000000       0.09090909 </v>
   <v>      -0.48000000       0.50000000       0.09090909 </v>
   <v>      -0.44000000       0.50000000       0.09090909 </v>
   <v>      -0.40000000       0.50000000       0.09090909 </v>
   <v>      -0.36000000       0.50000000       0.09090909 </v>
   <v>      -0.32000000       0.50000000       0.09090909 </v>
   <v>      -0.28000000       0.50000000       0.09090909 </v>
   <v>      -0.24000000       0.50000000       0.09090909 </v>
   <v>      -0.20000000       0.50000000       0.09090909 </v>
   <v>      -0.16000000       0.50000000       0.09090909 </v>
   <v>      -0.12000000       0.50000000       0.09090909 </v>
   <v>      -0.08000000       0.50000000       0.09090909 </v>
   <v>      -0.04000000       0.50000000       0.09090909 </v>
   <v>       0.00000000      -0.41666667       0.09090909 </v>
   <v>       0.04000000      -0.41666667       0.09090909 </v>
   <v>       0.08000000      -0.41666667       0.09090909 </v>
   <v>       0.12000000      -0.41666667       0.09090909 </v>
   <v>       0.16000000      -0.41666667       0.09090909 </v>
   <v>       0.20000000      -0.41666667       0.09090909 </v>
   <v>       0.24000000      -0.41666667       0.09090909 </v>
   <v>       0.28000000      -0.41666667       0.09090909 </v>
   <v>       0.32000000      -0.41666667       0.09090909 </v>
   <v>       0.36000000      -0.41666667       0.09090909 </v>
   <v>       0.40000000      -0.41666667       0.09090909 </v>
   <v>       0.44000000      -0.41666667       0.09090909 </v>
   <v>       0.48000000      -0.41666667       0.09090909 </v>
   <v>      -0.48000000      -0.41666667       0.09090909 </v>
   <v>      -0.44000000      -0.41666667       0.09090909 </v>
   <v>      -0.40000000      -0.41666667       0.09090909 </v>
   <v>      -0.36000000      -0.41666667       0.09090909 </v>
   <v>      -0.32000000      -0.41666667       0.09090909 </v>
   <v>      -0.28000000      -0.41666667       0.09090909 </v>
   <v>      -0.24000000      -0.41666667       0.09090909 </v>
   <v>      -0.20000000      -0.41666667       0.09090909 </v>
   <v>      -0.16000000      -0.41666667       0.09090909 </v>
   <v>      -0.12000000      -0.41666667       0.09090909 </v>
   <v>      -0.08000000      -0.41666667       0.09090909 </v>
   <v>      -0.04000000      -0.41666667       0.09090909 </v>
   <v>       0.00000000      -0.33333333       0.09090909 </v>
   <v>       0.04000000      -0.33333333       0.09090909 </v>
   <v>       0.08000000      -0.33333333       0.09090909 </v>
   <v>       0.12000000      -0.33333333       0.09090909 </v>
   <v>       0.16000000      -0.33333333       0.09090909 </v>
   <v>       0.20000000      -0.33333333       0.09090909 </v>
   <v>       0.24000000      -0.33333333       0.09090909 </v>
   <v>       0.28000000      -0.33333333       0.09090909 </v>
   <v>       0.32000000      -0.33333333       0.09090909 </v>
   <v>       0.36000000      -0.33333333       0.09090909 </v>
   <v>       0.40000000      -0.33333333       0.09090909 </v>
   <v>       0.44000000      -0.33333333       0.09090909 </v>
   <v>       0.48000000      -0.33333333       0.09090909 </v>
   <v>      -0.48000000      -0.33333333       0.09090909 </v>
   <v>      -0.44000000      -0.33333333       0.09090909 </v>
   <v>      -0.40000000      -0.33333333       0.09090909 </v>
   <v>      -0.36000000      -0.33333333       0.09090909 </v>
   <v>      -0.32000000      -0.33333333       0.09090909 </v>
   <v>      -0.28000000      -0.33333333       0.09090909 </v>
   <v>      -0.24000000      -0.33333333       0.09090909 </v>
   <v>      -0.20000000      -0.33333333       0.09090909 </v>
   <v>      -0.16000000      -0.33333333       0.09090909 </v>
   <v>      -0.12000000      -0.33333333       0.09090909 </v>
   <v>      -0.08000000      -0.33333333       0.09090909 </v>
   <v>      -0.04000000      -0.33333333       0.09090909 </v>
   <v>       0.00000000      -0.25000000       0.09090909 </v>
   <v>       0.04000000      -0.25000000       0.09090909 </v>
   <v>       0.08000000      -0.25000000       0.09090909 </v>
   <v>       0.12000000      -0.25000000       0.09090909 </v>
   <v>       0.16000000      -0.25000000       0.09090909 </v>
   <v>       0.20000000      -0.25000000       0.09090909 </v>
   <v>       0.24000000      -0.25000000       0.09090909 </v>
   <v>       0.28000000      -0.25000000       0.09090909 </v>
   <v>       0.32000000      -0.25000000       0.09090909 </v>
   <v>       0.36000000      -0.25000000       0.09090909 </v>
   <v>       0.40000000      -0.25000000       0.09090909 </v>
   <v>       0.44000000      -0.25000000       0.09090909 </v>
   <v>       0.48000000      -0.25000000       0.09090909 </v>
   <v>      -0.48000000      -0.25000000       0.09090909 </v>
   <v>      -0.44000000      -0.25000000       0.09090909 </v>
   <v>      -0.40000000      -0.25000000       0.09090909 </v>
   <v>      -0.36000000      -0.25000000       0.09090909 </v>
   <v>      -0.32000000      -0.25000000       0.09090909 </v>
   <v>      -0.28000000      -0.25000000       0.09090909 </v>
   <v>      -0.24000000      -0.25000000       0.09090909 </v>
   <v>      -0.20000000      -0.25000000       0.09090909 </v>
   <v>      -0.16000000      -0.25000000       0.09090909 </v>
   <v>      -0.12000000      -0.25000000       0.09090909 </v>
   <v>      -0.08000000      -0.25000000       0.09090909 </v>
   <v>      -0.04000000      -0.25000000       0.09090909 </v>
   <v>       0.00000000      -0.16666667       0.09090909 </v>
   <v>       0.04000000      -0.16666667       0.09090909 </v>
   <v>       0.08000000      -0.16666667       0.09090909 </v>
   <v>       0.12000000      -0.16666667       0.09090909 </v>
   <v>       0.16000000      -0.16666667       0.09090909 </v>
   <v>       0.20000000      -0.16666667       0.09090909 </v>
   <v>       0.24000000      -0.16666667       0.09090909 </v>
   <v>       0.28000000      -0.16666667       0.09090909 </v>
   <v>       0.32000000      -0.16666667       0.09090909 </v>
   <v>       0.36000000      -0.16666667       0.09090909 </v>
   <v>       0.40000000      -0.16666667       0.09090909 </v>
   <v>       0.44000000      -0.16666667       0.09090909 </v>
   <v>       0.48000000      -0.16666667       0.09090909 </v>
   <v>      -0.48000000      -0.16666667       0.09090909 </v>
   <v>      -0.44000000      -0.16666667       0.09090909 </v>
   <v>      -0.40000000      -0.16666667       0.09090909 </v>
   <v>      -0.36000000      -0.16666667       0.09090909 </v>
   <v>      -0.32000000      -0.16666667       0.09090909 </v>
   <v>      -0.28000000      -0.16666667       0.09090909 </v>
   <v>      -0.24000000      -0.16666667       0.09090909 </v>
   <v>      -0.20000000      -0.16666667       0.09090909 </v>
   <v>      -0.16000000      -0.16666667       0.09090909 </v>
   <v>      -0.12000000      -0.16666667       0.09090909 </v>
   <v>      -0.08000000      -0.16666667       0.09090909 </v>
   <v>      -0.04000000      -0.16666667       0.09090909 </v>
   <v>       0.00000000      -0.08333333       0.09090909 </v>
   <v>       0.04000000      -0.08333333       0.09090909 </v>
   <v>       0.08000000      -0.08333333       0.09090909 </v>
   <v>       0.12000000      -0.08333333       0.09090909 </v>
   <v>       0.16000000      -0.08333333       0.09090909 </v>
   <v>       0.20000000      -0.08333333       0.09090909 </v>
   <v>       0.24000000      -0.08333333       0.09090909 </v>
   <v>       0.28000000      -0.08333333       0.09090909 </v>
   <v>       0.32000000      -0.08333333       0.09090909 </v>
   <v>       0.36000000      -0.08333333       0.09090909 </v>
   <v>       0.40000000      -0.08333333       0.09090909 </v>
   <v>       0.44000000      -0.08333333       0.09090909 </v>
   <v>       0.48000000      -0.08333333       0.09090909 </v>
   <v>      -0.48000000      -0.08333333       0.09090909 </v>
   <v>      -0.44000000      -0.08333333       0.09090909 </v>
   <v>      -0.40000000      -0.08333333       0.09090909 </v>
   <v>      -0.36000000      -0.08333333       0.09090909 </v>
   <v>      -0.32000000      -0.08333333       0.09090909 </v>
   <v>      -0.28000000      -0.08333333       0.09090909 </v>
   <v>      -0.24000000      -0.08333333       0.09090909 </v>
   <v>      -0.20000000      -0.08333333       0.09090909 </v>
   <v>      -0.16000000      -0.08333333       0.09090909 </v>
   <v>      -0.12000000      -0.08333333       0.09090909 </v>
   <v>      -0.08000000      -0.08333333       0.09090909 </v>
   <v>      -0.04000000      -0.08333333       0.09090909 </v>
   <v>       0.00000000       0.00000000       0.18181818 </v>
   <v>       0.04000000       0.00000000       0.18181818 </v>
   <v>       0.08000000       0.00000000       0.18181818 </v>
   <v>       0.12000000       0.00000000       0.18181818 </v>
   <v>       0.16000000       0.00000000       0.18181818 </v>
   <v>       0.20000000       0.00000000       0.18181818 </v>
   <v>       0.24000000       0.00000000       0.18181818 </v>
   <v>       0.28000000       0.00000000       0.18181818 </v>
   <v>       0.32000000       0.00000000       0.18181818 </v>
   <v>       0.36000000       0.00000000       0.18181818 </v>
   <v>       0.40000000       0.00000000       0.18181818 </v>
   <v>       0.44000000       0.00000000       0.18181818 </v>
   <v>       0.48000000       0.00000000       0.18181818 </v>
   <v>      -0.48000000       0.00000000       0.18181818 </v>
   <v>      -0.44000000       0.00000000       0.18181818 </v>
   <v>      -0.40000000       0.00000000       0.18181818 </v>
   <v>      -0.36000000       0.00000000       0.18181818 </v>
   <v>      -0.32000000       0.00000000       0.18181818 </v>
   <v>      -0.28000000       0.00000000       0.18181818 </v>
   <v>      -0.24000000       0.00000000       0.18181818 </v>
   <v>      -0.20000000       0.00000000       0.18181818 </v>
   <v>      -0.16000000       0.00000000       0.18181818 </v>
   <v>      -0.12000000       0.00000000       0.18181818 </v>
   <v>      -0.08000000       0.00000000       0.18181818 </v>
   <v>      -0.04000000       0.00000000       0.18181818 </v>
   <v>       0.00000000       0.08333333       0.18181818 </v>
   <v>       0.04000000       0.08333333       0.18181818 </v>
   <v>       0.08000000       0.08333333       0.18181818 </v>
   <v>       0.12000000       0.08333333       0.18181818 </v>
   <v>       0.16000000       0.08333333       0.18181818 </v>
   <v>       0.20000000       0.08333333       0.18181818 </v>
   <v>       0.24000000       0.08333333       0.18181818 </v>
   <v>       0.28000000       0.08333333       0.18181818 </v>
   <v>       0.32000000       0.08333333       0.18181818 </v>
   <v>       0.36000000       0.08333333       0.18181818 </v>
   <v>       0.40000000       0.08333333       0.18181818 </v>
   <v>       0.44000000       0.08333333       0.18181818 </v>
   <v>       0.48000000       0.08333333       0.18181818 </v>
   <v>      -0.48000000       0.08333333       0.18181818 </v>
   <v>      -0.44000000       0.08333333       0.18181818 </v>
   <v>      -0.40000000       0.08333333       0.18181818 </v>
   <v>      -0.36000000       0.08333333       0.18181818 </v>
   <v>      -0.32000000       0.08333333       0.18181818 </v>
   <v>      -0.28000000       0.08333333       0.18181818 </v>
   <v>      -0.24000000       0.08333333       0.18181818 </v>
   <v>      -0.20000000       0.08333333       0.18181818 </v>
   <v>      -0.16000000       0.08333333       0.18181818 </v>
   <v>      -0.12000000       0.08333333       0.18181818 </v>
   <v>      -0.08000000       0.08333333       0.18181818 </v>
   <v>      -0.04000000       0.08333333       0.18181818 </v>
   <v>       0.00000000       0.16666667       0.18181818 </v>
   <v>       0.04000000       0.16666667       0.18181818 </v>
   <v>       0.08000000       0.16666667       0.18181818 </v>
   <v>       0.12000000       0.16666667       0.18181818 </v>
   <v>       0.16000000       0.16666667       0.18181818 </v>
   <v>       0.20000000       0.16666667       0.18181818 </v>
   <v>       0.24000000       0.16666667       0.18181818 </v>
   <v>       0.28000000       0.16666667       0.18181818 </v>
   <v>       0.32000000       0.16666667       0.18181818 </v>
   <v>       0.36000000       0.16666667       0.18181818 </v>
   <v>       0.40000000       0.16666667       0.18181818 </v>
   <v>       0.44000000       0.16666667       0.18181818 </v>
   <v>       0.48000000       0.16666667       0.18181818 </v>
   <v>      -0.48000000       0.16666667       0.18181818 </v>
   <v>      -0.44000000       0.16666667       0.18181818 </v>
   <v>      -0.40000000       0.16666667       0.18181818 </v>
   <v>      -0.36000000       0.16666667       0.18181818 </v>
   <v>      -0.32000000       0.16666667       0.18181818 </v>
   <v>      -0.28000000       0.16666667       0.18181818 </v>
   <v>      -0.24000000       0.16666667       0.18181818 </v>
   <v>      -0.20000000       0.16666667       0.18181818 </v>
   <v>      -0.16000000       0.16666667       0.18181818 </v>
   <v>      -0.12000000       0.16666667       0.18181818 </v>
   <v>      -0.08000000       0.16666667       0.18181818 </v>
   <v>      -0.04000000       0.16666667       0.18181818 </v>
   <v>       0.00000000       0.25000000       0.18181818 </v>
   <v>       0.04000000       0.25000000       0.18181818 </v>
   <v>       0.08000000       0.25000000       0.18181818 </v>
   <v>       0.12000000       0.25000000       0.18181818 </v>
   <v>       0.16000000       0.25000000       0.18181818 </v>
   <v>       0.20000000       0.25000000       0.18181818 </v>
   <v>       0.24000000       0.25000000       0.18181818 </v>
   <v>       0.28000000       0.25000000       0.18181818 </v>
   <v>       0.32000000       0.25000000       0.18181818 </v>
   <v>       0.36000000       0.25000000       0.18181818 </v>
   <v>       0.40000000       0.25000000       0.18181818 </v>
   <v>       0.44000000       0.25000000       0.18181818 </v>
   <v>       0.48000000       0.25000000       0.18181818 </v>
   <v>      -0.48000000       0.25000000       0.18181818 </v>
   <v>      -0.44000000       0.25000000       0.18181818 </v>
   <v>      -0.40000000       0.25000000       0.18181818 </v>
   <v>      -0.36000000       0.25000000       0.18181818 </v>
   <v>      -0.32000000       0.25000000       0.18181818 </v>
   <v>      -0.28000000       0.25000000       0.18181818 </v>
   <v>      -0.24000000       0.25000000       0.18181818 </v>
   <v>      -0.20000000       0.25000000       0.18181818 </v>
   <v>      -0.16000000       0.25000000       0.18181818 </v>
   <v>      -0.12000000       0.25000000       0.18181818 </v>
   <v>      -0.08000000       0.25000000       0.18181818 </v>
   <v>      -0.04000000       0.25000000       0.18181818 </v>
   <v>       0.00000000       0.33333333       0.18181818 </v>
   <v>       0.04000000       0.33333333       0.18181818 </v>
   <v>       0.08000000       0.33333333       0.18181818 </v>
   <v>       0.12000000       0.33333333       0.18181818 </v>
   <v>       0.16000000       0.33333333       0.18181818 </v>
   <v>       0.20000000       0.33333333       0.18181818 </v>
   <v>       0.24000000       0.33333333       0.18181818 </v>
   <v>       0.28000000       0.33333333       0.18181818 </v>
   <v>       0.32000000       0.33333333       0.18181818 </v>
   <v>       0.36000000       0.33333333       0.18181818 </v>
   <v>       0.40000000       0.33333333       0.18181818 </v>
   <v>       0.44000000       0.33333333       0.18181818 </v>
   <v>       0.48000000       0.33333333       0.18181818 </v>
   <v>      -0.48000000       0.33333333       0.18181818 </v>
   <v>      -0.44000000       0.33333333       0.18181818 </v>
   <v>      -0.40000000       0.33333333       0.18181818 </v>
   <v>      -0.36000000       0.33333333       0.18181818 </v>
   <v>      -0.32000000       0.33333333       0.18181818 </v>
   <v>      -0.28000000       0.33333333       0.18181818 </v>
   <v>      -0.24000000       0.33333333       0.18181818 </v>
   <v>      -0.20000000       0.33333333       0.18181818 </v>
   <v>      -0.16000000       0.33333333       0.18181818 </v>
   <v>      -0.12000000       0.33333333       0.18181818 </v>
   <v>      -0.08000000       0.33333333       0.18181818 </v>
   <v>      -0.04000000       0.33333333       0.18181818 </v>
   <v>       0.00000000       0.41666667       0.18181818 </v>
   <v>       0.04000000       0.41666667       0.18181818 </v>
   <v>       0.08000000       0.41666667       0.18181818 </v>
   <v>       0.12000000       0.41666667       0.18181818 </v>
   <v>       0.16000000       0.41666667       0.18181818 </v>
   <v>       0.20000000       0.41666667       0.18181818 </v>
   <v>       0.24000000       0.41666667       0.18181818 </v>
   <v>       0.28000000       0.41666667       0.18181818 </v>
   <v>       0.32000000       0.41666667       0.18181818 </v>
   <v>       0.36000000       0.41666667       0.18181818 </v>
   <v>       0.40000000       0.41666667       0.18181818 </v>
   <v>       0.44000000       0.41666667       0.18181818 </v>
   <v>       0.48000000       0.41666667       0.18181818 </v>
   <v>      -0.48000000       0.41666667       0.18181818 </v>
   <v>      -0.44000000       0.41666667       0.18181818 </v>
   <v>      -0.40000000       0.41666667       0.18181818 </v>
   <v>      -0.36000000       0.41666667       0.18181818 </v>
   <v>      -0.32000000       0.41666667       0.18181818 </v>
   <v>      -0.28000000       0.41666667       0.18181818 </v>
   <v>      -0.24000000       0.41666667       0.18181818 </v>
   <v>      -0.20000000       0.41666667       0.18181818 </v>
   <v>      -0.16000000       0.41666667       0.18181818 </v>
   <v>      -0.12000000       0.41666667       0.18181818 </v>
   <v>      -0.08000000       0.41666667       0.18181818 </v>
   <v>      -0.04000000       0.41666667       0.18181818 </v>
   <v>       0.00000000       0.50000000       0.18181818 </v>
   <v>       0.04000000       0.50000000       0.18181818 </v>
   <v>       0.08000000       0.50000000       0.18181818 </v>
   <v>       0.12000000       0.50000000       0.18181818 </v>
   <v>       0.16000000       0.50000000       0.18181818 </v>
   <v>       0.20000000       0.50000000       0.18181818 </v>
   <v>       0.24000000       0.50000000       0.18181818 </v>
   <v>       0.28000000       0.50000000       0.18181818 </v>
   <v>       0.32000000       0.50000000       0.18181818 </v>
   <v>       0.36000000       0.50000000       0.18181818 </v>
   <v>       0.40000000       0.50000000       0.18181818 </v>
   <v>       0.44000000       0.50000000       0.18181818 </v>
   <v>       0.48000000       0.50000000       0.18181818 </v>
   <v>      -0.48000000       0.50000000       0.18181818 </v>
   <v>      -0.44000000       0.50000000       0.18181818 </v>
   <v>      -0.40000000       0.50000000       0.18181818 </v>
   <v>      -0.36000000       0.50000000       0.18181818 </v>
   <v>      -0.32000000       0.50000000       0.18181818 </v>
   <v>      -0.28000000       0.50000000       0.18181818 </v>
   <v>      -0.24000000       0.50000000       0.18181818 </v>
   <v>      -0.20000000       0.50000000       0.18181818 </v>
   <v>      -0.16000000       0.50000000       0.18181818 </v>
   <v>      -0.12000000       0.50000000       0.18181818 </v>
   <v>      -0.08000000       0.50000000       0.18181818 </v>
   <v>      -0.04000000       0.50000000       0.18181818 </v>
   <v>       0.00000000      -0.41666667       0.18181818 </v>
   <v>       0.04000000      -0.41666667       0.18181818 </v>
   <v>       0.08000000      -0.41666667       0.18181818 </v>
   <v>       0.12000000      -0.41666667       0.18181818 </v>
   <v>       0.16000000      -0.41666667       0.18181818 </v>
   <v>       0.20000000      -0.41666667       0.18181818 </v>
   <v>       0.24000000      -0.41666667       0.18181818 </v>
   <v>       0.28000000      -0.41666667       0.18181818 </v>
   <v>       0.32000000      -0.41666667       0.18181818 </v>
   <v>       0.36000000      -0.41666667       0.18181818 </v>
   <v>       0.40000000      -0.41666667       0.18181818 </v>
   <v>       0.44000000      -0.41666667       0.18181818 </v>
   <v>       0.48000000      -0.41666667       0.18181818 </v>
   <v>      -0.48000000      -0.41666667       0.18181818 </v>
   <v>      -0.44000000      -0.41666667       0.18181818 </v>
   <v>      -0.40000000      -0.41666667       0.18181818 </v>
   <v>      -0.36000000      -0.41666667       0.18181818 </v>
   <v>      -0.32000000      -0.41666667       0.18181818 </v>
   <v>      -0.28000000      -0.41666667       0.18181818 </v>
   <v>      -0.24000000      -0.41666667       0.18181818 </v>
   <v>      -0.20000000      -0.41666667       0.18181818 </v>
   <v>      -0.16000000      -0.41666667       0.18181818 </v>
   <v>      -0.12000000      -0.41666667       0.18181818 </v>
   <v>      -0.08000000      -0.41666667       0.18181818 </v>
   <v>      -0.04000000      -0.41666667       0.18181818 </v>
   <v>       0.00000000      -0.33333333       0.18181818 </v>
   <v>       0.04000000      -0.33333333       0.18181818 </v>
   <v>       0.08000000      -0.33333333       0.18181818 </v>
   <v>       0.12000000      -0.33333333       0.18181818 </v>
   <v>       0.16000000      -0.33333333       0.18181818 </v>
   <v>       0.20000000      -0.33333333       0.18181818 </v>
   <v>       0.24000000      -0.33333333       0.18181818 </v>
   <v>       0.28000000      -0.33333333       0.18181818 </v>
   <v>       0.32000000      -0.33333333       0.18181818 </v>
   <v>       0.36000000      -0.33333333       0.18181818 </v>
   <v>       0.40000000      -0.33333333       0.18181818 </v>
   <v>       0.44000000      -0.33333333       0.18181818 </v>
   <v>       0.48000000      -0.33333333       0.18181818 </v>
   <v>      -0.48000000      -0.33333333       0.18181818 </v>
   <v>      -0.44000000      -0.33333333       0.18181818 </v>
   <v>      -0.40000000      -0.33333333       0.18181818 </v>
   <v>      -0.36000000      -0.33333333       0.18181818 </v>
   <v>      -0.32000000      -0.33333333       0.18181818 </v>
   <v>      -0.28000000      -0.33333333       0.18181818 </v>
   <v>      -0.24000000      -0.33333333       0.18181818 </v>
   <v>      -0.20000000      -0.33333333       0.18181818 </v>
   <v>      -0.16000000      -0.33333333       0.18181818 </v>
   <v>      -0.12000000      -0.33333333       0.18181818 </v>
   <v>      -0.08000000      -0.33333333       0.18181818 </v>
   <v>      -0.04000000      -0.33333333       0.18181818 </v>
   <v>       0.00000000      -0.25000000       0.18181818 </v>
   <v>       0.04000000      -0.25000000       0.18181818 </v>
   <v>       0.08000000      -0.25000000       0.18181818 </v>
   <v>       0.12000000      -0.25000000       0.18181818 </v>
   <v>       0.16000000      -0.25000000       0.18181818 </v>
   <v>       0.20000000      -0.25000000       0.18181818 </v>
   <v>       0.24000000      -0.25000000       0.18181818 </v>
   <v>       0.28000000      -0.25000000       0.18181818 </v>
   <v>       0.32000000      -0.25000000       0.18181818 </v>
   <v>       0.36000000      -0.25000000       0.18181818 </v>
   <v>       0.40000000      -0.25000000       0.18181818 </v>
   <v>       0.44000000      -0.25000000       0.18181818 </v>
   <v>       0.48000000      -0.25000000       0.18181818 </v>
   <v>      -0.48000000      -0.25000000       0.18181818 </v>
   <v>      -0.44000000      -0.25000000       0.18181818 </v>
   <v>      -0.40000000      -0.25000000       0.18181818 </v>
   <v>      -0.36000000      -0.25000000       0.18181818 </v>
   <v>      -0.32000000      -0.25000000       0.18181818 </v>
   <v>      -0.28000000      -0.25000000       0.18181818 </v>
   <v>      -0.24000000      -0.25000000       0.18181818 </v>
   <v>      -0.20000000      -0.25000000       0.18181818 </v>
   <v>      -0.16000000      -0.25000000       0.18181818 </v>
   <v>      -0.12000000      -0.25000000       0.18181818 </v>
   <v>      -0.08000000      -0.25000000       0.18181818 </v>
   <v>      -0.04000000      -0.25000000       0.18181818 </v>
   <v>       0.00000000      -0.16666667       0.18181818 </v>
   <v>       0.04000000      -0.16666667       0.18181818 </v>
   <v>       0.08000000      -0.16666667       0.18181818 </v>
   <v>       0.12000000      -0.16666667       0.18181818 </v>
   <v>       0.16000000      -0.16666667       0.18181818 </v>
   <v>       0.20000000      -0.16666667       0.18181818 </v>
   <v>       0.24000000      -0.16666667       0.18181818 </v>
   <v>       0.28000000      -0.16666667       0.18181818 </v>
   <v>       0.32000000      -0.16666667       0.18181818 </v>
   <v>       0.36000000      -0.16666667       0.18181818 </v>
   <v>       0.40000000      -0.16666667       0.18181818 </v>
   <v>       0.44000000      -0.16666667       0.18181818 </v>
   <v>       0.48000000      -0.16666667       0.18181818 </v>
   <v>      -0.48000000      -0.16666667       0.18181818 </v>
   <v>      -0.44000000      -0.16666667       0.18181818 </v>
   <v>      -0.40000000      -0.16666667       0.18181818 </v>
   <v>      -0.36000000      -0.16666667       0.18181818 </v>
   <v>      -0.32000000      -0.16666667       0.18181818 </v>
   <v>      -0.28000000      -0.16666667       0.18181818 </v>
   <v>      -0.24000000      -0.16666667       0.18181818 </v>
   <v>      -0.20000000      -0.16666667       0.18181818 </v>
   <v>      -0.16000000      -0.16666667       0.18181818 </v>
   <v>      -0.12000000      -0.16666667       0.18181818 </v>
   <v>      -0.08000000      -0.16666667       0.18181818 </v>
   <v>      -0.04000000      -0.16666667       0.18181818 </v>
   <v>       0.00000000      -0.08333333       0.18181818 </v>
   <v>       0.04000000      -0.08333333       0.18181818 </v>
   <v>       0.08000000      -0.08333333       0.18181818 </v>
   <v>       0.12000000      -0.08333333       0.18181818 </v>
   <v>       0.16000000      -0.08333333       0.18181818 </v>
   <v>       0.20000000      -0.08333333       0.18181818 </v>
   <v>       0.24000000      -0.08333333       0.18181818 </v>
   <v>       0.28000000      -0.08333333       0.18181818 </v>
   <v>       0.32000000      -0.08333333       0.18181818 </v>
   <v>       0.36000000      -0.08333333       0.18181818 </v>
   <v>       0.40000000      -0.08333333       0.18181818 </v>
   <v>       0.44000000      -0.08333333       0.18181818 </v>
   <v>       0.48000000      -0.08333333       0.18181818 </v>
   <v>      -0.48000000      -0.08333333       0.18181818 </v>
   <v>      -0.44000000      -0.08333333       0.18181818 </v>
   <v>      -0.40000000      -0.08333333       0.18181818 </v>
   <v>      -0.36000000      -0.08333333       0.18181818 </v>
   <v>      -0.32000000      -0.08333333       0.18181818 </v>
   <v>      -0.28000000      -0.08333333       0.18181818 </v>
   <v>      -0.24000000      -0.08333333       0.18181818 </v>
   <v>      -0.20000000      -0.08333333       0.18181818 </v>
   <v>      -0.16000000      -0.08333333       0.18181818 </v>
   <v>      -0.12000000      -0.08333333       0.18181818 </v>
   <v>      -0.08000000      -0.08333333       0.18181818 </v>
   <v>      -0.04000000      -0.08333333       0.18181818 </v>
   <v>       0.00000000       0.00000000       0.27272727 </v>
   <v>       0.04000000       0.00000000       0.27272727 </v>
   <v>       0.08000000       0.00000000       0.27272727 </v>
   <v>       0.12000000       0.00000000       0.27272727 </v>
   <v>       0.16000000       0.00000000       0.27272727 </v>
   <v>       0.20000000       0.00000000       0.27272727 </v>
   <v>       0.24000000       0.00000000       0.27272727 </v>
   <v>       0.28000000       0.00000000       0.27272727 </v>
   <v>       0.32000000       0.00000000       0.27272727 </v>
   <v>       0.36000000       0.00000000       0.27272727 </v>
   <v>       0.40000000       0.00000000       0.27272727 </v>
   <v>       0.44000000       0.00000000       0.27272727 </v>
   <v>       0.48000000       0.00000000       0.27272727 </v>
   <v>      -0.48000000       0.00000000       0.27272727 </v>
   <v>      -0.44000000       0.00000000       0.27272727 </v>
   <v>      -0.40000000       0.00000000       0.27272727 </v>
   <v>      -0.36000000       0.00000000       0.27272727 </v>
   <v>      -0.32000000       0.00000000       0.27272727 </v>
   <v>      -0.28000000       0.00000000       0.27272727 </v>
   <v>      -0.24000000       0.00000000       0.27272727 </v>
   <v>      -0.20000000       0.00000000       0.27272727 </v>
   <v>      -0.16000000       0.00000000       0.27272727 </v>
   <v>      -0.12000000       0.00000000       0.27272727 </v>
   <v>      -0.08000000       0.00000000       0.27272727 </v>
   <v>      -0.04000000       0.00000000       0.27272727 </v>
   <v>       0.00000000       0.08333333       0.27272727 </v>
   <v>       0.04000000       0.08333333       0.27272727 </v>
   <v>       0.08000000       0.08333333       0.27272727 </v>
   <v>       0.12000000       0.08333333       0.27272727 </v>
   <v>       0.16000000       0.08333333       0.27272727 </v>
   <v>       0.20000000       0.08333333       0.27272727 </v>
   <v>       0.24000000       0.08333333       0.27272727 </v>
   <v>       0.28000000       0.08333333       0.27272727 </v>
   <v>       0.32000000       0.08333333       0.27272727 </v>
   <v>       0.36000000       0.08333333       0.27272727 </v>
   <v>       0.40000000       0.08333333       0.27272727 </v>
   <v>       0.44000000       0.08333333       0.27272727 </v>
   <v>       0.48000000       0.08333333       0.27272727 </v>
   <v>      -0.48000000       0.08333333       0.27272727 </v>
   <v>      -0.44000000       0.08333333       0.27272727 </v>
   <v>      -0.40000000       0.08333333       0.27272727 </v>
   <v>      -0.36000000       0.08333333       0.27272727 </v>
   <v>      -0.32000000       0.08333333       0.27272727 </v>
   <v>      -0.28000000       0.08333333       0.27272727 </v>
   <v>      -0.24000000       0.08333333       0.27272727 </v>
   <v>      -0.20000000       0.08333333       0.27272727 </v>
   <v>      -0.16000000       0.08333333       0.27272727 </v>
   <v>      -0.12000000       0.08333333       0.27272727 </v>
   <v>      -0.08000000       0.08333333       0.27272727 </v>
   <v>      -0.04000000       0.08333333       0.27272727 </v>
   <v>       0.00000000       0.16666667       0.27272727 </v>
   <v>       0.04000000       0.16666667       0.27272727 </v>
   <v>       0.08000000       0.16666667       0.27272727 </v>
   <v>       0.12000000       0.16666667       0.27272727 </v>
   <v>       0.16000000       0.16666667       0.27272727 </v>
   <v>       0.20000000       0.16666667       0.27272727 </v>
   <v>       0.24000000       0.16666667       0.27272727 </v>
   <v>       0.28000000       0.16666667       0.27272727 </v>
   <v>       0.32000000       0.16666667       0.27272727 </v>
   <v>       0.36000000       0.16666667       0.27272727 </v>
   <v>       0.40000000       0.16666667       0.27272727 </v>
   <v>       0.44000000       0.16666667       0.27272727 </v>
   <v>       0.48000000       0.16666667       0.27272727 </v>
   <v>      -0.48000000       0.16666667       0.27272727 </v>
   <v>      -0.44000000       0.16666667       0.27272727 </v>
   <v>      -0.40000000       0.16666667       0.27272727 </v>
   <v>      -0.36000000       0.16666667       0.27272727 </v>
   <v>      -0.32000000       0.16666667       0.27272727 </v>
   <v>      -0.28000000       0.16666667       0.27272727 </v>
   <v>      -0.24000000       0.16666667       0.27272727 </v>
   <v>      -0.20000000       0.16666667       0.27272727 </v>
   <v>      -0.16000000       0.16666667       0.27272727 </v>
   <v>      -0.12000000       0.16666667       0.27272727 </v>
   <v>      -0.08000000       0.16666667       0.27272727 </v>
   <v>      -0.04000000       0.16666667       0.27272727 </v>
   <v>       0.00000000       0.25000000       0.27272727 </v>
   <v>       0.04000000       0.25000000       0.27272727 </v>
   <v>       0.08000000       0.25000000       0.27272727 </v>
   <v>       0.12000000       0.25000000       0.27272727 </v>
   <v>       0.16000000       0.25000000       0.27272727 </v>
   <v>       0.20000000       0.25000000       0.27272727 </v>
   <v>       0.24000000       0.25000000       0.27272727 </v>
   <v>       0.28000000       0.25000000       0.27272727 </v>
   <v>       0.32000000       0.25000000       0.27272727 </v>
   <v>       0.36000000       0.25000000       0.27272727 </v>
   <v>       0.40000000       0.25000000       0.27272727 </v>
   <v>       0.44000000       0.25000000       0.27272727 </v>
   <v>       0.48000000       0.25000000       0.27272727 </v>
   <v>      -0.48000000       0.25000000       0.27272727 </v>
   <v>      -0.44000000       0.25000000       0.27272727 </v>
   <v>      -0.40000000       0.25000000       0.27272727 </v>
   <v>      -0.36000000       0.25000000       0.27272727 </v>
   <v>      -0.32000000       0.25000000       0.27272727 </v>
   <v>      -0.28000000       0.25000000       0.27272727 </v>
   <v>      -0.24000000       0.25000000       0.27272727 </v>
   <v>      -0.20000000       0.25000000       0.27272727 </v>
   <v>      -0.16000000       0.25000000       0.27272727 </v>
   <v>      -0.12000000       0.25000000       0.27272727 </v>
   <v>      -0.08000000       0.25000000       0.27272727 </v>
   <v>      -0.04000000       0.25000000       0.27272727 </v>
   <v>       0.00000000       0.33333333       0.27272727 </v>
   <v>       0.04000000       0.33333333       0.27272727 </v>
   <v>       0.08000000       0.33333333       0.27272727 </v>
   <v>       0.12000000       0.33333333       0.27272727 </v>
   <v>       0.16000000       0.33333333       0.27272727 </v>
   <v>       0.20000000       0.33333333       0.27272727 </v>
   <v>       0.24000000       0.33333333       0.27272727 </v>
   <v>       0.28000000       0.33333333       0.27272727 </v>
   <v>       0.32000000       0.33333333       0.27272727 </v>
   <v>       0.36000000       0.33333333       0.27272727 </v>
   <v>       0.40000000       0.33333333       0.27272727 </v>
   <v>       0.44000000       0.33333333       0.27272727 </v>
   <v>       0.48000000       0.33333333       0.27272727 </v>
   <v>      -0.48000000       0.33333333       0.27272727 </v>
   <v>      -0.44000000       0.33333333       0.27272727 </v>
   <v>      -0.40000000       0.33333333       0.27272727 </v>
   <v>      -0.36000000       0.33333333       0.27272727 </v>
   <v>      -0.32000000       0.33333333       0.27272727 </v>
   <v>      -0.28000000       0.33333333       0.27272727 </v>
   <v>      -0.24000000       0.33333333       0.27272727 </v>
   <v>      -0.20000000       0.33333333       0.27272727 </v>
   <v>      -0.16000000       0.33333333       0.27272727 </v>
   <v>      -0.12000000       0.33333333       0.27272727 </v>
   <v>      -0.08000000       0.33333333       0.27272727 </v>
   <v>      -0.04000000       0.33333333       0.27272727 </v>
   <v>       0.00000000       0.41666667       0.27272727 </v>
   <v>       0.04000000       0.41666667       0.27272727 </v>
   <v>       0.08000000       0.41666667       0.27272727 </v>
   <v>       0.12000000       0.41666667       0.27272727 </v>
   <v>       0.16000000       0.41666667       0.27272727 </v>
   <v>       0.20000000       0.41666667       0.27272727 </v>
   <v>       0.24000000       0.41666667       0.27272727 </v>
   <v>       0.28000000       0.41666667       0.27272727 </v>
   <v>       0.32000000       0.41666667       0.27272727 </v>
   <v>       0.36000000       0.41666667       0.27272727 </v>
   <v>       0.40000000       0.41666667       0.27272727 </v>
   <v>       0.44000000       0.41666667       0.27272727 </v>
   <v>       0.48000000       0.41666667       0.27272727 </v>
   <v>      -0.48000000       0.41666667       0.27272727 </v>
   <v>      -0.44000000       0.41666667       0.27272727 </v>
   <v>      -0.40000000       0.41666667       0.27272727 </v>
   <v>      -0.36000000       0.41666667       0.27272727 </v>
   <v>      -0.32000000       0.41666667       0.27272727 </v>
   <v>      -0.28000000       0.41666667       0.27272727 </v>
   <v>      -0.24000000       0.41666667       0.27272727 </v>
   <v>      -0.20000000       0.41666667       0.27272727 </v>
   <v>      -0.16000000       0.41666667       0.27272727 </v>
   <v>      -0.12000000       0.41666667       0.27272727 </v>
   <v>      -0.08000000       0.41666667       0.27272727 </v>
   <v>      -0.04000000       0.41666667       0.27272727 </v>
   <v>       0.00000000       0.50000000       0.27272727 </v>
   <v>       0.04000000       0.50000000       0.27272727 </v>
   <v>       0.08000000       0.50000000       0.27272727 </v>
   <v>       0.12000000       0.50000000       0.27272727 </v>
   <v>       0.16000000       0.50000000       0.27272727 </v>
   <v>       0.20000000       0.50000000       0.27272727 </v>
   <v>       0.24000000       0.50000000       0.27272727 </v>
   <v>       0.28000000       0.50000000       0.27272727 </v>
   <v>       0.32000000       0.50000000       0.27272727 </v>
   <v>       0.36000000       0.50000000       0.27272727 </v>
   <v>       0.40000000       0.50000000       0.27272727 </v>
   <v>       0.44000000       0.50000000       0.27272727 </v>
   <v>       0.48000000       0.50000000       0.27272727 </v>
   <v>      -0.48000000       0.50000000       0.27272727 </v>
   <v>      -0.44000000       0.50000000       0.27272727 </v>
   <v>      -0.40000000       0.50000000       0.27272727 </v>
   <v>      -0.36000000       0.50000000       0.27272727 </v>
   <v>      -0.32000000       0.50000000       0.27272727 </v>
   <v>      -0.28000000       0.50000000       0.27272727 </v>
   <v>      -0.24000000       0.50000000       0.27272727 </v>
   <v>      -0.20000000       0.50000000       0.27272727 </v>
   <v>      -0.16000000       0.50000000       0.27272727 </v>
   <v>      -0.12000000       0.50000000       0.27272727 </v>
   <v>      -0.08000000       0.50000000       0.27272727 </v>
   <v>      -0.04000000       0.50000000       0.27272727 </v>
   <v>       0.00000000      -0.41666667       0.27272727 </v>
   <v>       0.04000000      -0.41666667       0.27272727 </v>
   <v>       0.08000000      -0.41666667       0.27272727 </v>
   <v>       0.12000000      -0.41666667       0.27272727 </v>
   <v>       0.16000000      -0.41666667       0.27272727 </v>
   <v>       0.20000000      -0.41666667       0.27272727 </v>
   <v>       0.24000000      -0.41666667       0.27272727 </v>
   <v>       0.28000000      -0.41666667       0.27272727 </v>
   <v>       0.32000000      -0.41666667       0.27272727 </v>
   <v>       0.36000000      -0.41666667       0.27272727 </v>
   <v>       0.40000000      -0.41666667       0.27272727 </v>
   <v>       0.44000000      -0.41666667       0.27272727 </v>
   <v>       0.48000000      -0.41666667       0.27272727 </v>
   <v>      -0.48000000      -0.41666667       0.27272727 </v>
   <v>      -0.44000000      -0.41666667       0.27272727 </v>
   <v>      -0.40000000      -0.41666667       0.27272727 </v>
   <v>      -0.36000000      -0.41666667       0.27272727 </v>
   <v>      -0.32000000      -0.41666667       0.27272727 </v>
   <v>      -0.28000000      -0.41666667       0.27272727 </v>
   <v>      -0.24000000      -0.41666667       0.27272727 </v>
   <v>      -0.20000000      -0.41666667       0.27272727 </v>
   <v>      -0.16000000      -0.41666667       0.27272727 </v>
   <v>      -0.12000000      -0.41666667       0.27272727 </v>
   <v>      -0.08000000      -0.41666667       0.27272727 </v>
   <v>      -0.04000000      -0.41666667       0.27272727 </v>
   <v>       0.00000000      -0.33333333       0.27272727 </v>
   <v>       0.04000000      -0.33333333       0.27272727 </v>
   <v>       0.08000000      -0.33333333       0.27272727 </v>
   <v>       0.12000000      -0.33333333       0.27272727 </v>
   <v>       0.16000000      -0.33333333       0.27272727 </v>
   <v>       0.20000000      -0.33333333       0.27272727 </v>
   <v>       0.24000000      -0.33333333       0.27272727 </v>
   <v>       0.28000000      -0.33333333       0.27272727 </v>
   <v>       0.32000000      -0.33333333       0.27272727 </v>
   <v>       0.36000000      -0.33333333       0.27272727 </v>
   <v>       0.40000000      -0.33333333       0.27272727 </v>
   <v>       0.44000000      -0.33333333       0.27272727 </v>
   <v>       0.48000000      -0.33333333       0.27272727 </v>
   <v>      -0.48000000      -0.33333333       0.27272727 </v>
   <v>      -0.44000000      -0.33333333       0.27272727 </v>
   <v>      -0.40000000      -0.33333333       0.27272727 </v>
   <v>      -0.36000000      -0.33333333       0.27272727 </v>
   <v>      -0.32000000      -0.33333333       0.27272727 </v>
   <v>      -0.28000000      -0.33333333       0.27272727 </v>
   <v>      -0.24000000      -0.33333333       0.27272727 </v>
   <v>      -0.20000000      -0.33333333       0.27272727 </v>
   <v>      -0.16000000      -0.33333333       0.27272727 </v>
   <v>      -0.12000000      -0.33333333       0.27272727 </v>
   <v>      -0.08000000      -0.33333333       0.27272727 </v>
   <v>      -0.04000000      -0.33333333       0.27272727 </v>
   <v>       0.00000000      -0.25000000       0.27272727 </v>
   <v>       0.04000000      -0.25000000       0.27272727 </v>
   <v>       0.08000000      -0.25000000       0.27272727 </v>
   <v>       0.12000000      -0.25000000       0.27272727 </v>
   <v>       0.16000000      -0.25000000       0.27272727 </v>
   <v>       0.20000000      -0.25000000       0.27272727 </v>
   <v>       0.24000000      -0.25000000       0.27272727 </v>
   <v>       0.28000000      -0.25000000       0.27272727 </v>
   <v>       0.32000000      -0.25000000       0.27272727 </v>
   <v>       0.36000000      -0.25000000       0.27272727 </v>
   <v>       0.40000000      -0.25000000       0.27272727 </v>
   <v>       0.44000000      -0.25000000       0.27272727 </v>
   <v>       0.48000000      -0.25000000       0.27272727 </v>
   <v>      -0.48000000      -0.25000000       0.27272727 </v>
   <v>      -0.44000000      -0.25000000       0.27272727 </v>
   <v>      -0.40000000      -0.25000000       0.27272727 </v>
   <v>      -0.36000000      -0.25000000       0.27272727 </v>
   <v>      -0.32000000      -0.25000000       0.27272727 </v>
   <v>      -0.28000000      -0.25000000       0.27272727 </v>
   <v>      -0.24000000      -0.25000000       0.27272727 </v>
   <v>      -0.20000000      -0.25000000       0.27272727 </v>
   <v>      -0.16000000      -0.25000000       0.27272727 </v>
   <v>      -0.12000000      -0.25000000       0.27272727 </v>
   <v>      -0.08000000      -0.25000000       0.27272727 </v>
   <v>      -0.04000000      -0.25000000       0.27272727 </v>
   <v>       0.00000000      -0.16666667       0.27272727 </v>
   <v>       0.04000000      -0.16666667       0.27272727 </v>
   <v>       0.08000000      -0.16666667       0.27272727 </v>
   <v>       0.12000000      -0.16666667       0.27272727 </v>
   <v>       0.16000000      -0.16666667       0.27272727 </v>
   <v>       0.20000000      -0.16666667       0.27272727 </v>
   <v>       0.24000000      -0.16666667       0.27272727 </v>
   <v>       0.28000000      -0.16666667       0.27272727 </v>
   <v>       0.32000000      -0.16666667       0.27272727 </v>
   <v>       0.36000000      -0.16666667       0.27272727 </v>
   <v>       0.40000000      -0.16666667       0.27272727 </v>
   <v>       0.44000000      -0.16666667       0.27272727 </v>
   <v>       0.48000000      -0.16666667       0.27272727 </v>
   <v>      -0.48000000      -0.16666667       0.27272727 </v>
   <v>      -0.44000000      -0.16666667       0.27272727 </v>
   <v>      -0.40000000      -0.16666667       0.27272727 </v>
   <v>      -0.36000000      -0.16666667       0.27272727 </v>
   <v>      -0.32000000      -0.16666667       0.27272727 </v>
   <v>      -0.28000000      -0.16666667       0.27272727 </v>
   <v>      -0.24000000      -0.16666667       0.27272727 </v>
   <v>      -0.20000000      -0.16666667       0.27272727 </v>
   <v>      -0.16000000      -0.16666667       0.27272727 </v>
   <v>      -0.12000000      -0.16666667       0.27272727 </v>
   <v>      -0.08000000      -0.16666667       0.27272727 </v>
   <v>      -0.04000000      -0.16666667       0.27272727 </v>
   <v>       0.00000000      -0.08333333       0.27272727 </v>
   <v>       0.04000000      -0.08333333       0.27272727 </v>
   <v>       0.08000000      -0.08333333       0.27272727 </v>
   <v>       0.12000000      -0.08333333       0.27272727 </v>
   <v>       0.16000000      -0.08333333       0.27272727 </v>
   <v>       0.20000000      -0.08333333       0.27272727 </v>
   <v>       0.24000000      -0.08333333       0.27272727 </v>
   <v>       0.28000000      -0.08333333       0.27272727 </v>
   <v>       0.32000000      -0.08333333       0.27272727 </v>
   <v>       0.36000000      -0.08333333       0.27272727 </v>
   <v>       0.40000000      -0.08333333       0.27272727 </v>
   <v>       0.44000000      -0.08333333       0.27272727 </v>
   <v>       0.48000000      -0.08333333       0.27272727 </v>
   <v>      -0.48000000      -0.08333333       0.27272727 </v>
   <v>      -0.44000000      -0.08333333       0.27272727 </v>
   <v>      -0.40000000      -0.08333333       0.27272727 </v>
   <v>      -0.36000000      -0.08333333       0.27272727 </v>
   <v>      -0.32000000      -0.08333333       0.27272727 </v>
   <v>      -0.28000000      -0.08333333       0.27272727 </v>
   <v>      -0.24000000      -0.08333333       0.27272727 </v>
   <v>      -0.20000000      -0.08333333       0.27272727 </v>
   <v>      -0.16000000      -0.08333333       0.27272727 </v>
   <v>      -0.12000000      -0.08333333       0.27272727 </v>
   <v>      -0.08000000      -0.08333333       0.27272727 </v>
   <v>      -0.04000000      -0.08333333       0.27272727 </v>
   <v>       0.00000000       0.00000000       0.36363636 </v>
   <v>       0.04000000       0.00000000       0.36363636 </v>
   <v>       0.08000000       0.00000000       0.36363636 </v>
   <v>       0.12000000       0.00000000       0.36363636 </v>
   <v>       0.16000000       0.00000000       0.36363636 </v>
   <v>       0.20000000       0.00000000       0.36363636 </v>
   <v>       0.24000000       0.00000000       0.36363636 </v>
   <v>       0.28000000       0.00000000       0.36363636 </v>
   <v>       0.32000000       0.00000000       0.36363636 </v>
   <v>       0.36000000       0.00000000       0.36363636 </v>
   <v>       0.40000000       0.00000000       0.36363636 </v>
   <v>       0.44000000       0.00000000       0.36363636 </v>
   <v>       0.48000000       0.00000000       0.36363636 </v>
   <v>      -0.48000000       0.00000000       0.36363636 </v>
   <v>      -0.44000000       0.00000000       0.36363636 </v>
   <v>      -0.40000000       0.00000000       0.36363636 </v>
   <v>      -0.36000000       0.00000000       0.36363636 </v>
   <v>      -0.32000000       0.00000000       0.36363636 </v>
   <v>      -0.28000000       0.00000000       0.36363636 </v>
   <v>      -0.24000000       0.00000000       0.36363636 </v>
   <v>      -0.20000000       0.00000000       0.36363636 </v>
   <v>      -0.16000000       0.00000000       0.36363636 </v>
   <v>      -0.12000000       0.00000000       0.36363636 </v>
   <v>      -0.08000000       0.00000000       0.36363636 </v>
   <v>      -0.04000000       0.00000000       0.36363636 </v>
   <v>       0.00000000       0.08333333       0.36363636 </v>
   <v>       0.04000000       0.08333333       0.36363636 </v>
   <v>       0.08000000       0.08333333       0.36363636 </v>
   <v>       0.12000000       0.08333333       0.36363636 </v>
   <v>       0.16000000       0.08333333       0.36363636 </v>
   <v>       0.20000000       0.08333333       0.36363636 </v>
   <v>       0.24000000       0.08333333       0.36363636 </v>
   <v>       0.28000000       0.08333333       0.36363636 </v>
   <v>       0.32000000       0.08333333       0.36363636 </v>
   <v>       0.36000000       0.08333333       0.36363636 </v>
   <v>       0.40000000       0.08333333       0.36363636 </v>
   <v>       0.44000000       0.08333333       0.36363636 </v>
   <v>       0.48000000       0.08333333       0.36363636 </v>
   <v>      -0.48000000       0.08333333       0.36363636 </v>
   <v>      -0.44000000       0.08333333       0.36363636 </v>
   <v>      -0.40000000       0.08333333       0.36363636 </v>
   <v>      -0.36000000       0.08333333       0.36363636 </v>
   <v>      -0.32000000       0.08333333       0.36363636 </v>
   <v>      -0.28000000       0.08333333       0.36363636 </v>
   <v>      -0.24000000       0.08333333       0.36363636 </v>
   <v>      -0.20000000       0.08333333       0.36363636 </v>
   <v>      -0.16000000       0.08333333       0.36363636 </v>
   <v>      -0.12000000       0.08333333       0.36363636 </v>
   <v>      -0.08000000       0.08333333       0.36363636 </v>
   <v>      -0.04000000       0.08333333       0.36363636 </v>
   <v>       0.00000000       0.16666667       0.36363636 </v>
   <v>       0.04000000       0.16666667       0.36363636 </v>
   <v>       0.08000000       0.16666667       0.36363636 </v>
   <v>       0.12000000       0.16666667       0.36363636 </v>
   <v>       0.16000000       0.16666667       0.36363636 </v>
   <v>       0.20000000       0.16666667       0.36363636 </v>
   <v>       0.24000000       0.16666667       0.36363636 </v>
   <v>       0.28000000       0.16666667       0.36363636 </v>
   <v>       0.32000000       0.16666667       0.36363636 </v>
   <v>       0.36000000       0.16666667       0.36363636 </v>
   <v>       0.40000000       0.16666667       0.36363636 </v>
   <v>       0.44000000       0.16666667       0.36363636 </v>
   <v>       0.48000000       0.16666667       0.36363636 </v>
   <v>      -0.48000000       0.16666667       0.36363636 </v>
   <v>      -0.44000000       0.16666667       0.36363636 </v>
   <v>      -0.40000000       0.16666667       0.36363636 </v>
   <v>      -0.36000000       0.16666667       0.36363636 </v>
   <v>      -0.32000000       0.16666667       0.36363636 </v>
   <v>      -0.28000000       0.16666667       0.36363636 </v>
   <v>      -0.24000000       0.16666667       0.36363636 </v>
   <v>      -0.20000000       0.16666667       0.36363636 </v>
   <v>      -0.16000000       0.16666667       0.36363636 </v>
   <v>      -0.12000000       0.16666667       0.36363636 </v>
   <v>      -0.08000000       0.16666667       0.36363636 </v>
   <v>      -0.04000000       0.16666667       0.36363636 </v>
   <v>       0.00000000       0.25000000       0.36363636 </v>
   <v>       0.04000000       0.25000000       0.36363636 </v>
   <v>       0.08000000       0.25000000       0.36363636 </v>
   <v>       0.12000000       0.25000000       0.36363636 </v>
   <v>       0.16000000       0.25000000       0.36363636 </v>
   <v>       0.20000000       0.25000000       0.36363636 </v>
   <v>       0.24000000       0.25000000       0.36363636 </v>
   <v>       0.28000000       0.25000000       0.36363636 </v>
   <v>       0.32000000       0.25000000       0.36363636 </v>
   <v>       0.36000000       0.25000000       0.36363636 </v>
   <v>       0.40000000       0.25000000       0.36363636 </v>
   <v>       0.44000000       0.25000000       0.36363636 </v>
   <v>       0.48000000       0.25000000       0.36363636 </v>
   <v>      -0.48000000       0.25000000       0.36363636 </v>
   <v>      -0.44000000       0.25000000       0.36363636 </v>
   <v>      -0.40000000       0.25000000       0.36363636 </v>
   <v>      -0.36000000       0.25000000       0.36363636 </v>
   <v>      -0.32000000       0.25000000       0.36363636 </v>
   <v>      -0.28000000       0.25000000       0.36363636 </v>
   <v>      -0.24000000       0.25000000       0.36363636 </v>
   <v>      -0.20000000       0.25000000       0.36363636 </v>
   <v>      -0.16000000       0.25000000       0.36363636 </v>
   <v>      -0.12000000       0.25000000       0.36363636 </v>
   <v>      -0.08000000       0.25000000       0.36363636 </v>
   <v>      -0.04000000       0.25000000       0.36363636 </v>
   <v>       0.00000000       0.33333333       0.36363636 </v>
   <v>       0.04000000       0.33333333       0.36363636 </v>
   <v>       0.08000000       0.33333333       0.36363636 </v>
   <v>       0.12000000       0.33333333       0.36363636 </v>
   <v>       0.16000000       0.33333333       0.36363636 </v>
   <v>       0.20000000       0.33333333       0.36363636 </v>
   <v>       0.24000000       0.33333333       0.36363636 </v>
   <v>       0.28000000       0.33333333       0.36363636 </v>
   <v>       0.32000000       0.33333333       0.36363636 </v>
   <v>       0.36000000       0.33333333       0.36363636 </v>
   <v>       0.40000000       0.33333333       0.36363636 </v>
   <v>       0.44000000       0.33333333       0.36363636 </v>
   <v>       0.48000000       0.33333333       0.36363636 </v>
   <v>      -0.48000000       0.33333333       0.36363636 </v>
   <v>      -0.44000000       0.33333333       0.36363636 </v>
   <v>      -0.40000000       0.33333333       0.36363636 </v>
   <v>      -0.36000000       0.33333333       0.36363636 </v>
   <v>      -0.32000000       0.33333333       0.36363636 </v>
   <v>      -0.28000000       0.33333333       0.36363636 </v>
   <v>      -0.24000000       0.33333333       0.36363636 </v>
   <v>      -0.20000000       0.33333333       0.36363636 </v>
   <v>      -0.16000000       0.33333333       0.36363636 </v>
   <v>      -0.12000000       0.33333333       0.36363636 </v>
   <v>      -0.08000000       0.33333333       0.36363636 </v>
   <v>      -0.04000000       0.33333333       0.36363636 </v>
   <v>       0.00000000       0.41666667       0.36363636 </v>
   <v>       0.04000000       0.41666667       0.36363636 </v>
   <v>       0.08000000       0.41666667       0.36363636 </v>
   <v>       0.12000000       0.41666667       0.36363636 </v>
   <v>       0.16000000       0.41666667       0.36363636 </v>
   <v>       0.20000000       0.41666667       0.36363636 </v>
   <v>       0.24000000       0.41666667       0.36363636 </v>
   <v>       0.28000000       0.41666667       0.36363636 </v>
   <v>       0.32000000       0.41666667       0.36363636 </v>
   <v>       0.36000000       0.41666667       0.36363636 </v>
   <v>       0.40000000       0.41666667       0.36363636 </v>
   <v>       0.44000000       0.41666667       0.36363636 </v>
   <v>       0.48000000       0.41666667       0.36363636 </v>
   <v>      -0.48000000       0.41666667       0.36363636 </v>
   <v>      -0.44000000       0.41666667       0.36363636 </v>
   <v>      -0.40000000       0.41666667       0.36363636 </v>
   <v>      -0.36000000       0.41666667       0.36363636 </v>
   <v>      -0.32000000       0.41666667       0.36363636 </v>
   <v>      -0.28000000       0.41666667       0.36363636 </v>
   <v>      -0.24000000       0.41666667       0.36363636 </v>
   <v>      -0.20000000       0.41666667       0.36363636 </v>
   <v>      -0.16000000       0.41666667       0.36363636 </v>
   <v>      -0.12000000       0.41666667       0.36363636 </v>
   <v>      -0.08000000       0.41666667       0.36363636 </v>
   <v>      -0.04000000       0.41666667       0.36363636 </v>
   <v>       0.00000000       0.50000000       0.36363636 </v>
   <v>       0.04000000       0.50000000       0.36363636 </v>
   <v>       0.08000000       0.50000000       0.36363636 </v>
   <v>       0.12000000       0.50000000       0.36363636 </v>
   <v>       0.16000000       0.50000000       0.36363636 </v>
   <v>       0.20000000       0.50000000       0.36363636 </v>
   <v>       0.24000000       0.50000000       0.36363636 </v>
   <v>       0.28000000       0.50000000       0.36363636 </v>
   <v>       0.32000000       0.50000000       0.36363636 </v>
   <v>       0.36000000       0.50000000       0.36363636 </v>
   <v>       0.40000000       0.50000000       0.36363636 </v>
   <v>       0.44000000       0.50000000       0.36363636 </v>
   <v>       0.48000000       0.50000000       0.36363636 </v>
   <v>      -0.48000000       0.50000000       0.36363636 </v>
   <v>      -0.44000000       0.50000000       0.36363636 </v>
   <v>      -0.40000000       0.50000000       0.36363636 </v>
   <v>      -0.36000000       0.50000000       0.36363636 </v>
   <v>      -0.32000000       0.50000000       0.36363636 </v>
   <v>      -0.28000000       0.50000000       0.36363636 </v>
   <v>      -0.24000000       0.50000000       0.36363636 </v>
   <v>      -0.20000000       0.50000000       0.36363636 </v>
   <v>      -0.16000000       0.50000000       0.36363636 </v>
   <v>      -0.12000000       0.50000000       0.36363636 </v>
   <v>      -0.08000000       0.50000000       0.36363636 </v>
   <v>      -0.04000000       0.50000000       0.36363636 </v>
   <v>       0.00000000      -0.41666667       0.36363636 </v>
   <v>       0.04000000      -0.41666667       0.36363636 </v>
   <v>       0.08000000      -0.41666667       0.36363636 </v>
   <v>       0.12000000      -0.41666667       0.36363636 </v>
   <v>       0.16000000      -0.41666667       0.36363636 </v>
   <v>       0.20000000      -0.41666667       0.36363636 </v>
   <v>       0.24000000      -0.41666667       0.36363636 </v>
   <v>       0.28000000      -0.41666667       0.36363636 </v>
   <v>       0.32000000      -0.41666667       0.36363636 </v>
   <v>       0.36000000      -0.41666667       0.36363636 </v>
   <v>       0.40000000      -0.41666667       0.36363636 </v>
   <v>       0.44000000      -0.41666667       0.36363636 </v>
   <v>       0.48000000      -0.41666667       0.36363636 </v>
   <v>      -0.48000000      -0.41666667       0.36363636 </v>
   <v>      -0.44000000      -0.41666667       0.36363636 </v>
   <v>      -0.40000000      -0.41666667       0.36363636 </v>
[...]
       <r>    4.4415    1.0000 </r>
       <r>    4.5927    1.0000 </r>
       <r>    4.6937    1.0000 </r>
       <r>    4.7446    1.0000 </r>
       <r>    4.9273    1.0000 </r>
       <r>    5.1291    1.0000 </r>
       <r>    5.2141    1.0000 </r>
       <r>    5.3127    1.0000 </r>
       <r>    5.4894    1.0000 </r>
       <r>    5.6112    1.0000 </r>
       <r>    5.7390    1.0000 </r>
       <r>    7.2532    1.0001 </r>
       <r>    7.9420    0.9285 </r>
       <r>    8.5920   -0.0255 </r>
       <r>    9.8780    0.0000 </r>
       <r>   12.2409    0.0000 </r>
       <r>   13.9404    0.0000 </r>
       <r>   14.7323    0.0000 </r>
       <r>   15.1158    0.0000 </r>
      </set>
      <set comment="kpoint 1650">
       <r>    0.6263    1.0000 </r>
       <r>    1.4811    1.0000 </r>
       <r>    1.9560    1.0000 </r>
       <r>    2.0299    1.0000 </r>
       <r>    2.0792    1.0000 </r>
       <r>    2.2188    1.0000 </r>
       <r>    2.7271    1.0000 </r>
       <r>    2.9538    1.0000 </r>
       <r>    3.1474    1.0000 </r>
       <r>    3.2338    1.0000 </r>
       <r>    3.4078    1.0000 </r>
       <r>    3.4912    1.0000 </r>
       <r>    3.5532    1.0000 </r>
       <r>    3.5708    1.0000 </r>
       <r>    3.7838    1.0000 </r>
       <r>    3.7989    1.0000 </r>
       <r>    3.8240    1.0000 </r>
       <r>    3.8912    1.0000 </r>
       <r>    4.1466    1.0000 </r>
       <r>    4.1909    1.0000 </r>
       <r>    4.2990    1.0000 </r>
       <r>    4.3705    1.0000 </r>
       <r>    4.4706    1.0000 </r>
       <r>    4.7106    1.0000 </r>
       <r>    4.8296    1.0000 </r>
       <r>    4.9596    1.0000 </r>
       <r>    5.1823    1.0000 </r>
       <r>    5.2494    1.0000 </r>
       <r>    5.4067    1.0000 </r>
       <r>    5.5154    1.0000 </r>
       <r>    5.6319    1.0000 </r>
       <r>    5.7816    1.0000 </r>
       <r>    7.0315    1.0000 </r>
       <r>    7.6047    1.0167 </r>
       <r>    8.4714   -0.0344 </r>
       <r>    9.6174    0.0000 </r>
       <r>   12.0555    0.0000 </r>
       <r>   14.0002    0.0000 </r>
       <r>   14.5609    0.0000 </r>
       <r>   14.8860    0.0000 </r>
      </set>
      <set comment="kpoint 1651">
       <r>    0.5762    1.0000 </r>
       <r>    1.3609    1.0000 </r>
       <r>    1.8906    1.0000 </r>
       <r>    1.9579    1.0000 </r>
       <r>    2.0239    1.0000 </r>
       <r>    2.1913    1.0000 </r>
       <r>    2.6394    1.0000 </r>
       <r>    2.9598    1.0000 </r>
       <r>    3.1966    1.0000 </r>
       <r>    3.2055    1.0000 </r>
       <r>    3.4257    1.0000 </r>
       <r>    3.4819    1.0000 </r>
       <r>    3.5513    1.0000 </r>
       <r>    3.7404    1.0000 </r>
       <r>    3.7853    1.0000 </r>
       <r>    3.8153    1.0000 </r>
       <r>    3.8476    1.0000 </r>
       <r>    3.9704    1.0000 </r>
       <r>    4.1380    1.0000 </r>
       <r>    4.1796    1.0000 </r>
       <r>    4.2749    1.0000 </r>
       <r>    4.3488    1.0000 </r>
       <r>    4.3718    1.0000 </r>
       <r>    4.6988    1.0000 </r>
       <r>    4.8198    1.0000 </r>
       <r>    4.9391    1.0000 </r>
       <r>    5.0999    1.0000 </r>
       <r>    5.4494    1.0000 </r>
       <r>    5.5179    1.0000 </r>
       <r>    5.5423    1.0000 </r>
       <r>    5.6449    1.0000 </r>
       <r>    5.8571    1.0000 </r>
       <r>    6.9082    1.0000 </r>
       <r>    7.3527    1.0008 </r>
       <r>    8.3972   -0.0110 </r>
       <r>    9.4606    0.0000 </r>
       <r>   11.9119    0.0000 </r>
       <r>   14.0275    0.0000 </r>
       <r>   14.4141    0.0000 </r>
       <r>   14.7368    0.0000 </r>
      </set>
     </set>
    </set>
   </array>
  </eigenvalues>
  <separator name="orbital magnetization" >
   <v name="MAGDIPOLOUT">      0.00000000      0.00000000      0.00000000</v>
  </separator>
  <dos>
   <i name="efermi">      8.12779506 </i>
   <total>
    <array>
     <dimension dim="1">gridpoints</dimension>
     <dimension dim="2">spin</dimension>
     <field>energy</field>
     <field>total</field>
     <field>integrated</field>
     <set>
      <set comment="spin 1">
       <r>    -3.1167     0.0000     0.0000 </r>
       <r>    -3.0305     0.0000     0.0000 </r>
       <r>    -2.9443     0.0000     0.0000 </r>
       <r>    -2.8581     0.0000     0.0000 </r>
       <r>    -2.7718     0.0000     0.0000 </r>
       <r>    -2.6856     0.0000     0.0000 </r>
       <r>    -2.5994     0.0000     0.0000 </r>
       <r>    -2.5132     0.0000     0.0000 </r>
       <r>    -2.4270     0.0000     0.0000 </r>
       <r>    -2.3407     0.0000     0.0000 </r>
       <r>    -2.2545     0.0000     0.0000 </r>
       <r>    -2.1683     0.0000     0.0000 </r>
       <r>    -2.0821     0.0000     0.0000 </r>
       <r>    -1.9959     0.0000     0.0000 </r>
       <r>    -1.9097     0.0000     0.0000 </r>
       <r>    -1.8234     0.0000     0.0000 </r>
       <r>    -1.7372     0.0000     0.0000 </r>
       <r>    -1.6510     0.0000     0.0000 </r>
       <r>    -1.5648     0.0000     0.0000 </r>
       <r>    -1.4786     0.0000     0.0000 </r>
       <r>    -1.3923     0.0000     0.0000 </r>
       <r>    -1.3061     0.0000     0.0000 </r>
       <r>    -1.2199     0.0000     0.0000 </r>
       <r>    -1.1337     0.0000     0.0000 </r>
       <r>    -1.0475     0.0000     0.0000 </r>
       <r>    -0.9613     0.0000     0.0000 </r>
       <r>    -0.8750    -0.0001     0.0000 </r>
       <r>    -0.7888    -0.0003     0.0000 </r>
       <r>    -0.7026    -0.0009    -0.0001 </r>
       <r>    -0.6164    -0.0024    -0.0003 </r>
       <r>    -0.5302    -0.0051    -0.0008 </r>
       <r>    -0.4439    -0.0084    -0.0015 </r>
       <r>    -0.3577    -0.0092    -0.0023 </r>
       <r>    -0.2715    -0.0015    -0.0024 </r>
       <r>    -0.1853     0.0226    -0.0004 </r>
       <r>    -0.0991     0.0678     0.0054 </r>
       <r>    -0.0128     0.1322     0.0168 </r>
       <r>     0.0734     0.2076     0.0347 </r>
       <r>     0.1596     0.2842     0.0592 </r>
       <r>     0.2458     0.3569     0.0900 </r>
       <r>     0.3320     0.4271     0.1268 </r>
       <r>     0.4182     0.5000     0.1699 </r>
       <r>     0.5045     0.5796     0.2199 </r>
       <r>     0.5907     0.6636     0.2771 </r>
       <r>     0.6769     0.7424     0.3411 </r>
       <r>     0.7631     0.8021     0.4103 </r>
       <r>     0.8493     0.8312     0.4819 </r>
       <r>     0.9356     0.8264     0.5532 </r>
       <r>     1.0218     0.7946     0.6217 </r>
       <r>     1.1080     0.7524     0.6866 </r>
       <r>     1.1942     0.7246     0.7490 </r>
       <r>     1.2804     0.7400     0.8128 </r>
       <r>     1.3666     0.8242     0.8839 </r>
       <r>     1.4529     0.9969     0.9698 </r>
       <r>     1.5391     1.2776     1.0800 </r>
       <r>     1.6253     1.6992     1.2265 </r>
       <r>     1.7115     2.3192     1.4265 </r>
       <r>     1.7977     3.2196     1.7040 </r>
       <r>     1.8840     4.4892     2.0911 </r>
       <r>     1.9702     6.1866     2.6245 </r>
       <r>     2.0564     8.2920     3.3394 </r>
       <r>     2.1426    10.6673     4.2591 </r>
       <r>     2.2288    13.0481     5.3841 </r>
       <r>     2.3151    15.0864     6.6849 </r>
       <r>     2.4013    16.4455     8.1028 </r>
       <r>     2.4875    16.9170     9.5613 </r>
       <r>     2.5737    16.5090    10.9847 </r>
       <r>     2.6599    15.4656    12.3181 </r>
       <r>     2.7461    14.2107    13.5433 </r>
       <r>     2.8324    13.2226    14.6834 </r>
       <r>     2.9186    12.8532    15.7916 </r>
       <r>     3.0048    13.1636    16.9265 </r>
       <r>     3.0910    13.9005    18.1250 </r>
       <r>     3.1772    14.6758    19.3903 </r>
       <r>     3.2635    15.2513    20.7053 </r>
       <r>     3.3497    15.7236    22.0609 </r>
       <r>     3.4359    16.4548    23.4796 </r>
       <r>     3.5221    17.7619    25.0110 </r>
       <r>     3.6083    19.5576    26.6973 </r>
       <r>     3.6946    21.2384    28.5284 </r>
       <r>     3.7808    21.9961    30.4249 </r>
       <r>     3.8670    21.3838    32.2686 </r>
       <r>     3.9532    19.6707    33.9646 </r>
       <r>     4.0394    17.6617    35.4873 </r>
       <r>     4.1256    16.1508    36.8798 </r>
       <r>     4.2119    15.4957    38.2158 </r>
       <r>     4.2981    15.5900    39.5600 </r>
       <r>     4.3843    16.0937    40.9476 </r>
       <r>     4.4705    16.6408    42.3823 </r>
       <r>     4.5567    16.9279    43.8418 </r>
       <r>     4.6430    16.7631    45.2871 </r>
       <r>     4.7292    16.1316    46.6779 </r>
       <r>     4.8154    15.2280    47.9909 </r>
       <r>     4.9016    14.3828    49.2310 </r>
       <r>     4.9878    13.9031    50.4297 </r>
       <r>     5.0740    13.9319    51.6309 </r>
       <r>     5.1603    14.4104    52.8733 </r>
       <r>     5.2465    15.1268    54.1775 </r>
       <r>     5.3327    15.7771    55.5378 </r>
       <r>     5.4189    16.0164    56.9187 </r>
       <r>     5.5051    15.5453    58.2590 </r>
       <r>     5.5914    14.2391    59.4867 </r>
       <r>     5.6776    12.2217    60.5404 </r>
       <r>     5.7638     9.8013    61.3854 </r>
       <r>     5.8500     7.3248    62.0170 </r>
       <r>     5.9362     5.0840    62.4553 </r>
       <r>     6.0225     3.3032    62.7401 </r>
       <r>     6.1087     2.1211    62.9230 </r>
       <r>     6.1949     1.5338    63.0552 </r>
       <r>     6.2811     1.3760    63.1739 </r>
       <r>     6.3673     1.4067    63.2952 </r>
       <r>     6.4535     1.4420    63.4195 </r>
       <r>     6.5398     1.4266    63.5425 </r>
       <r>     6.6260     1.4016    63.6633 </r>
       <r>     6.7122     1.4195    63.7857 </r>
       <r>     6.7984     1.4845    63.9137 </r>
       <r>     6.8846     1.5540    64.0477 </r>
       <r>     6.9709     1.5808    64.1840 </r>
       <r>     7.0571     1.5522    64.3178 </r>
       <r>     7.1433     1.4965    64.4469 </r>
       <r>     7.2295     1.4580    64.5726 </r>
       <r>     7.3157     1.4640    64.6988 </r>
       <r>     7.4019     1.5093    64.8289 </r>
       <r>     7.4882     1.5679    64.9641 </r>
       <r>     7.5744     1.6152    65.1034 </r>
       <r>     7.6606     1.6401    65.2448 </r>
       <r>     7.7468     1.6419    65.3863 </r>
       <r>     7.8330     1.6266    65.5266 </r>
       <r>     7.9193     1.6066    65.6651 </r>
       <r>     8.0055     1.5972    65.8028 </r>
       <r>     8.0917     1.6073    65.9414 </r>
       <r>     8.1779     1.6324    66.0821 </r>
       <r>     8.2641     1.6590    66.2252 </r>
       <r>     8.3504     1.6740    66.3695 </r>
       <r>     8.4366     1.6709    66.5136 </r>
       <r>     8.5228     1.6505    66.6559 </r>
       <r>     8.6090     1.6219    66.7957 </r>
       <r>     8.6952     1.6004    66.9337 </r>
       <r>     8.7814     1.5978    67.0714 </r>
       <r>     8.8677     1.6107    67.2103 </r>
       <r>     8.9539     1.6217    67.3501 </r>
       <r>     9.0401     1.6154    67.4894 </r>
       <r>     9.1263     1.5953    67.6269 </r>
       <r>     9.2125     1.5815    67.7633 </r>
       <r>     9.2988     1.5893    67.9003 </r>
       <r>     9.3850     1.6132    68.0394 </r>
       <r>     9.4712     1.6328    68.1802 </r>
       <r>     9.5574     1.6341    68.3211 </r>
       <r>     9.6436     1.6192    68.4607 </r>
       <r>     9.7298     1.5975    68.5984 </r>
       <r>     9.8161     1.5737    68.7341 </r>
       <r>     9.9023     1.5494    68.8677 </r>
       <r>     9.9885     1.5291    68.9995 </r>
       <r>    10.0747     1.5193    69.1305 </r>
       <r>    10.1609     1.5210    69.2617 </r>
       <r>    10.2472     1.5260    69.3932 </r>
       <r>    10.3334     1.5225    69.5245 </r>
       <r>    10.4196     1.5032    69.6541 </r>
       <r>    10.5058     1.4697    69.7808 </r>
       <r>    10.5920     1.4313    69.9042 </r>
       <r>    10.6783     1.4001    70.0250 </r>
       <r>    10.7645     1.3852    70.1444 </r>
       <r>    10.8507     1.3876    70.2640 </r>
       <r>    10.9369     1.4022    70.3849 </r>
       <r>    11.0231     1.4282    70.5081 </r>
       <r>    11.1093     1.4765    70.6354 </r>
       <r>    11.1956     1.5603    70.7699 </r>
       <r>    11.2818     1.6753    70.9143 </r>
       <r>    11.3680     1.7921    71.0688 </r>
       <r>    11.4542     1.8738    71.2304 </r>
       <r>    11.5404     1.9049    71.3946 </r>
       <r>    11.6267     1.9013    71.5586 </r>
       <r>    11.7129     1.8939    71.7219 </r>
       <r>    11.7991     1.9041    71.8860 </r>
       <r>    11.8853     1.9317    72.0526 </r>
       <r>    11.9715     1.9604    72.2216 </r>
       <r>    12.0578     1.9733    72.3917 </r>
       <r>    12.1440     1.9652    72.5612 </r>
       <r>    12.2302     1.9441    72.7288 </r>
       <r>    12.3164     1.9208    72.8944 </r>
       <r>    12.4026     1.8980    73.0580 </r>
       <r>    12.4888     1.8699    73.2193 </r>
       <r>    12.5751     1.8309    73.3771 </r>
       <r>    12.6613     1.7852    73.5311 </r>
       <r>    12.7475     1.7487    73.6818 </r>
       <r>    12.8337     1.7403    73.8319 </r>
       <r>    12.9199     1.7669    73.9842 </r>
       <r>    13.0062     1.8147    74.1407 </r>
       <r>    13.0924     1.8559    74.3007 </r>
       <r>    13.1786     1.8679    74.4617 </r>
       <r>    13.2648     1.8482    74.6211 </r>
       <r>    13.3510     1.8142    74.7775 </r>
       <r>    13.4372     1.7912    74.9319 </r>
       <r>    13.5235     1.7955    75.0867 </r>
       <r>    13.6097     1.8224    75.2439 </r>
       <r>    13.6959     1.8490    75.4033 </r>
       <r>    13.7821     1.8563    75.5633 </r>
       <r>    13.8683     1.8516    75.7230 </r>
       <r>    13.9546     1.8665    75.8839 </r>
       <r>    14.0408     1.9263    76.0500 </r>
       <r>    14.1270     2.0205    76.2242 </r>
       <r>    14.2132     2.1064    76.4058 </r>
       <r>    14.2994     2.1423    76.5905 </r>
       <r>    14.3857     2.1170    76.7730 </r>
       <r>    14.4719     2.0496    76.9497 </r>
       <r>    14.5581     1.9673    77.1194 </r>
       <r>    14.6443     1.8889    77.2822 </r>
       <r>    14.7305     1.8246    77.4395 </r>
       <r>    14.8167     1.7785    77.5929 </r>
       <r>    14.9030     1.7457    77.7434 </r>
       <r>    14.9892     1.7116    77.8910 </r>
       <r>    15.0754     1.6622    78.0343 </r>
       <r>    15.1616     1.5940    78.1717 </r>
       <r>    15.2478     1.5142    78.3023 </r>
       <r>    15.3341     1.4330    78.4258 </r>
       <r>    15.4203     1.3596    78.5430 </r>
       <r>    15.5065     1.3005    78.6552 </r>
       <r>    15.5927     1.2559    78.7635 </r>
       <r>    15.6789     1.2169    78.8684 </r>
       <r>    15.7651     1.1675    78.9690 </r>
       <r>    15.8514     1.0958    79.0635 </r>
       <r>    15.9376     1.0032    79.1500 </r>
       <r>    16.0238     0.9051    79.2280 </r>
       <r>    16.1100     0.8187    79.2986 </r>
       <r>    16.1962     0.7513    79.3634 </r>
       <r>    16.2825     0.6973    79.4235 </r>
       <r>    16.3687     0.6462    79.4792 </r>
       <r>    16.4549     0.5915    79.5302 </r>
       <r>    16.5411     0.5339    79.5763 </r>
       <r>    16.6273     0.4776    79.6175 </r>
       <r>    16.7136     0.4267    79.6542 </r>
       <r>    16.7998     0.3830    79.6873 </r>
       <r>    16.8860     0.3472    79.7172 </r>
       <r>    16.9722     0.3190    79.7447 </r>
       <r>    17.0584     0.2973    79.7703 </r>
       <r>    17.1446     0.2800    79.7945 </r>
       <r>    17.2309     0.2642    79.8173 </r>
       <r>    17.3171     0.2467    79.8385 </r>
       <r>    17.4033     0.2257    79.8580 </r>
       <r>    17.4895     0.2035    79.8755 </r>
       <r>    17.5757     0.1842    79.8914 </r>
       <r>    17.6620     0.1702    79.9061 </r>
       <r>    17.7482     0.1593    79.9198 </r>
       <r>    17.8344     0.1475    79.9325 </r>
       <r>    17.9206     0.1325    79.9440 </r>
       <r>    18.0068     0.1145    79.9538 </r>
       <r>    18.0931     0.0950    79.9620 </r>
       <r>    18.1793     0.0750    79.9685 </r>
       <r>    18.2655     0.0565    79.9734 </r>
       <r>    18.3517     0.0422    79.9770 </r>
       <r>    18.4379     0.0341    79.9799 </r>
       <r>    18.5241     0.0319    79.9827 </r>
       <r>    18.6104     0.0328    79.9855 </r>
       <r>    18.6966     0.0330    79.9884 </r>
       <r>    18.7828     0.0300    79.9910 </r>
       <r>    18.8690     0.0236    79.9930 </r>
       <r>    18.9552     0.0160    79.9944 </r>
       <r>    19.0415     0.0095    79.9952 </r>
       <r>    19.1277     0.0061    79.9957 </r>
       <r>    19.2139     0.0057    79.9962 </r>
       <r>    19.3001     0.0072    79.9968 </r>
       <r>    19.3863     0.0089    79.9976 </r>
       <r>    19.4725     0.0092    79.9984 </r>
       <r>    19.5588     0.0077    79.9990 </r>
       <r>    19.6450     0.0053    79.9995 </r>
       <r>    19.7312     0.0031    79.9998 </r>
       <r>    19.8174     0.0017    79.9999 </r>
       <r>    19.9036     0.0009    80.0000 </r>
       <r>    19.9899     0.0004    80.0000 </r>
       <r>    20.0761     0.0001    80.0000 </r>
       <r>    20.1623    -0.0001    80.0000 </r>
       <r>    20.2485    -0.0001    80.0000 </r>
       <r>    20.3347    -0.0001    80.0000 </r>
       <r>    20.4210     0.0000    80.0000 </r>
       <r>    20.5072     0.0000    80.0000 </r>
       <r>    20.5934     0.0000    80.0000 </r>
       <r>    20.6796     0.0000    80.0000 </r>
       <r>    20.7658     0.0000    80.0000 </r>
       <r>    20.8520     0.0000    80.0000 </r>
       <r>    20.9383     0.0000    80.0000 </r>
       <r>    21.0245     0.0000    80.0000 </r>
       <r>    21.1107     0.0000    80.0000 </r>
       <r>    21.1969     0.0000    80.0000 </r>
       <r>    21.2831     0.0000    80.0000 </r>
       <r>    21.3694     0.0000    80.0000 </r>
       <r>    21.4556     0.0000    80.0000 </r>
       <r>    21.5418     0.0000    80.0000 </r>
       <r>    21.6280     0.0000    80.0000 </r>
       <r>    21.7142     0.0000    80.0000 </r>
       <r>    21.8004     0.0000    80.0000 </r>
       <r>    21.8867     0.0000    80.0000 </r>
       <r>    21.9729     0.0000    80.0000 </r>
       <r>    22.0591     0.0000    80.0000 </r>
       <r>    22.1453     0.0000    80.0000 </r>
       <r>    22.2315     0.0000    80.0000 </r>
       <r>    22.3178     0.0000    80.0000 </r>
       <r>    22.4040     0.0000    80.0000 </r>
       <r>    22.4902     0.0000    80.0000 </r>
       <r>    22.5764     0.0000    80.0000 </r>
       <r>    22.6626     0.0000    80.0000 </r>
       <r>    22.7489     0.0000    80.0000 </r>
      </set>
     </set>
    </array>
   </total>
  </dos>
 </calculation>
 <structure name="finalpos" >
  <crystal>
   <varray name="basis" >
    <v>       0.00000000       2.06113315       2.06113315 </v>
    <v>      -0.00823168      -4.14107724       4.14107724 </v>
    <v>       6.27011770       0.01085142      -2.07198458 </v>
   </varray>
   <i name="volume">    106.99947773 </i>
   <varray name="rec_basis" >
    <v>       0.07976966       0.24250572       0.24266429 </v>
    <v>       0.04012171      -0.12078141       0.12078141 </v>
    <v>       0.15953931      -0.00015857       0.00015857 </v>
   </varray>
  </crystal>
  <varray name="positions" >
   <v>       0.33232150       0.66605718       0.66464300 </v>
   <v>       0.99923236       0.49996682       0.99846472 </v>
   <v>       0.66743430       0.33336652       0.33486861 </v>
   <v>       0.33434517       0.16727615       0.66869034 </v>
   <v>       0.00000826       0.00134994       0.00001652 </v>
   <v>       0.66665841       0.83198339       0.33331681 </v>
  </varray>
 </structure>
</modeling>
