<?xml version="1.0" encoding="ISO-8859-1"?>
<modeling>
 <generator>
  <i name="program" type="string">vasp </i>
  <i name="version" type="string">5.3.5  </i>
  <i name="subversion" type="string">31Mar14 (build Jun 20 2014 13:15:13) complex                          parallel </i>
  <i name="platform" type="string">LinuxIFC </i>
  <i name="date" type="string">2025 12 12 </i>
  <i name="time" type="string">11:28:08 </i>
 </generator>
 <incar>
  <i type="string" name="PREC">accurate</i>
  <i type="int" name="IALGO">    38</i>
  <i type="logical" name="ADDGRID"> T  </i>
  <i type="int" name="ISPIN">     2</i>
  <i type="int" name="NELM">   100</i>
  <i type="int" name="NELMIN">     4</i>
  <i name="EDIFF">      0.00000100</i>
  <i name="ENCUT">    500.00000000</i>
  <i type="logical" name="LREAL"> F  </i>
  <i type="int" name="ISMEAR">     0</i>
  <i name="SIGMA">      0.05000000</i>
  <i type="logical" name="LWAVE"> F  </i>
  <i type="logical" name="LCHARG"> F  </i>
  <i type="int" name="NELM">   100</i>
  <i type="logical" name="LDAU"> T  </i>
  <v name="LDAUU">      0.00000000      4.00000000      0.00000000</v>
  <v name="LDAUJ">      0.00000000      0.00000000      0.00000000</v>
 </incar>
 <kpoints>
  <generation param="Auto">
   <i name="subdivisionlength">     20.00000000 </i>
   <v type="int" name="divisions">       4        5        2 </v>
   <v name="usershift">      0.00000000       0.00000000       0.00000000 </v>
   <v name="genvec1">      0.25000000       0.00000000       0.00000000 </v>
   <v name="genvec2">      0.00000000       0.20000000       0.00000000 </v>
   <v name="genvec3">      0.00000000       0.00000000       0.50000000 </v>
   <v name="shift">      0.00000000       0.00000000       0.00000000 </v>
  </generation>
  <varray name="kpointlist" >
   <v>       0.00000000       0.00000000       0.00000000 </v>
   <v>       0.25000000       0.00000000       0.00000000 </v>
   <v>       0.50000000       0.00000000       0.00000000 </v>
   <v>       0.00000000       0.20000000       0.00000000 </v>
   <v>       0.25000000       0.20000000       0.00000000 </v>
   <v>       0.50000000       0.20000000       0.00000000 </v>
   <v>       0.00000000       0.40000000       0.00000000 </v>
   <v>       0.25000000       0.40000000       0.00000000 </v>
   <v>       0.50000000       0.40000000       0.00000000 </v>
   <v>       0.00000000       0.00000000       0.50000000 </v>
   <v>       0.25000000       0.00000000       0.50000000 </v>
   <v>       0.50000000       0.00000000       0.50000000 </v>
   <v>       0.00000000       0.20000000       0.50000000 </v>
   <v>       0.25000000       0.20000000       0.50000000 </v>
   <v>       0.50000000       0.20000000       0.50000000 </v>
   <v>       0.00000000       0.40000000       0.50000000 </v>
   <v>       0.25000000       0.40000000       0.50000000 </v>
   <v>       0.50000000       0.40000000       0.50000000 </v>
  </varray>
  <varray name="weights" >
   <v>       0.02500000 </v>
   <v>       0.05000000 </v>
   <v>       0.02500000 </v>
   <v>       0.05000000 </v>
   <v>       0.10000000 </v>
   <v>       0.05000000 </v>
   <v>       0.05000000 </v>
   <v>       0.10000000 </v>
   <v>       0.05000000 </v>
   <v>       0.02500000 </v>
   <v>       0.05000000 </v>
   <v>       0.02500000 </v>
   <v>       0.05000000 </v>
   <v>       0.10000000 </v>
   <v>       0.05000000 </v>
   <v>       0.05000000 </v>
   <v>       0.10000000 </v>
   <v>       0.05000000 </v>
  </varray>
 </kpoints>
 <parameters>
  <separator name="general" >
   <i type="string" name="SYSTEM">unknown system</i>
   <i type="logical" name="LCOMPAT"> F  </i>
  </separator>
  <separator name="electronic" >
   <i type="string" name="PREC">accura</i>
   <i name="ENMAX">    500.00000000</i>
   <i name="ENAUG">    586.98000000</i>
   <i name="EDIFF">      0.00000100</i>
   <i type="int" name="IALGO">    38</i>
   <i type="int" name="IWAVPR">    10</i>
   <i type="int" name="NBANDS">    72</i>
   <i name="NELECT">    105.00000000</i>
   <i type="int" name="TURBO">     0</i>
   <i type="int" name="IRESTART">     0</i>
   <i type="int" name="NREBOOT">     0</i>
   <i type="int" name="NMIN">     0</i>
   <i name="EREF">      0.00000000</i>
   <separator name="electronic smearing" >
    <i type="int" name="ISMEAR">     0</i>
    <i name="SIGMA">      0.05000000</i>
    <i name="KSPACING">      0.50000000</i>
    <i type="logical" name="KGAMMA"> T  </i>
   </separator>
   <separator name="electronic projectors" >
    <i type="logical" name="LREAL"> F  </i>
    <v name="ROPT">      0.00000000      0.00000000      0.00000000</v>
    <i type="int" name="LMAXPAW">  -100</i>
    <i type="int" name="LMAXMIX">     2</i>
    <i type="logical" name="NLSPLINE"> F  </i>
   </separator>
   <separator name="electronic startup" >
    <i type="int" name="ISTART">     0</i>
    <i type="int" name="ICHARG">     2</i>
    <i type="int" name="INIWAV">     1</i>
   </separator>
   <separator name="electronic spin" >
    <i type="int" name="ISPIN">     2</i>
    <i type="logical" name="LNONCOLLINEAR"> F  </i>
    <v name="MAGMOM">      1.00000000      1.00000000      1.00000000      1.00000000      1.00000000      1.00000000      1.00000000      1.00000000      1.00000000      1.00000000      1.00000000      1.00000000      1.00000000</v>
    <i name="NUPDOWN">     -1.00000000</i>
    <i type="logical" name="LSORBIT"> F  </i>
    <v name="SAXIS">      0.00000000      0.00000000      1.00000000</v>
    <i type="logical" name="LSPIRAL"> F  </i>
    <v name="QSPIRAL">      0.00000000      0.00000000      0.00000000</v>
    <i type="logical" name="LZEROZ"> F  </i>
   </separator>
   <separator name="electronic exchange-correlation" >
    <i type="logical" name="LASPH"> F  </i>
    <i type="logical" name="LMETAGGA"> F  </i>
   </separator>
   <separator name="electronic convergence" >
    <i type="int" name="NELM">   100</i>
    <i type="int" name="NELMDL">    -5</i>
    <i type="int" name="NELMIN">     4</i>
    <i name="ENINI">    500.00000000</i>
    <separator name="electronic convergence detail" >
     <i type="logical" name="LDIAG"> T  </i>
     <i type="logical" name="LSUBROT"> F  </i>
     <i name="WEIMIN">      0.00000000</i>
     <i name="EBREAK">      0.00000000</i>
     <i name="DEPER">      0.30000000</i>
     <i type="int" name="NRMM">     4</i>
     <i name="TIME">      0.40000000</i>
    </separator>
   </separator>
   <separator name="electronic mixer" >
    <i name="AMIX">      0.40000000</i>
    <i name="BMIX">      1.00000000</i>
    <i name="AMIN">      0.10000000</i>
    <i name="AMIX_MAG">      1.60000000</i>
    <i name="BMIX_MAG">      1.00000000</i>
    <separator name="electronic mixer details" >
     <i type="int" name="IMIX">     4</i>
     <i type="int" name="MAXMIX">   -45</i>
     <i name="WC">    100.00000000</i>
     <i type="int" name="INIMIX">     1</i>
     <i type="int" name="MIXPRE">     1</i>
     <i type="int" name="MREMOVE">     5</i>
    </separator>
   </separator>
   <separator name="electronic dipolcorrection" >
    <i type="logical" name="LDIPOL"> F  </i>
    <i type="logical" name="LMONO"> F  </i>
    <i type="int" name="IDIPOL">     0</i>
    <i name="EPSILON">      1.00000000</i>
    <v name="DIPOL">   -100.00000000   -100.00000000   -100.00000000</v>
    <i name="EFIELD">      0.00000000</i>
   </separator>
  </separator>
  <separator name="grids" >
   <i type="int" name="NGX">    42</i>
   <i type="int" name="NGY">    30</i>
   <i type="int" name="NGZ">    70</i>
   <i type="int" name="NGXF">    84</i>
   <i type="int" name="NGYF">    60</i>
   <i type="int" name="NGZF">   140</i>
   <i type="logical" name="ADDGRID"> T  </i>
  </separator>
  <separator name="ionic" >
   <i type="int" name="NSW">     0</i>
   <i type="int" name="IBRION">    -1</i>
   <i type="int" name="ISIF">     2</i>
   <i name="PSTRESS">      0.00000000</i>
   <i name="EDIFFG">      0.00001000</i>
   <i type="int" name="NFREE">     0</i>
   <i name="POTIM">      0.50000000</i>
   <i name="SMASS">     -3.00000000</i>
   <i name="SCALEE">      1.00000000</i>
  </separator>
  <separator name="ionic md" >
   <i name="TEBEG">      0.00010000</i>
   <i name="TEEND">      0.00010000</i>
   <i type="int" name="NBLOCK">     1</i>
   <i type="int" name="KBLOCK">     1</i>
   <i type="int" name="NPACO">   256</i>
   <i name="APACO">     16.00000000</i>
  </separator>
  <separator name="symmetry" >
   <i type="int" name="ISYM">     2</i>
   <i name="SYMPREC">      0.00001000</i>
  </separator>
  <separator name="dos" >
   <i type="logical" name="LORBIT"> F  </i>
   <v name="RWIGS">     -1.00000000     -1.00000000     -1.00000000</v>
   <i type="int" name="NEDOS">   301</i>
   <i name="EMIN">     10.00000000</i>
   <i name="EMAX">    -10.00000000</i>
   <i name="EFERMI">      0.00000000</i>
  </separator>
  <separator name="writing" >
   <i type="int" name="NWRITE">     2</i>
   <i type="logical" name="LWAVE"> F  </i>
   <i type="logical" name="LCHARG"> F  </i>
   <i type="logical" name="LPARD"> F  </i>
   <i type="logical" name="LVTOT"> F  </i>
   <i type="logical" name="LVHAR"> F  </i>
   <i type="logical" name="LELF"> F  </i>
   <i type="logical" name="LOPTICS"> F  </i>
   <v name="STM">      0.00000000      0.00000000      0.00000000      0.00000000      0.00000000      0.00000000      0.00000000</v>
  </separator>
  <separator name="performance" >
   <i type="int" name="NPAR">     4</i>
   <i type="int" name="NSIM">     4</i>
   <i type="int" name="NBLK">    -1</i>
   <i type="logical" name="LPLANE"> T  </i>
   <i type="logical" name="LSCALAPACK"> T  </i>
   <i type="logical" name="LSCAAWARE"> F  </i>
   <i type="logical" name="LSCALU"> F  </i>
   <i type="logical" name="LASYNC"> F  </i>
   <i type="logical" name="LORBITALREAL"> F  </i>
  </separator>
  <separator name="miscellaneous" >
   <i type="int" name="IDIOT">     3</i>
   <i type="logical" name="LMUSIC"> F  </i>
   <v name="POMASS">     87.62000000     63.54600000     16.00000000</v>
   <v name="DARWINR">      0.00000000      0.00000000      0.00000000</v>
   <v name="DARWINV">      1.00000000      1.00000000      1.00000000</v>
   <i type="logical" name="LCORR"> T  </i>
  </separator>
  <i type="logical" name="GGA_COMPAT"> T  </i>
  <i type="logical" name="LBERRY"> F  </i>
  <i type="int" name="ICORELEVEL">     0</i>
  <i type="logical" name="LDAU"> T  </i>
  <v type="int" name="LDAUTYPE">     2</v>
  <v type="int" name="LDAUL">     2</v>
  <v name="LDAUU">      0.00000000</v>
  <v name="LDAUJ">      0.00000000</v>
  <i type="int" name="LDAUPRINT">     0</i>
  <i type="int" name="I_CONSTRAINED_M">     0</i>
  <separator name="electronic exchange-correlation" >
   <i type="string" name="GGA">--</i>
   <i type="int" name="VOSKOWN">     0</i>
   <i type="logical" name="LHFCALC"> F  </i>
   <i type="string" name="PRECFOCK"></i>
   <i type="logical" name="LSYMGRAD"> F  </i>
   <i type="logical" name="LHFONE"> F  </i>
   <i type="logical" name="LRHFCALC"> F  </i>
   <i type="logical" name="LTHOMAS"> F  </i>
   <i type="logical" name="LMODELHF"> F  </i>
   <i name="ENCUT4O">     -1.00000000</i>
   <i type="int" name="EXXOEP">     0</i>
   <i type="int" name="FOURORBIT">     0</i>
   <i name="AEXX">      0.00000000</i>
   <i name="HFALPHA">      0.00000000</i>
   <i name="MCALPHA">      0.00000000</i>
   <i name="ALDAX">      1.00000000</i>
   <i name="AGGAX">      1.00000000</i>
   <i name="ALDAC">      1.00000000</i>
   <i name="AGGAC">      1.00000000</i>
   <i type="int" name="NKREDX">     1</i>
   <i type="int" name="NKREDY">     1</i>
   <i type="int" name="NKREDZ">     1</i>
   <i type="logical" name="SHIFTRED"> F  </i>
   <i type="logical" name="ODDONLY"> F  </i>
   <i type="logical" name="EVENONLY"> F  </i>
   <i type="int" name="LMAXFOCK">     0</i>
   <i type="int" name="NMAXFOCKAE">     0</i>
   <i type="logical" name="LFOCKAEDFT"> F  </i>
   <i name="HFSCREEN">      0.00000000</i>
   <i name="HFSCREENC">      0.00000000</i>
   <i type="int" name="NBANDSGWLOW">     0</i>
  </separator>
  <separator name="vdW DFT" >
   <i type="logical" name="LUSE_VDW"> F  </i>
   <i name="Zab_VDW">     -0.84910000</i>
   <i name="PARAM1">      0.12340000</i>
   <i name="PARAM2">      1.00000000</i>
   <i name="PARAM3">      0.00000000</i>
  </separator>
  <separator name="model GW" >
   <i type="int" name="MODEL_GW">     0</i>
   <i name="MODEL_EPS0">      8.86153846</i>
   <i name="MODEL_ALPHA">      1.00000000</i>
  </separator>
  <separator name="linear response parameters" >
   <i type="logical" name="LEPSILON"> F  </i>
   <i type="logical" name="LRPA"> F  </i>
   <i type="logical" name="LNABLA"> F  </i>
   <i type="logical" name="LVEL"> F  </i>
   <i type="int" name="KINTER">     0</i>
   <i name="CSHIFT">      0.10000000</i>
   <i name="OMEGAMAX">     -1.00000000</i>
   <i name="DEG_THRESHOLD">      0.00200000</i>
  </separator>
  <separator name="orbital magnetization" >
   <i type="logical" name="NUCIND"> F  </i>
   <v name="MAGPOS">      0.00000000      0.00000000      0.00000000</v>
   <i type="logical" name="LNICSALL"> T  </i>
   <i type="logical" name="ORBITALMAG"> F  </i>
   <i type="logical" name="LMAGBLOCH"> F  </i>
   <i type="logical" name="LCHIMAG"> F  </i>
   <i type="logical" name="LGAUGE"> T  </i>
   <i type="int" name="MAGATOM">     0</i>
   <v name="MAGDIPOL">      0.00000000      0.00000000      0.00000000</v>
   <v name="AVECCONST">      0.00000000      0.00000000      0.00000000</v>
  </separator>
  <separator name="response functions" >
   <i type="logical" name="LADDER"> F  </i>
   <i type="logical" name="LFXC"> F  </i>
   <i type="logical" name="LHARTREE"> T  </i>
   <i type="int" name="IBSE">     0</i>
   <i type="logical" name="LTCTE"> F  </i>
   <i type="logical" name="LTETE"> F  </i>
   <i type="logical" name="LTRIPLET"> F  </i>
   <i type="logical" name="LFXCEPS"> F  </i>
   <i type="logical" name="LFXHEG"> F  </i>
   <i type="logical" name="L2ORDER"> F  </i>
   <i type="logical" name="LUSEW"> F  </i>
   <i name="ENCUTGW">     -2.00000000</i>
   <i name="ENCUTGWSOFT">     -2.00000000</i>
   <i name="ENCUTLF">     -1.00000000</i>
   <i type="int" name="LMAXMP2">    -1</i>
   <i name="SCISSOR">      0.00000000</i>
   <i type="int" name="NOMEGA">     0</i>
   <i type="int" name="NOMEGAR">     0</i>
   <i type="int" name="NBANDSGW">    -1</i>
   <i type="int" name="NBANDSO">    -1</i>
   <i type="int" name="NBANDSV">    -1</i>
   <i type="int" name="NELM">   100</i>
   <i type="int" name="DIM">     3</i>
   <i type="int" name="ANTIRES">     0</i>
   <i name="OMEGAMAX">    -30.00000000</i>
   <i name="OMEGAMIN">    -30.00000000</i>
   <i name="OMEGATL">   -200.00000000</i>
   <i type="int" name="OMEGAGRID">     0</i>
   <i name="CSHIFT">     -0.10000000</i>
   <i type="logical" name="SELFENERGY"> F  </i>
   <i type="logical" name="LSPECTRAL"> F  </i>
   <i type="logical" name="ODDONLYGW"> F  </i>
   <i type="logical" name="EVENONLYGW"> F  </i>
   <i type="int" name="NKREDLFX">     1</i>
   <i type="int" name="NKREDLFY">     1</i>
   <i type="int" name="NKREDLFZ">     1</i>
   <i type="int" name="MAXMEM">  1800</i>
   <i type="int" name="TELESCOPE">     0</i>
   <i type="int" name="TAUPAR">     1</i>
  </separator>
  <separator name="External order field" >
   <i name="OFIELD_KAPPA">      0.00000000</i>
   <v name="OFIELD_K">      0.00000000      0.00000000      0.00000000</v>
   <i name="OFIELD_Q6_NEAR">      0.00000000</i>
   <i name="OFIELD_Q6_FAR">      0.00000000</i>
   <i name="OFIELD_A">      0.00000000</i>
  </separator>
 </parameters>
 <atominfo>
  <atoms>      13 </atoms>
  <types>       3 </types>
  <array name="atoms" >
   <dimension dim="1">ion</dimension>
   <field type="string">element</field>
   <field type="int">atomtype</field>
   <set>
    <rc><c>Sr</c><c>   1</c></rc>
    <rc><c>Sr</c><c>   1</c></rc>
    <rc><c>Sr</c><c>   1</c></rc>
    <rc><c>Cu</c><c>   2</c></rc>
    <rc><c>Cu</c><c>   2</c></rc>
    <rc><c>Cu</c><c>   2</c></rc>
    <rc><c>O </c><c>   3</c></rc>
    <rc><c>O </c><c>   3</c></rc>
    <rc><c>O </c><c>   3</c></rc>
    <rc><c>O </c><c>   3</c></rc>
    <rc><c>O </c><c>   3</c></rc>
    <rc><c>O </c><c>   3</c></rc>
    <rc><c>O </c><c>   3</c></rc>
   </set>
  </array>
  <array name="atomtypes" >
   <dimension dim="1">type</dimension>
   <field type="int">atomspertype</field>
   <field type="string">element</field>
   <field>mass</field>
   <field>valence</field>
   <field type="string">pseudopotential</field>
   <set>
    <rc><c>   3</c><c>Sr</c><c>     87.62000000</c><c>     10.00000000</c><c>  PAW_PBE Sr_sv 07Sep2000               </c></rc>
    <rc><c>   3</c><c>Cu</c><c>     63.54600000</c><c>     11.00000000</c><c>  PAW_PBE Cu 22Jun2005                  </c></rc>
    <rc><c>   7</c><c>O </c><c>     16.00000000</c><c>      6.00000000</c><c>  PAW_PBE O_s 07Sep2000                 </c></rc>
   </set>
  </array>
 </atominfo>
 <structure name="initialpos" >
  <crystal>
   <varray name="basis" >
    <v>       5.65685425       0.00000000       0.00000000 </v>
    <v>       0.00000000       4.00000000       0.00000000 </v>
    <v>      -2.82842712       0.00000000       8.48528137 </v>
   </varray>
   <i name="volume">    192.00000000 </i>
   <varray name="rec_basis" >
    <v>       0.17677670       0.00000000       0.05892557 </v>
    <v>       0.00000000       0.25000000       0.00000000 </v>
    <v>       0.00000000       0.00000000       0.11785113 </v>
   </varray>
  </crystal>
  <varray name="positions" >
   <v>       0.00000000       0.00000000       0.00000000 </v>
   <v>       0.66666667       0.00000000       0.33333333 </v>
   <v>       0.33333333       0.00000000       0.66666667 </v>
   <v>       0.50000000       0.50000000       0.00000000 </v>
   <v>       0.16666667       0.50000000       0.33333333 </v>
   <v>       0.83333333       0.50000000       0.66666667 </v>
   <v>       0.33333333       0.50000000       0.16666667 </v>
   <v>       0.00000000       0.50000000       0.50000000 </v>
   <v>       0.16666667       0.00000000       0.33333333 </v>
   <v>       0.83333333       0.00000000       0.66666667 </v>
   <v>       0.83333333       0.50000000       0.16666667 </v>
   <v>       0.50000000       0.50000000       0.50000000 </v>
   <v>       0.16666667       0.50000000       0.83333333 </v>
  </varray>
 </structure>
 <calculation>
  <scstep>
   <time name="dav">    1.31    1.31</time>
   <time name="total">    1.40    1.41</time>
   <energy>
    <i name="alphaZ">    486.12755352 </i>
    <i name="ewald">  -6875.32836974 </i>
    <i name="hartreedc">  -2950.55793146 </i>
    <i name="XCdc">    435.44199361 </i>
    <i name="pawpsdc">   7985.74573805 </i>
    <i name="pawaedc">  -8236.49949308 </i>
    <i name="eentropy">     -0.00249855 </i>
    <i name="bandstr">    693.84560468 </i>
    <i name="atom">   9728.62774250 </i>
    <i name="e_fr_energy">   1267.40033952 </i>
    <i name="e_wo_entrp">   1267.40283807 </i>
    <i name="e_0_energy">   1267.40158879 </i>
   </energy>
  </scstep>
  <scstep>
   <time name="dav">    1.33    1.33</time>
   <time name="total">    1.33    1.34</time>
   <energy>
    <i name="e_fr_energy">     90.62023189 </i>
    <i name="e_wo_entrp">     90.62533312 </i>
    <i name="e_0_energy">     90.62278250 </i>
   </energy>
  </scstep>
  <scstep>
   <time name="dav">    1.49    1.50</time>
   <time name="total">    1.50    1.51</time>
   <energy>
    <i name="e_fr_energy">    -70.81917148 </i>
    <i name="e_wo_entrp">    -70.80483044 </i>
    <i name="e_0_energy">    -70.81200096 </i>
   </energy>
  </scstep>
  <scstep>
   <time name="dav">    1.89    1.89</time>
   <time name="total">    1.89    1.91</time>
   <energy>
    <i name="e_fr_energy">    -81.88660269 </i>
    <i name="e_wo_entrp">    -81.86699773 </i>
    <i name="e_0_energy">    -81.87680021 </i>
   </energy>
  </scstep>
  <scstep>
   <time name="dav">    2.16    2.16</time>
   <time name="total">    2.32    2.33</time>
   <energy>
    <i name="e_fr_energy">    -82.45365775 </i>
    <i name="e_wo_entrp">    -82.43384166 </i>
    <i name="e_0_energy">    -82.44374971 </i>
   </energy>
  </scstep>
  <scstep>
   <time name="dav">    1.76    1.76</time>
   <time name="total">    2.01    2.02</time>
   <energy>
    <i name="e_fr_energy">    -77.23257817 </i>
    <i name="e_wo_entrp">    -77.21488066 </i>
    <i name="e_0_energy">    -77.22372941 </i>
   </energy>
  </scstep>
  <scstep>
   <time name="dav">    1.74    1.74</time>
   <time name="total">    1.99    2.00</time>
   <energy>
    <i name="e_fr_energy">    -65.84235640 </i>
    <i name="e_wo_entrp">    -65.83020521 </i>
    <i name="e_0_energy">    -65.83628080 </i>
   </energy>
  </scstep>
  <scstep>
   <time name="dav">    1.92    1.92</time>
   <time name="total">    2.17    2.18</time>
   <energy>
    <i name="e_fr_energy">    -67.01552506 </i>
    <i name="e_wo_entrp">    -67.00685620 </i>
    <i name="e_0_energy">    -67.01119063 </i>
   </energy>
  </scstep>
  <scstep>
   <time name="dav">    1.81    1.81</time>
   <time name="total">    2.05    2.07</time>
   <energy>
    <i name="e_fr_energy">    -68.46592952 </i>
    <i name="e_wo_entrp">    -68.45290720 </i>
    <i name="e_0_energy">    -68.45941836 </i>
   </energy>
  </scstep>
  <scstep>
   <time name="dav">    1.72    1.72</time>
   <time name="total">    1.96    1.98</time>
   <energy>
    <i name="e_fr_energy">    -65.78295460 </i>
    <i name="e_wo_entrp">    -65.77620843 </i>
    <i name="e_0_energy">    -65.77958151 </i>
   </energy>
  </scstep>
  <scstep>
   <time name="dav">    1.84    1.85</time>
   <time name="total">    2.09    2.11</time>
   <energy>
    <i name="e_fr_energy">    -64.15004403 </i>
    <i name="e_wo_entrp">    -64.13858064 </i>
    <i name="e_0_energy">    -64.14431233 </i>
   </energy>
  </scstep>
  <scstep>
   <time name="dav">    1.77    1.77</time>
   <time name="total">    2.01    2.02</time>
   <energy>
    <i name="e_fr_energy">    -64.46571636 </i>
    <i name="e_wo_entrp">    -64.45423612 </i>
    <i name="e_0_energy">    -64.45997624 </i>
   </energy>
  </scstep>
  <scstep>
   <time name="dav">    1.76    1.76</time>
   <time name="total">    2.00    2.02</time>
   <energy>
    <i name="e_fr_energy">    -64.47479814 </i>
    <i name="e_wo_entrp">    -64.46310814 </i>
    <i name="e_0_energy">    -64.46895314 </i>
   </energy>
  </scstep>
  <scstep>
   <time name="dav">    1.84    1.85</time>
   <time name="total">    2.09    2.10</time>
   <energy>
    <i name="e_fr_energy">    -64.47959769 </i>
    <i name="e_wo_entrp">    -64.47056656 </i>
    <i name="e_0_energy">    -64.47508212 </i>
   </energy>
  </scstep>
  <scstep>
   <time name="dav">    1.80    1.80</time>
   <time name="total">    2.05    2.08</time>
   <energy>
    <i name="e_fr_energy">    -64.47718614 </i>
    <i name="e_wo_entrp">    -64.46728679 </i>
    <i name="e_0_energy">    -64.47223647 </i>
   </energy>
  </scstep>
  <scstep>
   <time name="dav">    1.83    1.83</time>
   <time name="total">    2.08    2.09</time>
   <energy>
    <i name="e_fr_energy">    -64.46764512 </i>
    <i name="e_wo_entrp">    -64.45650858 </i>
    <i name="e_0_energy">    -64.46207685 </i>
   </energy>
  </scstep>
  <scstep>
   <time name="dav">    1.85    1.85</time>
   <time name="total">    2.10    2.11</time>
   <energy>
    <i name="e_fr_energy">    -64.46912845 </i>
    <i name="e_wo_entrp">    -64.45824257 </i>
    <i name="e_0_energy">    -64.46368551 </i>
   </energy>
  </scstep>
  <scstep>
   <time name="dav">    1.89    1.89</time>
   <time name="total">    2.13    2.15</time>
   <energy>
    <i name="e_fr_energy">    -64.47007696 </i>
    <i name="e_wo_entrp">    -64.45926539 </i>
    <i name="e_0_energy">    -64.46467118 </i>
   </energy>
  </scstep>
  <scstep>
   <time name="dav">    1.91    1.91</time>
   <time name="total">    2.15    2.17</time>
   <energy>
    <i name="e_fr_energy">    -64.47084113 </i>
    <i name="e_wo_entrp">    -64.46006678 </i>
    <i name="e_0_energy">    -64.46545396 </i>
   </energy>
  </scstep>
  <scstep>
   <time name="dav">    1.80    1.80</time>
   <time name="total">    2.05    2.06</time>
   <energy>
    <i name="e_fr_energy">    -64.47188476 </i>
    <i name="e_wo_entrp">    -64.46141715 </i>
    <i name="e_0_energy">    -64.46665096 </i>
   </energy>
  </scstep>
  <scstep>
   <time name="dav">    1.88    1.89</time>
   <time name="total">    2.13    2.15</time>
   <energy>
    <i name="e_fr_energy">    -64.47251913 </i>
    <i name="e_wo_entrp">    -64.46192569 </i>
    <i name="e_0_energy">    -64.46722241 </i>
   </energy>
  </scstep>
  <scstep>
   <time name="dav">    1.95    1.95</time>
   <time name="total">    2.19    2.21</time>
   <energy>
    <i name="e_fr_energy">    -64.47336211 </i>
    <i name="e_wo_entrp">    -64.46280874 </i>
    <i name="e_0_energy">    -64.46808543 </i>
   </energy>
  </scstep>
  <scstep>
   <time name="dav">    1.92    1.92</time>
   <time name="total">    2.17    2.18</time>
   <energy>
    <i name="e_fr_energy">    -64.47382500 </i>
    <i name="e_wo_entrp">    -64.46351702 </i>
    <i name="e_0_energy">    -64.46867101 </i>
   </energy>
  </scstep>
  <scstep>
   <time name="dav">    2.01    2.01</time>
   <time name="total">    2.25    2.27</time>
   <energy>
    <i name="e_fr_energy">    -64.47425575 </i>
    <i name="e_wo_entrp">    -64.46414465 </i>
    <i name="e_0_energy">    -64.46920020 </i>
   </energy>
  </scstep>
  <scstep>
   <time name="dav">    2.01    2.01</time>
   <time name="total">    2.26    2.27</time>
   <energy>
    <i name="e_fr_energy">    -64.47448972 </i>
    <i name="e_wo_entrp">    -64.46446156 </i>
    <i name="e_0_energy">    -64.46947564 </i>
   </energy>
  </scstep>
  <scstep>
   <time name="dav">    1.80    1.80</time>
   <time name="total">    2.04    2.06</time>
   <energy>
    <i name="e_fr_energy">    -64.47405019 </i>
    <i name="e_wo_entrp">    -64.46396256 </i>
    <i name="e_0_energy">    -64.46900637 </i>
   </energy>
  </scstep>
  <scstep>
   <time name="dav">    1.84    1.85</time>
   <time name="total">    2.09    2.11</time>
   <energy>
    <i name="e_fr_energy">    -64.47439890 </i>
    <i name="e_wo_entrp">    -64.46435065 </i>
    <i name="e_0_energy">    -64.46937478 </i>
   </energy>
  </scstep>
  <scstep>
   <time name="dav">    1.89    1.89</time>
   <time name="total">    2.13    2.15</time>
   <energy>
    <i name="e_fr_energy">    -64.47466276 </i>
    <i name="e_wo_entrp">    -64.46470897 </i>
    <i name="e_0_energy">    -64.46968586 </i>
   </energy>
  </scstep>
  <scstep>
   <time name="dav">    1.93    1.94</time>
   <time name="total">    2.18    2.20</time>
   <energy>
    <i name="e_fr_energy">    -64.47486436 </i>
    <i name="e_wo_entrp">    -64.46500077 </i>
    <i name="e_0_energy">    -64.46993256 </i>
   </energy>
  </scstep>
  <scstep>
   <time name="dav">    1.79    1.79</time>
   <time name="total">    2.04    2.06</time>
   <energy>
    <i name="e_fr_energy">    -64.47493336 </i>
    <i name="e_wo_entrp">    -64.46510698 </i>
    <i name="e_0_energy">    -64.47002017 </i>
   </energy>
  </scstep>
  <scstep>
   <time name="dav">    1.69    1.69</time>
   <time name="total">    1.94    1.95</time>
   <energy>
    <i name="e_fr_energy">    -64.47487526 </i>
    <i name="e_wo_entrp">    -64.46504535 </i>
    <i name="e_0_energy">    -64.46996030 </i>
   </energy>
  </scstep>
  <scstep>
   <time name="dav">    1.77    1.77</time>
   <time name="total">    2.02    2.04</time>
   <energy>
    <i name="e_fr_energy">    -64.47477018 </i>
    <i name="e_wo_entrp">    -64.46491187 </i>
    <i name="e_0_energy">    -64.46984102 </i>
   </energy>
  </scstep>
  <scstep>
   <time name="dav">    1.89    1.89</time>
   <time name="total">    2.14    2.15</time>
   <energy>
    <i name="e_fr_energy">    -64.47457693 </i>
    <i name="e_wo_entrp">    -64.46465692 </i>
    <i name="e_0_energy">    -64.46961693 </i>
   </energy>
  </scstep>
  <scstep>
   <time name="dav">    1.91    1.92</time>
   <time name="total">    2.17    2.18</time>
   <energy>
    <i name="e_fr_energy">    -64.47423258 </i>
    <i name="e_wo_entrp">    -64.46420387 </i>
    <i name="e_0_energy">    -64.46921823 </i>
   </energy>
  </scstep>
  <scstep>
   <time name="dav">    1.95    1.95</time>
   <time name="total">    2.20    2.22</time>
   <energy>
    <i name="e_fr_energy">    -64.47410337 </i>
    <i name="e_wo_entrp">    -64.46398064 </i>
    <i name="e_0_energy">    -64.46904200 </i>
   </energy>
  </scstep>
  <scstep>
   <time name="dav">    1.72    1.72</time>
   <time name="total">    1.97    1.98</time>
   <energy>
    <i name="e_fr_energy">    -64.47418430 </i>
    <i name="e_wo_entrp">    -64.46402877 </i>
    <i name="e_0_energy">    -64.46910653 </i>
   </energy>
  </scstep>
  <scstep>
   <time name="dav">    1.41    1.41</time>
   <time name="total">    1.66    1.67</time>
   <energy>
    <i name="e_fr_energy">    -64.47420688 </i>
    <i name="e_wo_entrp">    -64.46404169 </i>
    <i name="e_0_energy">    -64.46912428 </i>
   </energy>
  </scstep>
  <scstep>
   <time name="dav">    1.31    1.31</time>
   <time name="total">    1.56    1.57</time>
   <energy>
    <i name="e_fr_energy">    -64.47413844 </i>
    <i name="e_wo_entrp">    -64.46395227 </i>
    <i name="e_0_energy">    -64.46904536 </i>
   </energy>
  </scstep>
  <scstep>
   <time name="dav">    1.20    1.20</time>
   <time name="total">    1.46    1.47</time>
   <energy>
    <i name="e_fr_energy">    -64.47420598 </i>
    <i name="e_wo_entrp">    -64.46402755 </i>
    <i name="e_0_energy">    -64.46911676 </i>
   </energy>
  </scstep>
  <scstep>
   <time name="dav">    1.73    1.73</time>
   <time name="total">    1.98    2.00</time>
   <energy>
    <i name="e_fr_energy">    -64.47433612 </i>
    <i name="e_wo_entrp">    -64.46419849 </i>
    <i name="e_0_energy">    -64.46926731 </i>
   </energy>
  </scstep>
  <scstep>
   <time name="dav">    1.91    1.91</time>
   <time name="total">    2.16    2.18</time>
   <energy>
    <i name="e_fr_energy">    -64.47452553 </i>
    <i name="e_wo_entrp">    -64.46446780 </i>
    <i name="e_0_energy">    -64.46949667 </i>
   </energy>
  </scstep>
  <scstep>
   <time name="dav">    1.93    1.93</time>
   <time name="total">    2.19    2.20</time>
   <energy>
    <i name="e_fr_energy">    -64.47473769 </i>
    <i name="e_wo_entrp">    -64.46478884 </i>
    <i name="e_0_energy">    -64.46976327 </i>
   </energy>
  </scstep>
  <scstep>
   <time name="dav">    1.81    1.81</time>
   <time name="total">    2.07    2.08</time>
   <energy>
    <i name="e_fr_energy">    -64.47484202 </i>
    <i name="e_wo_entrp">    -64.46493880 </i>
    <i name="e_0_energy">    -64.46989041 </i>
   </energy>
  </scstep>
  <scstep>
   <time name="dav">    1.52    1.52</time>
   <time name="total">    1.77    1.79</time>
   <energy>
    <i name="e_fr_energy">    -64.47483598 </i>
    <i name="e_wo_entrp">    -64.46494378 </i>
    <i name="e_0_energy">    -64.46988988 </i>
   </energy>
  </scstep>
  <scstep>
   <time name="dav">    1.26    1.26</time>
   <time name="total">    1.51    1.52</time>
   <energy>
    <i name="e_fr_energy">    -64.47479926 </i>
    <i name="e_wo_entrp">    -64.46489984 </i>
    <i name="e_0_energy">    -64.46984955 </i>
   </energy>
  </scstep>
  <scstep>
   <time name="dav">    1.25    1.25</time>
   <time name="total">    1.50    1.52</time>
   <energy>
    <i name="e_fr_energy">    -64.47483962 </i>
    <i name="e_wo_entrp">    -64.46494996 </i>
    <i name="e_0_energy">    -64.46989479 </i>
   </energy>
  </scstep>
  <scstep>
   <time name="dav">    0.98    0.98</time>
   <time name="total">    1.24    1.25</time>
   <energy>
    <i name="e_fr_energy">    -64.47484768 </i>
    <i name="e_wo_entrp">    -64.46496438 </i>
    <i name="e_0_energy">    -64.46990603 </i>
   </energy>
  </scstep>
  <scstep>
   <time name="dav">    0.96    0.96</time>
   <time name="total">    1.22    1.23</time>
   <energy>
    <i name="e_fr_energy">    -64.47485368 </i>
    <i name="e_wo_entrp">    -64.46497513 </i>
    <i name="e_0_energy">    -64.46991440 </i>
   </energy>
  </scstep>
  <scstep>
   <time name="dav">    1.11    1.11</time>
   <time name="total">    1.36    1.38</time>
   <energy>
    <i name="e_fr_energy">    -64.47489272 </i>
    <i name="e_wo_entrp">    -64.46502900 </i>
    <i name="e_0_energy">    -64.46996086 </i>
   </energy>
  </scstep>
  <scstep>
   <time name="dav">    1.41    1.41</time>
   <time name="total">    1.67    1.68</time>
   <energy>
    <i name="e_fr_energy">    -64.47493228 </i>
    <i name="e_wo_entrp">    -64.46508798 </i>
    <i name="e_0_energy">    -64.47001013 </i>
   </energy>
  </scstep>
  <scstep>
   <time name="dav">    1.34    1.34</time>
   <time name="total">    1.60    1.61</time>
   <energy>
    <i name="e_fr_energy">    -64.47489450 </i>
    <i name="e_wo_entrp">    -64.46504571 </i>
    <i name="e_0_energy">    -64.46997011 </i>
   </energy>
  </scstep>
  <scstep>
   <time name="dav">    1.06    1.06</time>
   <time name="total">    1.31    1.33</time>
   <energy>
    <i name="e_fr_energy">    -64.47493221 </i>
    <i name="e_wo_entrp">    -64.46509407 </i>
    <i name="e_0_energy">    -64.47001314 </i>
   </energy>
  </scstep>
  <scstep>
   <time name="dav">    1.59    1.59</time>
   <time name="total">    1.84    1.86</time>
   <energy>
    <i name="e_fr_energy">    -64.47499194 </i>
    <i name="e_wo_entrp">    -64.46517831 </i>
    <i name="e_0_energy">    -64.47008512 </i>
   </energy>
  </scstep>
  <scstep>
   <time name="dav">    1.66    1.66</time>
   <time name="total">    1.92    1.93</time>
   <energy>
    <i name="e_fr_energy">    -64.47504454 </i>
    <i name="e_wo_entrp">    -64.46525924 </i>
    <i name="e_0_energy">    -64.47015189 </i>
   </energy>
  </scstep>
  <scstep>
   <time name="dav">    1.36    1.36</time>
   <time name="total">    1.62    1.63</time>
   <energy>
    <i name="e_fr_energy">    -64.47503938 </i>
    <i name="e_wo_entrp">    -64.46526220 </i>
    <i name="e_0_energy">    -64.47015079 </i>
   </energy>
  </scstep>
  <scstep>
   <time name="dav">    1.10    1.10</time>
   <time name="total">    1.39    1.40</time>
   <energy>
    <i name="e_fr_energy">    -64.47501182 </i>
    <i name="e_wo_entrp">    -64.46523045 </i>
    <i name="e_0_energy">    -64.47012114 </i>
   </energy>
  </scstep>
  <scstep>
   <time name="dav">    0.93    0.94</time>
   <time name="total">    1.19    1.21</time>
   <energy>
    <i name="e_fr_energy">    -64.47502004 </i>
    <i name="e_wo_entrp">    -64.46523927 </i>
    <i name="e_0_energy">    -64.47012965 </i>
   </energy>
  </scstep>
  <scstep>
   <time name="dav">    0.93    0.93</time>
   <time name="total">    1.18    1.20</time>
   <energy>
    <i name="e_fr_energy">    -64.47502159 </i>
    <i name="e_wo_entrp">    -64.46524158 </i>
    <i name="e_0_energy">    -64.47013159 </i>
   </energy>
  </scstep>
  <scstep>
   <time name="dav">    0.93    0.93</time>
   <time name="total">    1.19    1.20</time>
   <energy>
    <i name="e_fr_energy">    -64.47501834 </i>
    <i name="e_wo_entrp">    -64.46523782 </i>
    <i name="e_0_energy">    -64.47012808 </i>
   </energy>
  </scstep>
  <scstep>
   <time name="dav">    0.92    0.92</time>
   <time name="total">    1.17    1.19</time>
   <energy>
    <i name="e_fr_energy">    -64.47501571 </i>
    <i name="e_wo_entrp">    -64.46523478 </i>
    <i name="e_0_energy">    -64.47012525 </i>
   </energy>
  </scstep>
  <scstep>
   <time name="dav">    0.92    0.92</time>
   <time name="total">    1.18    1.19</time>
   <energy>
    <i name="e_fr_energy">    -64.47498556 </i>
    <i name="e_wo_entrp">    -64.46519635 </i>
    <i name="e_0_energy">    -64.47009095 </i>
   </energy>
  </scstep>
  <scstep>
   <time name="dav">    0.92    0.92</time>
   <time name="total">    1.18    1.19</time>
   <energy>
    <i name="e_fr_energy">    -64.47497618 </i>
    <i name="e_wo_entrp">    -64.46517871 </i>
    <i name="e_0_energy">    -64.47007744 </i>
   </energy>
  </scstep>
  <scstep>
   <time name="dav">    0.92    0.93</time>
   <time name="total">    1.18    1.19</time>
   <energy>
    <i name="e_fr_energy">    -64.47496990 </i>
    <i name="e_wo_entrp">    -64.46516669 </i>
    <i name="e_0_energy">    -64.47006830 </i>
   </energy>
  </scstep>
  <scstep>
   <time name="dav">    0.99    0.99</time>
   <time name="total">    1.24    1.26</time>
   <energy>
    <i name="e_fr_energy">    -64.47500107 </i>
    <i name="e_wo_entrp">    -64.46520405 </i>
    <i name="e_0_energy">    -64.47010256 </i>
   </energy>
  </scstep>
  <scstep>
   <time name="dav">    0.91    0.91</time>
   <time name="total">    1.17    1.18</time>
   <energy>
    <i name="e_fr_energy">    -64.47500547 </i>
    <i name="e_wo_entrp">    -64.46521251 </i>
    <i name="e_0_energy">    -64.47010899 </i>
   </energy>
  </scstep>
  <scstep>
   <time name="dav">    0.89    0.90</time>
   <time name="total">    1.15    1.16</time>
   <energy>
    <i name="e_fr_energy">    -64.47498628 </i>
    <i name="e_wo_entrp">    -64.46519030 </i>
    <i name="e_0_energy">    -64.47008829 </i>
   </energy>
  </scstep>
  <scstep>
   <time name="dav">    0.90    0.90</time>
   <time name="total">    0.99    1.00</time>
   <energy>
    <i name="alphaZ">    486.12755352 </i>
    <i name="ewald">  -6875.32836974 </i>
    <i name="hartreedc">  -2937.68394304 </i>
    <i name="XCdc">    435.32249471 </i>
    <i name="pawpsdc">  12396.92793831 </i>
    <i name="pawaedc"> -12676.53790231 </i>
    <i name="eentropy">     -0.00979743 </i>
    <i name="bandstr">   -621.92070323 </i>
    <i name="atom">   9728.62774250 </i>
    <i name="e_fr_energy">    -64.47498671 </i>
    <i name="e_wo_entrp">    -64.46518928 </i>
    <i name="e_0_energy">    -64.47008800 </i>
   </energy>
  </scstep>
  <structure>
   <crystal>
    <varray name="basis" >
     <v>       5.65685425       0.00000000       0.00000000 </v>
     <v>       0.00000000       4.00000000       0.00000000 </v>
     <v>      -2.82842712       0.00000000       8.48528137 </v>
    </varray>
    <i name="volume">    192.00000000 </i>
    <varray name="rec_basis" >
     <v>       0.17677670       0.00000000       0.05892557 </v>
     <v>       0.00000000       0.25000000       0.00000000 </v>
     <v>       0.00000000       0.00000000       0.11785113 </v>
    </varray>
   </crystal>
   <varray name="positions" >
    <v>       0.00000000       0.00000000       0.00000000 </v>
    <v>       0.66666667       0.00000000       0.33333333 </v>
    <v>       0.33333333       0.00000000       0.66666667 </v>
    <v>       0.50000000       0.50000000       0.00000000 </v>
    <v>       0.16666667       0.50000000       0.33333333 </v>
    <v>       0.83333333       0.50000000       0.66666667 </v>
    <v>       0.33333333       0.50000000       0.16666667 </v>
    <v>       0.00000000       0.50000000       0.50000000 </v>
    <v>       0.16666667       0.00000000       0.33333333 </v>
    <v>       0.83333333       0.00000000       0.66666667 </v>
    <v>       0.83333333       0.50000000       0.16666667 </v>
    <v>       0.50000000       0.50000000       0.50000000 </v>
    <v>       0.16666667       0.50000000       0.83333333 </v>
   </varray>
  </structure>
  <varray name="forces" >
   <v>       0.91324495       0.00000000       0.96444772 </v>
   <v>      -0.00429404       0.00000000       0.86296125 </v>
   <v>      -0.85875478       0.00000000      -1.87102103 </v>
   <v>      -0.68370341       0.00000000       0.90796815 </v>
   <v>       0.10691812       0.00000000       0.32975339 </v>
   <v>       0.35604578       0.00000000      -1.02060474 </v>
   <v>       0.15179163       0.00000000      -0.54292028 </v>
   <v>       0.69810966       0.00000000      -0.38041604 </v>
   <v>      -0.02751901       0.00000000       0.00255266 </v>
   <v>      -0.74189833       0.00000000       0.88293260 </v>
   <v>      -1.04100215       0.00000000      -2.02111289 </v>
   <v>       0.10387706       0.00000000       0.81891073 </v>
   <v>       1.02718453       0.00000000       1.06654848 </v>
  </varray>
  <varray name="stress" >
   <v>     -91.19048011       0.00000000      -5.23991490 </v>
   <v>       0.00000000    -100.51125614       0.00000000 </v>
   <v>      -5.23991497       0.00000000     -94.56578732 </v>
  </varray>
  <energy>
   <i name="e_fr_energy">    -64.47498671 </i>
   <i name="e_wo_entrp">    -64.47008800 </i>
   <i name="e_0_energy">     -0.00979743 </i>
  </energy>
  <time name="totalsc">  121.85  122.88</time>
  <eigenvalues>
   <array>
    <dimension dim="1">band</dimension>
    <dimension dim="2">kpoint</dimension>
    <dimension dim="3">spin</dimension>
    <field>eigene</field>
    <field>occ</field>
    <set>
     <set comment="spin 1">
      <set comment="kpoint 1">
       <r>  -31.4214    1.0000 </r>
       <r>  -31.0485    1.0000 </r>
       <r>  -30.3309    1.0000 </r>
       <r>  -14.8282    1.0000 </r>
       <r>  -14.7273    1.0000 </r>
       <r>  -14.4358    1.0000 </r>
       <r>  -14.1910    1.0000 </r>
       <r>  -13.9548    1.0000 </r>
       <r>  -13.7203    1.0000 </r>
       <r>  -13.6042    1.0000 </r>
       <r>  -13.2938    1.0000 </r>
       <r>  -13.2726    1.0000 </r>
       <r>  -13.0597    1.0000 </r>
       <r>  -12.9569    1.0000 </r>
       <r>  -12.9373    1.0000 </r>
       <r>  -12.6772    1.0000 </r>
       <r>  -12.2159    1.0000 </r>
       <r>  -12.1911    1.0000 </r>
       <r>  -12.0973    1.0000 </r>
       <r>   -2.6830    1.0000 </r>
       <r>   -2.5215    1.0000 </r>
       <r>   -2.2741    1.0000 </r>
       <r>   -2.0377    1.0000 </r>
       <r>   -1.7462    1.0000 </r>
       <r>   -1.6082    1.0000 </r>
       <r>   -1.5314    1.0000 </r>
       <r>   -1.5049    1.0000 </r>
       <r>   -1.3893    1.0000 </r>
       <r>   -1.1041    1.0000 </r>
       <r>   -0.8974    1.0000 </r>
       <r>   -0.8448    1.0000 </r>
       <r>   -0.8411    1.0000 </r>
       <r>   -0.8249    1.0000 </r>
       <r>   -0.6423    1.0000 </r>
       <r>   -0.5043    1.0000 </r>
       <r>   -0.3296    1.0000 </r>
       <r>   -0.3290    1.0000 </r>
       <r>    0.1199    1.0000 </r>
       <r>    0.4119    1.0000 </r>
       <r>    0.6450    1.0000 </r>
       <r>    0.8046    1.0000 </r>
       <r>    1.0105    1.0000 </r>
       <r>    1.0758    1.0000 </r>
       <r>    1.1055    1.0000 </r>
       <r>    1.1111    1.0000 </r>
       <r>    1.3421    1.0000 </r>
       <r>    1.4875    1.0000 </r>
       <r>    1.5664    1.0000 </r>
       <r>    1.5833    1.0000 </r>
       <r>    1.6349    1.0000 </r>
       <r>    1.9586    1.0000 </r>
       <r>    1.9786    1.0000 </r>
       <r>    2.0775    1.0000 </r>
       <r>    2.4967    0.0388 </r>
       <r>    3.1397    0.0000 </r>
       <r>    3.9559    0.0000 </r>
       <r>    6.1175    0.0000 </r>
       <r>    7.5138    0.0000 </r>
       <r>    8.1693    0.0000 </r>
       <r>    8.4185    0.0000 </r>
       <r>    8.4659    0.0000 </r>
       <r>    8.6090    0.0000 </r>
       <r>    9.2046    0.0000 </r>
       <r>    9.6451    0.0000 </r>
       <r>    9.7848    0.0000 </r>
       <r>    9.8276    0.0000 </r>
       <r>    9.8724    0.0000 </r>
       <r>   10.0899    0.0000 </r>
       <r>   10.1815    0.0000 </r>
       <r>   10.6263    0.0000 </r>
       <r>   10.9261    0.0000 </r>
       <r>   11.0401    0.0000 </r>
      </set>
      <set comment="kpoint 2">
       <r>  -31.4212    1.0000 </r>
       <r>  -31.0484    1.0000 </r>
       <r>  -30.3307    1.0000 </r>
       <r>  -14.8964    1.0000 </r>
       <r>  -14.8037    1.0000 </r>
       <r>  -14.3944    1.0000 </r>
       <r>  -14.2101    1.0000 </r>
       <r>  -13.9035    1.0000 </r>
       <r>  -13.7304    1.0000 </r>
       <r>  -13.5906    1.0000 </r>
       <r>  -13.2934    1.0000 </r>
       <r>  -13.2906    1.0000 </r>
       <r>  -13.0225    1.0000 </r>
       <r>  -12.9569    1.0000 </r>
       <r>  -12.9221    1.0000 </r>
       <r>  -12.6574    1.0000 </r>
       <r>  -12.2161    1.0000 </r>
       <r>  -12.1739    1.0000 </r>
       <r>  -12.0489    1.0000 </r>
       <r>   -2.8605    1.0000 </r>
       <r>   -2.4373    1.0000 </r>
       <r>   -1.9134    1.0000 </r>
       <r>   -1.7647    1.0000 </r>
       <r>   -1.6493    1.0000 </r>
       <r>   -1.5770    1.0000 </r>
       <r>   -1.5220    1.0000 </r>
       <r>   -1.5031    1.0000 </r>
       <r>   -1.4174    1.0000 </r>
       <r>   -1.2840    1.0000 </r>
       <r>   -1.1207    1.0000 </r>
       <r>   -0.9987    1.0000 </r>
       <r>   -0.9839    1.0000 </r>
       <r>   -0.7422    1.0000 </r>
       <r>   -0.5844    1.0000 </r>
       <r>   -0.4789    1.0000 </r>
       <r>   -0.4495    1.0000 </r>
       <r>   -0.2881    1.0000 </r>
       <r>    0.1646    1.0000 </r>
       <r>    0.4194    1.0000 </r>
       <r>    0.6109    1.0000 </r>
       <r>    0.7243    1.0000 </r>
       <r>    0.9239    1.0000 </r>
       <r>    0.9582    1.0000 </r>
       <r>    0.9781    1.0000 </r>
       <r>    1.2039    1.0000 </r>
       <r>    1.3324    1.0000 </r>
       <r>    1.5239    1.0000 </r>
       <r>    1.5445    1.0000 </r>
       <r>    1.6192    1.0000 </r>
       <r>    1.6988    1.0000 </r>
       <r>    1.8158    1.0000 </r>
       <r>    1.9405    1.0000 </r>
       <r>    2.0598    1.0000 </r>
       <r>    2.3344    0.9976 </r>
       <r>    2.8570    0.0000 </r>
       <r>    4.2000    0.0000 </r>
       <r>    6.3668    0.0000 </r>
       <r>    7.5371    0.0000 </r>
       <r>    7.9038    0.0000 </r>
       <r>    8.1015    0.0000 </r>
       <r>    8.4366    0.0000 </r>
       <r>    8.5514    0.0000 </r>
       <r>    9.0976    0.0000 </r>
       <r>    9.7732    0.0000 </r>
       <r>    9.9229    0.0000 </r>
       <r>    9.9397    0.0000 </r>
       <r>   10.0731    0.0000 </r>
       <r>   10.3866    0.0000 </r>
       <r>   10.5228    0.0000 </r>
       <r>   10.6126    0.0000 </r>
       <r>   10.8915    0.0000 </r>
       <r>   10.9338    0.0000 </r>
      </set>
      <set comment="kpoint 3">
       <r>  -31.4211    1.0000 </r>
       <r>  -31.0482    1.0000 </r>
       <r>  -30.3306    1.0000 </r>
       <r>  -14.9867    1.0000 </r>
       <r>  -14.8202    1.0000 </r>
       <r>  -14.4263    1.0000 </r>
       <r>  -14.0777    1.0000 </r>
       <r>  -14.0327    1.0000 </r>
       <r>  -13.6790    1.0000 </r>
       <r>  -13.5591    1.0000 </r>
       <r>  -13.3071    1.0000 </r>
       <r>  -13.2931    1.0000 </r>
       <r>  -13.0065    1.0000 </r>
       <r>  -12.9569    1.0000 </r>
       <r>  -12.9163    1.0000 </r>
       <r>  -12.6295    1.0000 </r>
       <r>  -12.2163    1.0000 </r>
       <r>  -12.1541    1.0000 </r>
       <r>  -11.9952    1.0000 </r>
       <r>   -2.5595    1.0000 </r>
       <r>   -2.4502    1.0000 </r>
       <r>   -2.3737    1.0000 </r>
       <r>   -1.7672    1.0000 </r>
       <r>   -1.6523    1.0000 </r>
       <r>   -1.4953    1.0000 </r>
       <r>   -1.4843    1.0000 </r>
       <r>   -1.4655    1.0000 </r>
       <r>   -1.3429    1.0000 </r>
       <r>   -1.0915    1.0000 </r>
       <r>   -0.9974    1.0000 </r>
       <r>   -0.8582    1.0000 </r>
       <r>   -0.8342    1.0000 </r>
       <r>   -0.8323    1.0000 </r>
       <r>   -0.6960    1.0000 </r>
       <r>   -0.4847    1.0000 </r>
       <r>   -0.4612    1.0000 </r>
       <r>   -0.3478    1.0000 </r>
       <r>   -0.0133    1.0000 </r>
       <r>    0.1496    1.0000 </r>
       <r>    0.6045    1.0000 </r>
       <r>    0.7209    1.0000 </r>
       <r>    0.8314    1.0000 </r>
       <r>    0.8709    1.0000 </r>
       <r>    1.0141    1.0000 </r>
       <r>    1.2322    1.0000 </r>
       <r>    1.4133    1.0000 </r>
       <r>    1.5327    1.0000 </r>
       <r>    1.5654    1.0000 </r>
       <r>    1.6738    1.0000 </r>
       <r>    1.6967    1.0000 </r>
       <r>    1.8037    1.0000 </r>
       <r>    1.8466    1.0000 </r>
       <r>    1.8966    1.0000 </r>
       <r>    2.2101    1.0000 </r>
       <r>    2.3943    0.8707 </r>
       <r>    4.7078    0.0000 </r>
       <r>    6.4781    0.0000 </r>
       <r>    7.3736    0.0000 </r>
       <r>    7.6933    0.0000 </r>
       <r>    7.8100    0.0000 </r>
       <r>    8.3494    0.0000 </r>
       <r>    8.9164    0.0000 </r>
       <r>    9.3890    0.0000 </r>
       <r>    9.6955    0.0000 </r>
       <r>    9.8695    0.0000 </r>
       <r>    9.9643    0.0000 </r>
       <r>   10.1259    0.0000 </r>
       <r>   10.1445    0.0000 </r>
       <r>   10.5216    0.0000 </r>
       <r>   10.7079    0.0000 </r>
       <r>   10.9972    0.0000 </r>
       <r>   11.0537    0.0000 </r>
      </set>
      <set comment="kpoint 4">
       <r>  -31.4170    1.0000 </r>
       <r>  -31.0441    1.0000 </r>
       <r>  -30.3262    1.0000 </r>
       <r>  -14.8338    1.0000 </r>
       <r>  -14.6213    1.0000 </r>
       <r>  -14.4082    1.0000 </r>
       <r>  -14.1110    1.0000 </r>
       <r>  -13.9323    1.0000 </r>
       <r>  -13.7811    1.0000 </r>
       <r>  -13.6795    1.0000 </r>
       <r>  -13.3380    1.0000 </r>
       <r>  -13.2422    1.0000 </r>
       <r>  -13.0919    1.0000 </r>
       <r>  -12.9754    1.0000 </r>
       <r>  -12.8803    1.0000 </r>
       <r>  -12.7495    1.0000 </r>
       <r>  -12.2419    1.0000 </r>
       <r>  -12.1792    1.0000 </r>
       <r>  -12.1486    1.0000 </r>
       <r>   -2.6910    1.0000 </r>
       <r>   -2.5129    1.0000 </r>
       <r>   -2.2694    1.0000 </r>
       <r>   -1.9703    1.0000 </r>
       <r>   -1.9097    1.0000 </r>
       <r>   -1.8046    1.0000 </r>
       <r>   -1.7235    1.0000 </r>
       <r>   -1.6818    1.0000 </r>
       <r>   -1.5970    1.0000 </r>
       <r>   -1.5403    1.0000 </r>
       <r>   -1.4627    1.0000 </r>
       <r>   -1.2468    1.0000 </r>
       <r>   -0.8777    1.0000 </r>
       <r>   -0.8350    1.0000 </r>
       <r>   -0.7465    1.0000 </r>
       <r>   -0.6706    1.0000 </r>
       <r>   -0.4035    1.0000 </r>
       <r>   -0.1754    1.0000 </r>
       <r>    0.3567    1.0000 </r>
       <r>    0.6111    1.0000 </r>
       <r>    0.7774    1.0000 </r>
       <r>    1.0215    1.0000 </r>
       <r>    1.1129    1.0000 </r>
       <r>    1.1821    1.0000 </r>
       <r>    1.2661    1.0000 </r>
       <r>    1.2717    1.0000 </r>
       <r>    1.3253    1.0000 </r>
       <r>    1.3829    1.0000 </r>
       <r>    1.5892    1.0000 </r>
       <r>    1.7910    1.0000 </r>
       <r>    1.9377    1.0000 </r>
       <r>    1.9842    1.0000 </r>
       <r>    2.1007    1.0000 </r>
       <r>    2.4250    0.6039 </r>
       <r>    2.6745    0.0000 </r>
       <r>    3.2813    0.0000 </r>
       <r>    4.2339    0.0000 </r>
       <r>    5.9028    0.0000 </r>
       <r>    7.5717    0.0000 </r>
       <r>    8.4341    0.0000 </r>
       <r>    8.5669    0.0000 </r>
       <r>    8.7441    0.0000 </r>
       <r>    8.9542    0.0000 </r>
       <r>    9.2527    0.0000 </r>
       <r>    9.3862    0.0000 </r>
       <r>    9.7887    0.0000 </r>
       <r>    9.9315    0.0000 </r>
       <r>   10.0178    0.0000 </r>
       <r>   10.1782    0.0000 </r>
       <r>   10.3539    0.0000 </r>
       <r>   10.4234    0.0000 </r>
       <r>   10.8942    0.0000 </r>
       <r>   11.0905    0.0000 </r>
      </set>
      <set comment="kpoint 5">
       <r>  -31.4168    1.0000 </r>
       <r>  -31.0439    1.0000 </r>
       <r>  -30.3260    1.0000 </r>
       <r>  -14.8012    1.0000 </r>
       <r>  -14.7380    1.0000 </r>
       <r>  -14.3521    1.0000 </r>
       <r>  -14.2067    1.0000 </r>
       <r>  -13.9408    1.0000 </r>
       <r>  -13.7923    1.0000 </r>
       <r>  -13.6557    1.0000 </r>
       <r>  -13.3702    1.0000 </r>
       <r>  -13.2348    1.0000 </r>
       <r>  -13.0712    1.0000 </r>
       <r>  -12.9599    1.0000 </r>
       <r>  -12.8579    1.0000 </r>
       <r>  -12.6962    1.0000 </r>
       <r>  -12.2343    1.0000 </r>
       <r>  -12.1505    1.0000 </r>
       <r>  -12.0935    1.0000 </r>
       <r>   -2.8752    1.0000 </r>
       <r>   -2.4412    1.0000 </r>
       <r>   -1.9218    1.0000 </r>
       <r>   -1.8994    1.0000 </r>
       <r>   -1.8308    1.0000 </r>
       <r>   -1.7593    1.0000 </r>
       <r>   -1.7301    1.0000 </r>
       <r>   -1.6398    1.0000 </r>
       <r>   -1.6103    1.0000 </r>
       <r>   -1.5255    1.0000 </r>
       <r>   -1.4078    1.0000 </r>
       <r>   -1.3030    1.0000 </r>
       <r>   -1.2473    1.0000 </r>
       <r>   -0.9745    1.0000 </r>
       <r>   -0.8461    1.0000 </r>
       <r>   -0.6733    1.0000 </r>
       <r>   -0.3587    1.0000 </r>
       <r>    0.0215    1.0000 </r>
       <r>    0.3556    1.0000 </r>
       <r>    0.6830    1.0000 </r>
       <r>    0.8214    1.0000 </r>
       <r>    0.8993    1.0000 </r>
       <r>    0.9933    1.0000 </r>
       <r>    1.0453    1.0000 </r>
       <r>    1.1867    1.0000 </r>
       <r>    1.2259    1.0000 </r>
       <r>    1.2972    1.0000 </r>
       <r>    1.4516    1.0000 </r>
       <r>    1.5484    1.0000 </r>
       <r>    1.7219    1.0000 </r>
       <r>    1.8138    1.0000 </r>
       <r>    2.0438    1.0000 </r>
       <r>    2.2156    1.0000 </r>
       <r>    2.3357    0.9974 </r>
       <r>    2.6847    0.0000 </r>
       <r>    2.9489    0.0000 </r>
       <r>    4.4296    0.0000 </r>
       <r>    6.1692    0.0000 </r>
       <r>    7.5808    0.0000 </r>
       <r>    8.2678    0.0000 </r>
       <r>    8.3134    0.0000 </r>
       <r>    8.5005    0.0000 </r>
       <r>    9.0468    0.0000 </r>
       <r>    9.2067    0.0000 </r>
       <r>    9.5307    0.0000 </r>
       <r>    9.8193    0.0000 </r>
       <r>   10.0258    0.0000 </r>
       <r>   10.1356    0.0000 </r>
       <r>   10.4564    0.0000 </r>
       <r>   10.5414    0.0000 </r>
       <r>   10.6865    0.0000 </r>
       <r>   10.9936    0.0000 </r>
       <r>   11.2039    0.0000 </r>
      </set>
      <set comment="kpoint 6">
       <r>  -31.4167    1.0000 </r>
       <r>  -31.0438    1.0000 </r>
       <r>  -30.3259    1.0000 </r>
       <r>  -14.8402    1.0000 </r>
       <r>  -14.7413    1.0000 </r>
       <r>  -14.4025    1.0000 </r>
       <r>  -14.1368    1.0000 </r>
       <r>  -14.0469    1.0000 </r>
       <r>  -13.7847    1.0000 </r>
       <r>  -13.6593    1.0000 </r>
       <r>  -13.3953    1.0000 </r>
       <r>  -13.2283    1.0000 </r>
       <r>  -13.0633    1.0000 </r>
       <r>  -12.9377    1.0000 </r>
       <r>  -12.8245    1.0000 </r>
       <r>  -12.6509    1.0000 </r>
       <r>  -12.2242    1.0000 </r>
       <r>  -12.1350    1.0000 </r>
       <r>  -12.0239    1.0000 </r>
       <r>   -2.5672    1.0000 </r>
       <r>   -2.4702    1.0000 </r>
       <r>   -2.3768    1.0000 </r>
       <r>   -1.9265    1.0000 </r>
       <r>   -1.8396    1.0000 </r>
       <r>   -1.7881    1.0000 </r>
       <r>   -1.7269    1.0000 </r>
       <r>   -1.6551    1.0000 </r>
       <r>   -1.6038    1.0000 </r>
       <r>   -1.5163    1.0000 </r>
       <r>   -1.4335    1.0000 </r>
       <r>   -1.2946    1.0000 </r>
       <r>   -1.0156    1.0000 </r>
       <r>   -0.8540    1.0000 </r>
       <r>   -0.6819    1.0000 </r>
       <r>   -0.5633    1.0000 </r>
       <r>   -0.3442    1.0000 </r>
       <r>   -0.0098    1.0000 </r>
       <r>    0.3157    1.0000 </r>
       <r>    0.5023    1.0000 </r>
       <r>    0.8042    1.0000 </r>
       <r>    0.8658    1.0000 </r>
       <r>    0.9529    1.0000 </r>
       <r>    1.0896    1.0000 </r>
       <r>    1.1432    1.0000 </r>
       <r>    1.2180    1.0000 </r>
       <r>    1.2759    1.0000 </r>
       <r>    1.3622    1.0000 </r>
       <r>    1.4329    1.0000 </r>
       <r>    1.5971    1.0000 </r>
       <r>    1.8410    1.0000 </r>
       <r>    1.8848    1.0000 </r>
       <r>    1.9598    1.0000 </r>
       <r>    2.2437    1.0000 </r>
       <r>    2.8264    0.0000 </r>
       <r>    2.8982    0.0000 </r>
       <r>    4.7669    0.0000 </r>
       <r>    6.4717    0.0000 </r>
       <r>    7.4092    0.0000 </r>
       <r>    7.8206    0.0000 </r>
       <r>    7.9877    0.0000 </r>
       <r>    8.2814    0.0000 </r>
       <r>    9.4350    0.0000 </r>
       <r>    9.5216    0.0000 </r>
       <r>    9.7639    0.0000 </r>
       <r>    9.8753    0.0000 </r>
       <r>   10.0146    0.0000 </r>
       <r>   10.2266    0.0000 </r>
       <r>   10.5069    0.0000 </r>
       <r>   10.6921    0.0000 </r>
       <r>   10.8981    0.0000 </r>
       <r>   10.9873    0.0000 </r>
       <r>   11.1969    0.0000 </r>
      </set>
      <set comment="kpoint 7">
       <r>  -31.4098    1.0000 </r>
       <r>  -31.0368    1.0000 </r>
       <r>  -30.3185    1.0000 </r>
       <r>  -14.9133    1.0000 </r>
       <r>  -14.3795    1.0000 </r>
       <r>  -14.2846    1.0000 </r>
       <r>  -14.0650    1.0000 </r>
       <r>  -13.9017    1.0000 </r>
       <r>  -13.8624    1.0000 </r>
       <r>  -13.6471    1.0000 </r>
       <r>  -13.5006    1.0000 </r>
       <r>  -13.1652    1.0000 </r>
       <r>  -13.1003    1.0000 </r>
       <r>  -13.0266    1.0000 </r>
       <r>  -12.9141    1.0000 </r>
       <r>  -12.8187    1.0000 </r>
       <r>  -12.3457    1.0000 </r>
       <r>  -12.3087    1.0000 </r>
       <r>  -12.0535    1.0000 </r>
       <r>   -2.9577    1.0000 </r>
       <r>   -2.7683    1.0000 </r>
       <r>   -2.4420    1.0000 </r>
       <r>   -2.3799    1.0000 </r>
       <r>   -2.2559    1.0000 </r>
       <r>   -2.0300    1.0000 </r>
       <r>   -1.9065    1.0000 </r>
       <r>   -1.8440    1.0000 </r>
       <r>   -1.7337    1.0000 </r>
       <r>   -1.6669    1.0000 </r>
       <r>   -1.5288    1.0000 </r>
       <r>   -1.4696    1.0000 </r>
       <r>   -0.8734    1.0000 </r>
       <r>   -0.8491    1.0000 </r>
       <r>   -0.7253    1.0000 </r>
       <r>   -0.7216    1.0000 </r>
       <r>   -0.2091    1.0000 </r>
       <r>   -0.1238    1.0000 </r>
       <r>    0.0694    1.0000 </r>
       <r>    0.4581    1.0000 </r>
       <r>    0.9938    1.0000 </r>
       <r>    1.0151    1.0000 </r>
       <r>    1.1263    1.0000 </r>
       <r>    1.2145    1.0000 </r>
       <r>    1.2847    1.0000 </r>
       <r>    1.3435    1.0000 </r>
       <r>    1.5524    1.0000 </r>
       <r>    1.7349    1.0000 </r>
       <r>    1.8295    1.0000 </r>
       <r>    1.9533    1.0000 </r>
       <r>    2.0036    1.0000 </r>
       <r>    2.2280    1.0000 </r>
       <r>    2.2707    1.0000 </r>
       <r>    2.5360    0.0020 </r>
       <r>    3.3141    0.0000 </r>
       <r>    3.6939    0.0000 </r>
       <r>    4.5762    0.0000 </r>
       <r>    5.2493    0.0000 </r>
       <r>    7.7473    0.0000 </r>
       <r>    8.4904    0.0000 </r>
       <r>    8.7610    0.0000 </r>
       <r>    9.1272    0.0000 </r>
       <r>    9.2633    0.0000 </r>
       <r>    9.4192    0.0000 </r>
       <r>    9.9643    0.0000 </r>
       <r>    9.9771    0.0000 </r>
       <r>   10.1706    0.0000 </r>
       <r>   10.2097    0.0000 </r>
       <r>   10.4918    0.0000 </r>
       <r>   10.6173    0.0000 </r>
       <r>   10.9081    0.0000 </r>
       <r>   11.0095    0.0000 </r>
       <r>   11.2439    0.0000 </r>
      </set>
      <set comment="kpoint 8">
       <r>  -31.4097    1.0000 </r>
       <r>  -31.0367    1.0000 </r>
       <r>  -30.3184    1.0000 </r>
       <r>  -14.8183    1.0000 </r>
       <r>  -14.4277    1.0000 </r>
       <r>  -14.2352    1.0000 </r>
       <r>  -14.1786    1.0000 </r>
       <r>  -14.0441    1.0000 </r>
       <r>  -13.9039    1.0000 </r>
       <r>  -13.7073    1.0000 </r>
       <r>  -13.5304    1.0000 </r>
       <r>  -13.1806    1.0000 </r>
       <r>  -13.0724    1.0000 </r>
       <r>  -12.9882    1.0000 </r>
       <r>  -12.8172    1.0000 </r>
       <r>  -12.7443    1.0000 </r>
       <r>  -12.3401    1.0000 </r>
       <r>  -12.1817    1.0000 </r>
       <r>  -12.0482    1.0000 </r>
       <r>   -3.0520    1.0000 </r>
       <r>   -2.7604    1.0000 </r>
       <r>   -2.5403    1.0000 </r>
       <r>   -2.3613    1.0000 </r>
       <r>   -2.0730    1.0000 </r>
       <r>   -2.0437    1.0000 </r>
       <r>   -1.7957    1.0000 </r>
       <r>   -1.7711    1.0000 </r>
       <r>   -1.6769    1.0000 </r>
       <r>   -1.5867    1.0000 </r>
       <r>   -1.5491    1.0000 </r>
       <r>   -1.4154    1.0000 </r>
       <r>   -1.2939    1.0000 </r>
       <r>   -0.9749    1.0000 </r>
       <r>   -0.9552    1.0000 </r>
       <r>   -0.7357    1.0000 </r>
       <r>   -0.1402    1.0000 </r>
       <r>    0.2187    1.0000 </r>
       <r>    0.3067    1.0000 </r>
       <r>    0.6054    1.0000 </r>
       <r>    0.9090    1.0000 </r>
       <r>    1.0393    1.0000 </r>
       <r>    1.0606    1.0000 </r>
       <r>    1.1209    1.0000 </r>
       <r>    1.1614    1.0000 </r>
       <r>    1.2875    1.0000 </r>
       <r>    1.5229    1.0000 </r>
       <r>    1.6088    1.0000 </r>
       <r>    1.7372    1.0000 </r>
       <r>    1.8885    1.0000 </r>
       <r>    2.0219    1.0000 </r>
       <r>    2.1548    1.0000 </r>
       <r>    2.2750    1.0000 </r>
       <r>    2.4578    0.2532 </r>
       <r>    3.1340    0.0000 </r>
       <r>    3.6802    0.0000 </r>
       <r>    4.7938    0.0000 </r>
       <r>    5.4711    0.0000 </r>
       <r>    7.7291    0.0000 </r>
       <r>    8.3422    0.0000 </r>
       <r>    8.7430    0.0000 </r>
       <r>    9.0930    0.0000 </r>
       <r>    9.2653    0.0000 </r>
       <r>    9.7097    0.0000 </r>
       <r>    9.8360    0.0000 </r>
       <r>   10.0185    0.0000 </r>
       <r>   10.2297    0.0000 </r>
       <r>   10.5374    0.0000 </r>
       <r>   10.6179    0.0000 </r>
       <r>   10.8365    0.0000 </r>
       <r>   11.1044    0.0000 </r>
       <r>   11.2322    0.0000 </r>
       <r>   11.4242    0.0000 </r>
      </set>
      <set comment="kpoint 9">
       <r>  -31.4096    1.0000 </r>
       <r>  -31.0365    1.0000 </r>
       <r>  -30.3183    1.0000 </r>
       <r>  -14.6707    1.0000 </r>
       <r>  -14.4660    1.0000 </r>
       <r>  -14.3504    1.0000 </r>
       <r>  -14.1725    1.0000 </r>
       <r>  -14.1146    1.0000 </r>
       <r>  -14.0002    1.0000 </r>
       <r>  -13.7802    1.0000 </r>
       <r>  -13.5508    1.0000 </r>
       <r>  -13.1949    1.0000 </r>
       <r>  -13.0441    1.0000 </r>
       <r>  -12.9634    1.0000 </r>
       <r>  -12.7300    1.0000 </r>
       <r>  -12.6701    1.0000 </r>
       <r>  -12.3311    1.0000 </r>
       <r>  -12.0644    1.0000 </r>
       <r>  -12.0446    1.0000 </r>
       <r>   -2.8885    1.0000 </r>
       <r>   -2.7566    1.0000 </r>
       <r>   -2.4825    1.0000 </r>
       <r>   -2.3691    1.0000 </r>
       <r>   -2.3114    1.0000 </r>
       <r>   -2.1346    1.0000 </r>
       <r>   -2.0946    1.0000 </r>
       <r>   -1.8665    1.0000 </r>
       <r>   -1.6847    1.0000 </r>
       <r>   -1.6690    1.0000 </r>
       <r>   -1.5691    1.0000 </r>
       <r>   -1.4041    1.0000 </r>
       <r>   -1.0526    1.0000 </r>
       <r>   -0.9418    1.0000 </r>
       <r>   -0.7497    1.0000 </r>
       <r>   -0.3447    1.0000 </r>
       <r>   -0.1283    1.0000 </r>
       <r>    0.3969    1.0000 </r>
       <r>    0.4750    1.0000 </r>
       <r>    0.5155    1.0000 </r>
       <r>    0.8854    1.0000 </r>
       <r>    0.9772    1.0000 </r>
       <r>    1.0156    1.0000 </r>
       <r>    1.1614    1.0000 </r>
       <r>    1.1803    1.0000 </r>
       <r>    1.2313    1.0000 </r>
       <r>    1.2977    1.0000 </r>
       <r>    1.4923    1.0000 </r>
       <r>    1.4973    1.0000 </r>
       <r>    1.6800    1.0000 </r>
       <r>    1.8230    1.0000 </r>
       <r>    2.0800    1.0000 </r>
       <r>    2.1246    1.0000 </r>
       <r>    2.2715    1.0000 </r>
       <r>    3.5636    0.0000 </r>
       <r>    3.7463    0.0000 </r>
       <r>    4.9634    0.0000 </r>
       <r>    5.7628    0.0000 </r>
       <r>    7.5623    0.0000 </r>
       <r>    8.0306    0.0000 </r>
       <r>    8.5520    0.0000 </r>
       <r>    8.7617    0.0000 </r>
       <r>    9.4185    0.0000 </r>
       <r>   10.0203    0.0000 </r>
       <r>   10.1422    0.0000 </r>
       <r>   10.2673    0.0000 </r>
       <r>   10.3878    0.0000 </r>
       <r>   10.7948    0.0000 </r>
       <r>   10.8622    0.0000 </r>
       <r>   10.9201    0.0000 </r>
       <r>   10.9949    0.0000 </r>
       <r>   11.2242    0.0000 </r>
       <r>   11.4036    0.0000 </r>
      </set>
      <set comment="kpoint 10">
       <r>  -31.4213    1.0000 </r>
       <r>  -31.0485    1.0000 </r>
       <r>  -30.3309    1.0000 </r>
       <r>  -14.8936    1.0000 </r>
       <r>  -14.6516    1.0000 </r>
       <r>  -14.3975    1.0000 </r>
       <r>  -14.1550    1.0000 </r>
       <r>  -13.9312    1.0000 </r>
       <r>  -13.8694    1.0000 </r>
       <r>  -13.6464    1.0000 </r>
       <r>  -13.2937    1.0000 </r>
       <r>  -13.2655    1.0000 </r>
       <r>  -12.9655    1.0000 </r>
       <r>  -12.9570    1.0000 </r>
       <r>  -12.9321    1.0000 </r>
       <r>  -12.6974    1.0000 </r>
       <r>  -12.2158    1.0000 </r>
       <r>  -12.1913    1.0000 </r>
       <r>  -12.0984    1.0000 </r>
       <r>   -2.9622    1.0000 </r>
       <r>   -2.3837    1.0000 </r>
       <r>   -2.1960    1.0000 </r>
       <r>   -1.7810    1.0000 </r>
       <r>   -1.6336    1.0000 </r>
       <r>   -1.5721    1.0000 </r>
       <r>   -1.5654    1.0000 </r>
       <r>   -1.5300    1.0000 </r>
       <r>   -1.2626    1.0000 </r>
       <r>   -1.2249    1.0000 </r>
       <r>   -1.1122    1.0000 </r>
       <r>   -1.0304    1.0000 </r>
       <r>   -0.9911    1.0000 </r>
       <r>   -0.7252    1.0000 </r>
       <r>   -0.5776    1.0000 </r>
       <r>   -0.5164    1.0000 </r>
       <r>   -0.4201    1.0000 </r>
       <r>   -0.1940    1.0000 </r>
       <r>    0.1939    1.0000 </r>
       <r>    0.5062    1.0000 </r>
       <r>    0.6930    1.0000 </r>
       <r>    0.8434    1.0000 </r>
       <r>    0.9501    1.0000 </r>
       <r>    1.0676    1.0000 </r>
       <r>    1.1698    1.0000 </r>
       <r>    1.2662    1.0000 </r>
       <r>    1.2882    1.0000 </r>
       <r>    1.4078    1.0000 </r>
       <r>    1.4797    1.0000 </r>
       <r>    1.4906    1.0000 </r>
       <r>    1.6268    1.0000 </r>
       <r>    1.6381    1.0000 </r>
       <r>    1.9803    1.0000 </r>
       <r>    2.2356    1.0000 </r>
       <r>    2.3606    0.9814 </r>
       <r>    3.3695    0.0000 </r>
       <r>    4.1105    0.0000 </r>
       <r>    6.0678    0.0000 </r>
       <r>    7.7880    0.0000 </r>
       <r>    7.9563    0.0000 </r>
       <r>    8.0574    0.0000 </r>
       <r>    8.3334    0.0000 </r>
       <r>    8.5340    0.0000 </r>
       <r>    8.8605    0.0000 </r>
       <r>    9.7187    0.0000 </r>
       <r>    9.9191    0.0000 </r>
       <r>    9.9386    0.0000 </r>
       <r>   10.0425    0.0000 </r>
       <r>   10.3445    0.0000 </r>
       <r>   10.3717    0.0000 </r>
       <r>   10.7049    0.0000 </r>
       <r>   11.0038    0.0000 </r>
       <r>   11.1290    0.0000 </r>
      </set>
      <set comment="kpoint 11">
       <r>  -31.4212    1.0000 </r>
       <r>  -31.0484    1.0000 </r>
       <r>  -30.3308    1.0000 </r>
       <r>  -14.9312    1.0000 </r>
       <r>  -14.7413    1.0000 </r>
       <r>  -14.4470    1.0000 </r>
       <r>  -14.1116    1.0000 </r>
       <r>  -14.0046    1.0000 </r>
       <r>  -13.7019    1.0000 </r>
       <r>  -13.6115    1.0000 </r>
       <r>  -13.2934    1.0000 </r>
       <r>  -13.2909    1.0000 </r>
       <r>  -12.9987    1.0000 </r>
       <r>  -12.9569    1.0000 </r>
       <r>  -12.9250    1.0000 </r>
       <r>  -12.6563    1.0000 </r>
       <r>  -12.2161    1.0000 </r>
       <r>  -12.1735    1.0000 </r>
       <r>  -12.0501    1.0000 </r>
       <r>   -2.6684    1.0000 </r>
       <r>   -2.4550    1.0000 </r>
       <r>   -2.3095    1.0000 </r>
       <r>   -2.0152    1.0000 </r>
       <r>   -1.7208    1.0000 </r>
       <r>   -1.5137    1.0000 </r>
       <r>   -1.4989    1.0000 </r>
       <r>   -1.3527    1.0000 </r>
       <r>   -1.3197    1.0000 </r>
       <r>   -1.0833    1.0000 </r>
       <r>   -1.0365    1.0000 </r>
       <r>   -0.8785    1.0000 </r>
       <r>   -0.8173    1.0000 </r>
       <r>   -0.7958    1.0000 </r>
       <r>   -0.6391    1.0000 </r>
       <r>   -0.5184    1.0000 </r>
       <r>   -0.4219    1.0000 </r>
       <r>   -0.3717    1.0000 </r>
       <r>    0.0994    1.0000 </r>
       <r>    0.3893    1.0000 </r>
       <r>    0.5679    1.0000 </r>
       <r>    0.7546    1.0000 </r>
       <r>    0.8541    1.0000 </r>
       <r>    0.9687    1.0000 </r>
       <r>    1.0424    1.0000 </r>
       <r>    1.2441    1.0000 </r>
       <r>    1.3649    1.0000 </r>
       <r>    1.4965    1.0000 </r>
       <r>    1.5105    1.0000 </r>
       <r>    1.6333    1.0000 </r>
       <r>    1.6363    1.0000 </r>
       <r>    1.7106    1.0000 </r>
       <r>    1.9496    1.0000 </r>
       <r>    2.0262    1.0000 </r>
       <r>    2.1661    1.0000 </r>
       <r>    3.1394    0.0000 </r>
       <r>    4.2493    0.0000 </r>
       <r>    6.2645    0.0000 </r>
       <r>    7.6690    0.0000 </r>
       <r>    7.8540    0.0000 </r>
       <r>    8.0913    0.0000 </r>
       <r>    8.4658    0.0000 </r>
       <r>    8.7479    0.0000 </r>
       <r>    9.0729    0.0000 </r>
       <r>    9.6143    0.0000 </r>
       <r>    9.7534    0.0000 </r>
       <r>    9.9119    0.0000 </r>
       <r>   10.0479    0.0000 </r>
       <r>   10.1806    0.0000 </r>
       <r>   10.4027    0.0000 </r>
       <r>   10.6196    0.0000 </r>
       <r>   11.0133    0.0000 </r>
       <r>   11.1207    0.0000 </r>
      </set>
      <set comment="kpoint 12">
       <r>  -31.4211    1.0000 </r>
       <r>  -31.0482    1.0000 </r>
       <r>  -30.3306    1.0000 </r>
       <r>  -14.9432    1.0000 </r>
       <r>  -14.8612    1.0000 </r>
       <r>  -14.4777    1.0000 </r>
       <r>  -14.0427    1.0000 </r>
       <r>  -13.9843    1.0000 </r>
       <r>  -13.6920    1.0000 </r>
       <r>  -13.5680    1.0000 </r>
       <r>  -13.3285    1.0000 </r>
       <r>  -13.2931    1.0000 </r>
       <r>  -13.0182    1.0000 </r>
       <r>  -12.9569    1.0000 </r>
       <r>  -12.8969    1.0000 </r>
       <r>  -12.6238    1.0000 </r>
       <r>  -12.2163    1.0000 </r>
       <r>  -12.1551    1.0000 </r>
       <r>  -11.9993    1.0000 </r>
       <r>   -2.7929    1.0000 </r>
       <r>   -2.4714    1.0000 </r>
       <r>   -1.7732    1.0000 </r>
       <r>   -1.7038    1.0000 </r>
       <r>   -1.5766    1.0000 </r>
       <r>   -1.5463    1.0000 </r>
       <r>   -1.4880    1.0000 </r>
       <r>   -1.4715    1.0000 </r>
       <r>   -1.3798    1.0000 </r>
       <r>   -1.2998    1.0000 </r>
       <r>   -1.1085    1.0000 </r>
       <r>   -1.0948    1.0000 </r>
       <r>   -1.0166    1.0000 </r>
       <r>   -0.7719    1.0000 </r>
       <r>   -0.6010    1.0000 </r>
       <r>   -0.4961    1.0000 </r>
       <r>   -0.4659    1.0000 </r>
       <r>   -0.4299    1.0000 </r>
       <r>    0.2391    1.0000 </r>
       <r>    0.3729    1.0000 </r>
       <r>    0.5202    1.0000 </r>
       <r>    0.6462    1.0000 </r>
       <r>    0.8142    1.0000 </r>
       <r>    0.8693    1.0000 </r>
       <r>    1.0685    1.0000 </r>
       <r>    1.1171    1.0000 </r>
       <r>    1.2632    1.0000 </r>
       <r>    1.5163    1.0000 </r>
       <r>    1.6449    1.0000 </r>
       <r>    1.7283    1.0000 </r>
       <r>    1.7295    1.0000 </r>
       <r>    1.8282    1.0000 </r>
       <r>    1.8429    1.0000 </r>
       <r>    1.8684    1.0000 </r>
       <r>    2.0733    1.0000 </r>
       <r>    2.7406    0.0000 </r>
       <r>    4.5876    0.0000 </r>
       <r>    6.2259    0.0000 </r>
       <r>    7.4377    0.0000 </r>
       <r>    7.8009    0.0000 </r>
       <r>    7.9252    0.0000 </r>
       <r>    8.3524    0.0000 </r>
       <r>    8.9496    0.0000 </r>
       <r>    9.4424    0.0000 </r>
       <r>    9.5955    0.0000 </r>
       <r>    9.9553    0.0000 </r>
       <r>    9.9825    0.0000 </r>
       <r>   10.1489    0.0000 </r>
       <r>   10.1842    0.0000 </r>
       <r>   10.4446    0.0000 </r>
       <r>   10.8415    0.0000 </r>
       <r>   11.0685    0.0000 </r>
       <r>   11.1027    0.0000 </r>
      </set>
      <set comment="kpoint 13">
       <r>  -31.4169    1.0000 </r>
       <r>  -31.0441    1.0000 </r>
       <r>  -30.3262    1.0000 </r>
       <r>  -14.8356    1.0000 </r>
       <r>  -14.6620    1.0000 </r>
       <r>  -14.2871    1.0000 </r>
       <r>  -14.0776    1.0000 </r>
       <r>  -13.9593    1.0000 </r>
       <r>  -13.8370    1.0000 </r>
       <r>  -13.7909    1.0000 </r>
       <r>  -13.3580    1.0000 </r>
       <r>  -13.2058    1.0000 </r>
       <r>  -13.0049    1.0000 </r>
       <r>  -12.9707    1.0000 </r>
       <r>  -12.8838    1.0000 </r>
       <r>  -12.7626    1.0000 </r>
       <r>  -12.2458    1.0000 </r>
       <r>  -12.1793    1.0000 </r>
       <r>  -12.1513    1.0000 </r>
       <r>   -2.9698    1.0000 </r>
       <r>   -2.3839    1.0000 </r>
       <r>   -2.0821    1.0000 </r>
       <r>   -1.9067    1.0000 </r>
       <r>   -1.8308    1.0000 </r>
       <r>   -1.7516    1.0000 </r>
       <r>   -1.7143    1.0000 </r>
       <r>   -1.6376    1.0000 </r>
       <r>   -1.6125    1.0000 </r>
       <r>   -1.5448    1.0000 </r>
       <r>   -1.3361    1.0000 </r>
       <r>   -1.2575    1.0000 </r>
       <r>   -1.2120    1.0000 </r>
       <r>   -0.9962    1.0000 </r>
       <r>   -0.8589    1.0000 </r>
       <r>   -0.6745    1.0000 </r>
       <r>   -0.3868    1.0000 </r>
       <r>    0.1353    1.0000 </r>
       <r>    0.3228    1.0000 </r>
       <r>    0.6682    1.0000 </r>
       <r>    0.8589    1.0000 </r>
       <r>    0.9424    1.0000 </r>
       <r>    1.0730    1.0000 </r>
       <r>    1.1213    1.0000 </r>
       <r>    1.1933    1.0000 </r>
       <r>    1.2510    1.0000 </r>
       <r>    1.2713    1.0000 </r>
       <r>    1.3910    1.0000 </r>
       <r>    1.6303    1.0000 </r>
       <r>    1.6817    1.0000 </r>
       <r>    1.8615    1.0000 </r>
       <r>    2.1350    1.0000 </r>
       <r>    2.2980    0.9999 </r>
       <r>    2.3785    0.9428 </r>
       <r>    2.5126    0.0134 </r>
       <r>    3.4450    0.0000 </r>
       <r>    4.2581    0.0000 </r>
       <r>    5.8561    0.0000 </r>
       <r>    7.6583    0.0000 </r>
       <r>    8.3138    0.0000 </r>
       <r>    8.4482    0.0000 </r>
       <r>    8.6951    0.0000 </r>
       <r>    8.9012    0.0000 </r>
       <r>    9.0174    0.0000 </r>
       <r>    9.3149    0.0000 </r>
       <r>    9.6890    0.0000 </r>
       <r>   10.1317    0.0000 </r>
       <r>   10.2028    0.0000 </r>
       <r>   10.3799    0.0000 </r>
       <r>   10.5143    0.0000 </r>
       <r>   10.6436    0.0000 </r>
       <r>   10.7087    0.0000 </r>
       <r>   10.9255    0.0000 </r>
      </set>
      <set comment="kpoint 14">
       <r>  -31.4168    1.0000 </r>
       <r>  -31.0439    1.0000 </r>
       <r>  -30.3260    1.0000 </r>
       <r>  -14.8460    1.0000 </r>
       <r>  -14.6719    1.0000 </r>
       <r>  -14.3766    1.0000 </r>
       <r>  -14.1041    1.0000 </r>
       <r>  -14.0522    1.0000 </r>
       <r>  -13.7876    1.0000 </r>
       <r>  -13.6954    1.0000 </r>
       <r>  -13.3853    1.0000 </r>
       <r>  -13.1807    1.0000 </r>
       <r>  -13.0287    1.0000 </r>
       <r>  -12.9701    1.0000 </r>
       <r>  -12.8695    1.0000 </r>
       <r>  -12.7044    1.0000 </r>
       <r>  -12.2369    1.0000 </r>
       <r>  -12.1526    1.0000 </r>
       <r>  -12.0924    1.0000 </r>
       <r>   -2.6654    1.0000 </r>
       <r>   -2.4743    1.0000 </r>
       <r>   -2.3057    1.0000 </r>
       <r>   -1.9486    1.0000 </r>
       <r>   -1.9023    1.0000 </r>
       <r>   -1.7851    1.0000 </r>
       <r>   -1.7464    1.0000 </r>
       <r>   -1.7014    1.0000 </r>
       <r>   -1.6024    1.0000 </r>
       <r>   -1.4917    1.0000 </r>
       <r>   -1.3357    1.0000 </r>
       <r>   -1.2748    1.0000 </r>
       <r>   -1.0204    1.0000 </r>
       <r>   -0.8448    1.0000 </r>
       <r>   -0.6774    1.0000 </r>
       <r>   -0.6228    1.0000 </r>
       <r>   -0.3871    1.0000 </r>
       <r>   -0.1332    1.0000 </r>
       <r>    0.3446    1.0000 </r>
       <r>    0.6566    1.0000 </r>
       <r>    0.8047    1.0000 </r>
       <r>    0.8615    1.0000 </r>
       <r>    0.9981    1.0000 </r>
       <r>    1.0950    1.0000 </r>
       <r>    1.1544    1.0000 </r>
       <r>    1.2626    1.0000 </r>
       <r>    1.3710    1.0000 </r>
       <r>    1.4733    1.0000 </r>
       <r>    1.5038    1.0000 </r>
       <r>    1.6492    1.0000 </r>
       <r>    1.7849    1.0000 </r>
       <r>    1.8516    1.0000 </r>
       <r>    2.0818    1.0000 </r>
       <r>    2.3310    0.9983 </r>
       <r>    2.7471    0.0000 </r>
       <r>    3.2737    0.0000 </r>
       <r>    4.4188    0.0000 </r>
       <r>    6.1040    0.0000 </r>
       <r>    7.4806    0.0000 </r>
       <r>    8.1895    0.0000 </r>
       <r>    8.3614    0.0000 </r>
       <r>    8.6184    0.0000 </r>
       <r>    9.0693    0.0000 </r>
       <r>    9.2868    0.0000 </r>
       <r>    9.7274    0.0000 </r>
       <r>    9.8161    0.0000 </r>
       <r>    9.8839    0.0000 </r>
       <r>   10.1780    0.0000 </r>
       <r>   10.4359    0.0000 </r>
       <r>   10.4733    0.0000 </r>
       <r>   10.5826    0.0000 </r>
       <r>   10.8888    0.0000 </r>
       <r>   11.1162    0.0000 </r>
      </set>
      <set comment="kpoint 15">
       <r>  -31.4167    1.0000 </r>
       <r>  -31.0438    1.0000 </r>
       <r>  -30.3259    1.0000 </r>
       <r>  -14.8247    1.0000 </r>
       <r>  -14.7563    1.0000 </r>
       <r>  -14.4058    1.0000 </r>
       <r>  -14.1616    1.0000 </r>
       <r>  -14.0038    1.0000 </r>
       <r>  -13.7467    1.0000 </r>
       <r>  -13.7332    1.0000 </r>
       <r>  -13.4227    1.0000 </r>
       <r>  -13.1630    1.0000 </r>
       <r>  -13.0332    1.0000 </r>
       <r>  -12.9639    1.0000 </r>
       <r>  -12.8336    1.0000 </r>
       <r>  -12.6628    1.0000 </r>
       <r>  -12.2254    1.0000 </r>
       <r>  -12.1348    1.0000 </r>
       <r>  -12.0241    1.0000 </r>
       <r>   -2.8136    1.0000 </r>
       <r>   -2.4869    1.0000 </r>
       <r>   -1.9213    1.0000 </r>
       <r>   -1.8464    1.0000 </r>
       <r>   -1.8075    1.0000 </r>
       <r>   -1.7722    1.0000 </r>
       <r>   -1.7042    1.0000 </r>
       <r>   -1.6001    1.0000 </r>
       <r>   -1.5794    1.0000 </r>
       <r>   -1.4706    1.0000 </r>
       <r>   -1.3936    1.0000 </r>
       <r>   -1.3028    1.0000 </r>
       <r>   -1.2861    1.0000 </r>
       <r>   -1.0707    1.0000 </r>
       <r>   -0.8401    1.0000 </r>
       <r>   -0.6757    1.0000 </r>
       <r>   -0.3295    1.0000 </r>
       <r>   -0.1727    1.0000 </r>
       <r>    0.5952    1.0000 </r>
       <r>    0.7219    1.0000 </r>
       <r>    0.7508    1.0000 </r>
       <r>    0.7930    1.0000 </r>
       <r>    0.8958    1.0000 </r>
       <r>    1.0631    1.0000 </r>
       <r>    1.1155    1.0000 </r>
       <r>    1.1993    1.0000 </r>
       <r>    1.3019    1.0000 </r>
       <r>    1.3983    1.0000 </r>
       <r>    1.5947    1.0000 </r>
       <r>    1.6652    1.0000 </r>
       <r>    1.7136    1.0000 </r>
       <r>    1.8844    1.0000 </r>
       <r>    2.1003    1.0000 </r>
       <r>    2.2734    1.0000 </r>
       <r>    2.6677    0.0000 </r>
       <r>    2.9624    0.0000 </r>
       <r>    4.7130    0.0000 </r>
       <r>    6.3323    0.0000 </r>
       <r>    7.3777    0.0000 </r>
[...]
       <r>     2.0777     5.9291    50.9617 </r>
       <r>     2.2355     6.4820    51.9843 </r>
       <r>     2.3932     4.9812    52.7700 </r>
       <r>     2.5510     2.1472    53.1088 </r>
       <r>     2.7087     2.1005    53.4401 </r>
       <r>     2.8665     1.5472    53.6842 </r>
       <r>     3.0242     1.3456    53.8965 </r>
       <r>     3.1820     1.0343    54.0596 </r>
       <r>     3.3397     1.6698    54.3230 </r>
       <r>     3.4975     1.3933    54.5428 </r>
       <r>     3.6552     0.7804    54.6659 </r>
       <r>     3.8130     2.0996    54.9971 </r>
       <r>     3.9707     0.1232    55.0166 </r>
       <r>     4.1285     0.1709    55.0435 </r>
       <r>     4.2862     1.1700    55.2281 </r>
       <r>     4.4440     1.0391    55.3920 </r>
       <r>     4.6017     0.8232    55.5219 </r>
       <r>     4.7595     1.4873    55.7565 </r>
       <r>     4.9172     0.9408    55.9049 </r>
       <r>     5.0750     0.7272    56.0196 </r>
       <r>     5.2327     0.2938    56.0660 </r>
       <r>     5.3905     0.5529    56.1532 </r>
       <r>     5.5482     0.9214    56.2985 </r>
       <r>     5.7060     0.0321    56.3036 </r>
       <r>     5.8637     0.8358    56.4355 </r>
       <r>     6.0215     0.4309    56.5034 </r>
       <r>     6.1792     1.3166    56.7111 </r>
       <r>     6.3370     0.9537    56.8616 </r>
       <r>     6.4947     0.7451    56.9791 </r>
       <r>     6.6525     0.1324    57.0000 </r>
       <r>     6.8102     0.0000    57.0000 </r>
       <r>     6.9680     0.0000    57.0000 </r>
       <r>     7.1257     0.0000    57.0000 </r>
       <r>     7.2835     0.0021    57.0003 </r>
       <r>     7.4412     1.0118    57.1599 </r>
       <r>     7.5990     2.7179    57.5887 </r>
       <r>     7.7567     2.4520    57.9755 </r>
       <r>     7.9145     1.8557    58.2682 </r>
       <r>     8.0722     1.5489    58.5126 </r>
       <r>     8.2300     2.0798    58.8407 </r>
       <r>     8.3877     3.7260    59.4284 </r>
       <r>     8.5455     3.9215    60.0470 </r>
       <r>     8.7032     2.2238    60.3978 </r>
       <r>     8.8610     2.6575    60.8171 </r>
       <r>     9.0187     1.8424    61.1077 </r>
       <r>     9.1765     3.7269    61.6956 </r>
       <r>     9.3342     3.1276    62.1890 </r>
       <r>     9.4920     2.4247    62.5715 </r>
       <r>     9.6497     2.8748    63.0250 </r>
       <r>     9.8075     5.5347    63.8981 </r>
       <r>     9.9652     5.6206    64.7848 </r>
       <r>    10.1230     6.0204    65.7345 </r>
       <r>    10.2807     5.7217    66.6371 </r>
       <r>    10.4385     4.2517    67.3078 </r>
       <r>    10.5962     5.9513    68.2466 </r>
       <r>    10.7540     4.4977    68.9561 </r>
       <r>    10.9117     5.0459    69.7521 </r>
       <r>    11.0695     5.8575    70.6761 </r>
       <r>    11.2272     4.0082    71.3084 </r>
       <r>    11.3850     2.8009    71.7503 </r>
       <r>    11.5427     1.3166    71.9580 </r>
       <r>    11.7005     0.2665    72.0000 </r>
       <r>    11.8582     0.0001    72.0000 </r>
       <r>    12.0160     0.0000    72.0000 </r>
       <r>    12.1737     0.0000    72.0000 </r>
       <r>    12.3315     0.0000    72.0000 </r>
       <r>    12.4892     0.0000    72.0000 </r>
       <r>    12.6470     0.0000    72.0000 </r>
       <r>    12.8047     0.0000    72.0000 </r>
       <r>    12.9625     0.0000    72.0000 </r>
       <r>    13.1202     0.0000    72.0000 </r>
       <r>    13.2780     0.0000    72.0000 </r>
       <r>    13.4357     0.0000    72.0000 </r>
       <r>    13.5935     0.0000    72.0000 </r>
       <r>    13.7512     0.0000    72.0000 </r>
      </set>
      <set comment="spin 2">
       <r>   -33.5738     0.0000     0.0000 </r>
       <r>   -33.4160     0.0000     0.0000 </r>
       <r>   -33.2583     0.0000     0.0000 </r>
       <r>   -33.1005     0.0000     0.0000 </r>
       <r>   -32.9428     0.0000     0.0000 </r>
       <r>   -32.7850     0.0000     0.0000 </r>
       <r>   -32.6273     0.0000     0.0000 </r>
       <r>   -32.4695     0.0000     0.0000 </r>
       <r>   -32.3118     0.0000     0.0000 </r>
       <r>   -32.1540     0.0000     0.0000 </r>
       <r>   -31.9963     0.0000     0.0000 </r>
       <r>   -31.8385     0.0000     0.0000 </r>
       <r>   -31.6808     0.0000     0.0000 </r>
       <r>   -31.5230     0.0086     0.0014 </r>
       <r>   -31.3653     5.8435     0.9232 </r>
       <r>   -31.2075     0.4871     1.0000 </r>
       <r>   -31.0498     2.7279     1.4303 </r>
       <r>   -30.8920     3.6112     2.0000 </r>
       <r>   -30.7343     0.0001     2.0000 </r>
       <r>   -30.5765     0.0000     2.0000 </r>
       <r>   -30.4188     0.0276     2.0043 </r>
       <r>   -30.2610     6.0825     2.9639 </r>
       <r>   -30.1033     0.2291     3.0000 </r>
       <r>   -29.9455     0.0000     3.0000 </r>
       <r>   -29.7878     0.0000     3.0000 </r>
       <r>   -29.6300     0.0000     3.0000 </r>
       <r>   -29.4723     0.0000     3.0000 </r>
       <r>   -29.3145     0.0000     3.0000 </r>
       <r>   -29.1568     0.0000     3.0000 </r>
       <r>   -28.9990     0.0000     3.0000 </r>
       <r>   -28.8413     0.0000     3.0000 </r>
       <r>   -28.6835     0.0000     3.0000 </r>
       <r>   -28.5258     0.0000     3.0000 </r>
       <r>   -28.3680     0.0000     3.0000 </r>
       <r>   -28.2103     0.0000     3.0000 </r>
       <r>   -28.0525     0.0000     3.0000 </r>
       <r>   -27.8948     0.0000     3.0000 </r>
       <r>   -27.7370     0.0000     3.0000 </r>
       <r>   -27.5793     0.0000     3.0000 </r>
       <r>   -27.4215     0.0000     3.0000 </r>
       <r>   -27.2638     0.0000     3.0000 </r>
       <r>   -27.1060     0.0000     3.0000 </r>
       <r>   -26.9483     0.0000     3.0000 </r>
       <r>   -26.7905     0.0000     3.0000 </r>
       <r>   -26.6328     0.0000     3.0000 </r>
       <r>   -26.4750     0.0000     3.0000 </r>
       <r>   -26.3173     0.0000     3.0000 </r>
       <r>   -26.1595     0.0000     3.0000 </r>
       <r>   -26.0018     0.0000     3.0000 </r>
       <r>   -25.8440     0.0000     3.0000 </r>
       <r>   -25.6863     0.0000     3.0000 </r>
       <r>   -25.5285     0.0000     3.0000 </r>
       <r>   -25.3708     0.0000     3.0000 </r>
       <r>   -25.2130     0.0000     3.0000 </r>
       <r>   -25.0553     0.0000     3.0000 </r>
       <r>   -24.8975     0.0000     3.0000 </r>
       <r>   -24.7398     0.0000     3.0000 </r>
       <r>   -24.5820     0.0000     3.0000 </r>
       <r>   -24.4243     0.0000     3.0000 </r>
       <r>   -24.2665     0.0000     3.0000 </r>
       <r>   -24.1088     0.0000     3.0000 </r>
       <r>   -23.9510     0.0000     3.0000 </r>
       <r>   -23.7933     0.0000     3.0000 </r>
       <r>   -23.6355     0.0000     3.0000 </r>
       <r>   -23.4778     0.0000     3.0000 </r>
       <r>   -23.3200     0.0000     3.0000 </r>
       <r>   -23.1623     0.0000     3.0000 </r>
       <r>   -23.0045     0.0000     3.0000 </r>
       <r>   -22.8468     0.0000     3.0000 </r>
       <r>   -22.6890     0.0000     3.0000 </r>
       <r>   -22.5313     0.0000     3.0000 </r>
       <r>   -22.3735     0.0000     3.0000 </r>
       <r>   -22.2158     0.0000     3.0000 </r>
       <r>   -22.0580     0.0000     3.0000 </r>
       <r>   -21.9003     0.0000     3.0000 </r>
       <r>   -21.7425     0.0000     3.0000 </r>
       <r>   -21.5848     0.0000     3.0000 </r>
       <r>   -21.4270     0.0000     3.0000 </r>
       <r>   -21.2693     0.0000     3.0000 </r>
       <r>   -21.1115     0.0000     3.0000 </r>
       <r>   -20.9538     0.0000     3.0000 </r>
       <r>   -20.7960     0.0000     3.0000 </r>
       <r>   -20.6383     0.0000     3.0000 </r>
       <r>   -20.4805     0.0000     3.0000 </r>
       <r>   -20.3228     0.0000     3.0000 </r>
       <r>   -20.1650     0.0000     3.0000 </r>
       <r>   -20.0073     0.0000     3.0000 </r>
       <r>   -19.8495     0.0000     3.0000 </r>
       <r>   -19.6918     0.0000     3.0000 </r>
       <r>   -19.5340     0.0000     3.0000 </r>
       <r>   -19.3763     0.0000     3.0000 </r>
       <r>   -19.2185     0.0000     3.0000 </r>
       <r>   -19.0608     0.0000     3.0000 </r>
       <r>   -18.9030     0.0000     3.0000 </r>
       <r>   -18.7453     0.0000     3.0000 </r>
       <r>   -18.5875     0.0000     3.0000 </r>
       <r>   -18.4298     0.0000     3.0000 </r>
       <r>   -18.2720     0.0000     3.0000 </r>
       <r>   -18.1143     0.0000     3.0000 </r>
       <r>   -17.9565     0.0000     3.0000 </r>
       <r>   -17.7988     0.0000     3.0000 </r>
       <r>   -17.6410     0.0000     3.0000 </r>
       <r>   -17.4833     0.0000     3.0000 </r>
       <r>   -17.3255     0.0000     3.0000 </r>
       <r>   -17.1678     0.0000     3.0000 </r>
       <r>   -17.0100     0.0000     3.0000 </r>
       <r>   -16.8523     0.0000     3.0000 </r>
       <r>   -16.6945     0.0000     3.0000 </r>
       <r>   -16.5368     0.0000     3.0000 </r>
       <r>   -16.3790     0.0000     3.0000 </r>
       <r>   -16.2213     0.0000     3.0000 </r>
       <r>   -16.0635     0.0000     3.0000 </r>
       <r>   -15.9058     0.0000     3.0000 </r>
       <r>   -15.7480     0.0000     3.0000 </r>
       <r>   -15.5903     0.0000     3.0000 </r>
       <r>   -15.4325     0.0000     3.0000 </r>
       <r>   -15.2748     0.0000     3.0000 </r>
       <r>   -15.1170     0.0000     3.0000 </r>
       <r>   -14.9593     0.0099     3.0016 </r>
       <r>   -14.8015     1.1167     3.1777 </r>
       <r>   -14.6438     5.8592     4.1020 </r>
       <r>   -14.4860     3.8943     4.7163 </r>
       <r>   -14.3283     2.5862     5.1243 </r>
       <r>   -14.1705     4.5067     5.8352 </r>
       <r>   -14.0128     5.5188     6.7058 </r>
       <r>   -13.8550     5.8835     7.6339 </r>
       <r>   -13.6973     5.6981     8.5328 </r>
       <r>   -13.5395     5.7740     9.4437 </r>
       <r>   -13.3818     6.4716    10.4646 </r>
       <r>   -13.2240     5.3092    11.3021 </r>
       <r>   -13.0663     6.3522    12.3041 </r>
       <r>   -12.9085    10.3669    13.9395 </r>
       <r>   -12.7508     6.7395    15.0027 </r>
       <r>   -12.5930     6.0148    15.9515 </r>
       <r>   -12.4353     0.3110    16.0006 </r>
       <r>   -12.2775     3.0436    16.4807 </r>
       <r>   -12.1198     8.5941    17.8364 </r>
       <r>   -11.9620     7.0904    18.9549 </r>
       <r>   -11.8043     0.2856    19.0000 </r>
       <r>   -11.6465     0.0000    19.0000 </r>
       <r>   -11.4888     0.0000    19.0000 </r>
       <r>   -11.3310     0.0000    19.0000 </r>
       <r>   -11.1733     0.0000    19.0000 </r>
       <r>   -11.0155     0.0000    19.0000 </r>
       <r>   -10.8578     0.0000    19.0000 </r>
       <r>   -10.7000     0.0000    19.0000 </r>
       <r>   -10.5423     0.0000    19.0000 </r>
       <r>   -10.3845     0.0000    19.0000 </r>
       <r>   -10.2268     0.0000    19.0000 </r>
       <r>   -10.0690     0.0000    19.0000 </r>
       <r>    -9.9113     0.0000    19.0000 </r>
       <r>    -9.7535     0.0000    19.0000 </r>
       <r>    -9.5958     0.0000    19.0000 </r>
       <r>    -9.4380     0.0000    19.0000 </r>
       <r>    -9.2803     0.0000    19.0000 </r>
       <r>    -9.1225     0.0000    19.0000 </r>
       <r>    -8.9648     0.0000    19.0000 </r>
       <r>    -8.8070     0.0000    19.0000 </r>
       <r>    -8.6493     0.0000    19.0000 </r>
       <r>    -8.4915     0.0000    19.0000 </r>
       <r>    -8.3338     0.0000    19.0000 </r>
       <r>    -8.1760     0.0000    19.0000 </r>
       <r>    -8.0183     0.0000    19.0000 </r>
       <r>    -7.8605     0.0000    19.0000 </r>
       <r>    -7.7028     0.0000    19.0000 </r>
       <r>    -7.5450     0.0000    19.0000 </r>
       <r>    -7.3873     0.0000    19.0000 </r>
       <r>    -7.2295     0.0000    19.0000 </r>
       <r>    -7.0718     0.0000    19.0000 </r>
       <r>    -6.9140     0.0000    19.0000 </r>
       <r>    -6.7563     0.0000    19.0000 </r>
       <r>    -6.5985     0.0000    19.0000 </r>
       <r>    -6.4408     0.0000    19.0000 </r>
       <r>    -6.2830     0.0000    19.0000 </r>
       <r>    -6.1253     0.0000    19.0000 </r>
       <r>    -5.9675     0.0000    19.0000 </r>
       <r>    -5.8098     0.0000    19.0000 </r>
       <r>    -5.6520     0.0000    19.0000 </r>
       <r>    -5.4943     0.0000    19.0000 </r>
       <r>    -5.3365     0.0000    19.0000 </r>
       <r>    -5.1788     0.0000    19.0000 </r>
       <r>    -5.0210     0.0000    19.0000 </r>
       <r>    -4.8633     0.0000    19.0000 </r>
       <r>    -4.7055     0.0000    19.0000 </r>
       <r>    -4.5478     0.0000    19.0000 </r>
       <r>    -4.3900     0.0000    19.0000 </r>
       <r>    -4.2323     0.0000    19.0000 </r>
       <r>    -4.0745     0.0000    19.0000 </r>
       <r>    -3.9168     0.0000    19.0000 </r>
       <r>    -3.7590     0.0000    19.0000 </r>
       <r>    -3.6013     0.0000    19.0000 </r>
       <r>    -3.4435     0.0000    19.0000 </r>
       <r>    -3.2858     0.0000    19.0000 </r>
       <r>    -3.1280     0.0045    19.0007 </r>
       <r>    -2.9703     0.6322    19.1004 </r>
       <r>    -2.8125     2.1265    19.4359 </r>
       <r>    -2.6548     3.6943    20.0187 </r>
       <r>    -2.4970     2.4356    20.4029 </r>
       <r>    -2.3393     5.4712    21.2660 </r>
       <r>    -2.1815     5.0556    22.0635 </r>
       <r>    -2.0238     4.4092    22.7590 </r>
       <r>    -1.8660     5.3827    23.6082 </r>
       <r>    -1.7083    10.5233    25.2682 </r>
       <r>    -1.5505     6.5654    26.3039 </r>
       <r>    -1.3928    14.1595    28.5376 </r>
       <r>    -1.2350     8.6748    29.9060 </r>
       <r>    -1.0773     6.2994    30.8997 </r>
       <r>    -0.9195     5.8682    31.8255 </r>
       <r>    -0.7618     8.1481    33.1108 </r>
       <r>    -0.6040     7.2888    34.2606 </r>
       <r>    -0.4463     3.2916    34.7799 </r>
       <r>    -0.2885     4.3737    35.4698 </r>
       <r>    -0.1308     2.3071    35.8338 </r>
       <r>     0.0270     3.4869    36.3838 </r>
       <r>     0.1847     2.1336    36.7204 </r>
       <r>     0.3425     2.8666    37.1726 </r>
       <r>     0.5002     3.6410    37.7470 </r>
       <r>     0.6580     3.9310    38.3671 </r>
       <r>     0.8157     4.7927    39.1231 </r>
       <r>     0.9735     7.1193    40.2462 </r>
       <r>     1.1312     9.3677    41.7240 </r>
       <r>     1.2890    11.3705    43.5176 </r>
       <r>     1.4467    11.7993    45.3790 </r>
       <r>     1.6045     7.5669    46.5727 </r>
       <r>     1.7622     8.7351    47.9506 </r>
       <r>     1.9200     6.8215    49.0267 </r>
       <r>     2.0777     7.1177    50.1495 </r>
       <r>     2.2355     5.3467    50.9930 </r>
       <r>     2.3932     5.8049    51.9087 </r>
       <r>     2.5510     4.2687    52.5821 </r>
       <r>     2.7087     2.9569    53.0485 </r>
       <r>     2.8665     2.9405    53.5124 </r>
       <r>     3.0242     1.3116    53.7193 </r>
       <r>     3.1820     1.1315    53.8978 </r>
       <r>     3.3397     1.0609    54.0652 </r>
       <r>     3.4975     1.7514    54.3414 </r>
       <r>     3.6552     1.3187    54.5495 </r>
       <r>     3.8130     1.5946    54.8010 </r>
       <r>     3.9707     1.2614    55.0000 </r>
       <r>     4.1285     0.1591    55.0251 </r>
       <r>     4.2862     0.3953    55.0875 </r>
       <r>     4.4440     1.0678    55.2559 </r>
       <r>     4.6017     1.2843    55.4585 </r>
       <r>     4.7595     0.9289    55.6050 </r>
       <r>     4.9172     1.8328    55.8942 </r>
       <r>     5.0750     0.5436    55.9799 </r>
       <r>     5.2327     0.4182    56.0459 </r>
       <r>     5.3905     0.3114    56.0950 </r>
       <r>     5.5482     0.8674    56.2318 </r>
       <r>     5.7060     0.4321    56.3000 </r>
       <r>     5.8637     0.5906    56.3932 </r>
       <r>     6.0215     0.6772    56.5000 </r>
       <r>     6.1792     1.0046    56.6585 </r>
       <r>     6.3370     1.0635    56.8263 </r>
       <r>     6.4947     0.7579    56.9458 </r>
       <r>     6.6525     0.3435    57.0000 </r>
       <r>     6.8102     0.0000    57.0000 </r>
       <r>     6.9680     0.0000    57.0000 </r>
       <r>     7.1257     0.0000    57.0000 </r>
       <r>     7.2835     0.0008    57.0001 </r>
       <r>     7.4412     0.7962    57.1257 </r>
       <r>     7.5990     2.5510    57.5281 </r>
       <r>     7.7567     2.5891    57.9366 </r>
       <r>     7.9145     1.9840    58.2495 </r>
       <r>     8.0722     1.4211    58.4737 </r>
       <r>     8.2300     1.8840    58.7709 </r>
       <r>     8.3877     3.7637    59.3646 </r>
       <r>     8.5455     3.9944    59.9948 </r>
       <r>     8.7032     2.4250    60.3773 </r>
       <r>     8.8610     2.6409    60.7939 </r>
       <r>     9.0187     1.7669    61.0726 </r>
       <r>     9.1765     3.8465    61.6794 </r>
       <r>     9.3342     2.9596    62.1463 </r>
       <r>     9.4920     2.5454    62.5478 </r>
       <r>     9.6497     2.7382    62.9798 </r>
       <r>     9.8075     5.1855    63.7978 </r>
       <r>     9.9652     5.7922    64.7115 </r>
       <r>    10.1230     6.0515    65.6661 </r>
       <r>    10.2807     5.7860    66.5789 </r>
       <r>    10.4385     4.0194    67.2129 </r>
       <r>    10.5962     6.0696    68.1704 </r>
       <r>    10.7540     4.6967    68.9113 </r>
       <r>    10.9117     4.6251    69.6409 </r>
       <r>    11.0695     6.0293    70.5920 </r>
       <r>    11.2272     4.0919    71.2375 </r>
       <r>    11.3850     3.0167    71.7134 </r>
       <r>    11.5427     1.5107    71.9517 </r>
       <r>    11.7005     0.3053    71.9999 </r>
       <r>    11.8582     0.0007    72.0000 </r>
       <r>    12.0160     0.0000    72.0000 </r>
       <r>    12.1737     0.0000    72.0000 </r>
       <r>    12.3315     0.0000    72.0000 </r>
       <r>    12.4892     0.0000    72.0000 </r>
       <r>    12.6470     0.0000    72.0000 </r>
       <r>    12.8047     0.0000    72.0000 </r>
       <r>    12.9625     0.0000    72.0000 </r>
       <r>    13.1202     0.0000    72.0000 </r>
       <r>    13.2780     0.0000    72.0000 </r>
       <r>    13.4357     0.0000    72.0000 </r>
       <r>    13.5935     0.0000    72.0000 </r>
       <r>    13.7512     0.0000    72.0000 </r>
      </set>
     </set>
    </array>
   </total>
  </dos>
 </calculation>
 <structure name="finalpos" >
  <crystal>
   <varray name="basis" >
    <v>       5.65685425       0.00000000       0.00000000 </v>
    <v>       0.00000000       4.00000000       0.00000000 </v>
    <v>      -2.82842712       0.00000000       8.48528137 </v>
   </varray>
   <i name="volume">    192.00000000 </i>
   <varray name="rec_basis" >
    <v>       0.17677670       0.00000000       0.05892557 </v>
    <v>       0.00000000       0.25000000       0.00000000 </v>
    <v>       0.00000000       0.00000000       0.11785113 </v>
   </varray>
  </crystal>
  <varray name="positions" >
   <v>       0.00000000       0.00000000       0.00000000 </v>
   <v>       0.66666667       0.00000000       0.33333333 </v>
   <v>       0.33333333       0.00000000       0.66666667 </v>
   <v>       0.50000000       0.50000000       0.00000000 </v>
   <v>       0.16666667       0.50000000       0.33333333 </v>
   <v>       0.83333333       0.50000000       0.66666667 </v>
   <v>       0.33333333       0.50000000       0.16666667 </v>
   <v>       0.00000000       0.50000000       0.50000000 </v>
   <v>       0.16666667       0.00000000       0.33333333 </v>
   <v>       0.83333333       0.00000000       0.66666667 </v>
   <v>       0.83333333       0.50000000       0.16666667 </v>
   <v>       0.50000000       0.50000000       0.50000000 </v>
   <v>       0.16666667       0.50000000       0.83333333 </v>
  </varray>
 </structure>
</modeling>
