<?xml version="1.0" encoding="ISO-8859-1"?>
<modeling>
 <generator>
  <i name="program" type="string">vasp </i>
  <i name="version" type="string">5.3.5  </i>
  <i name="subversion" type="string">31Mar14 (build Jun 20 2014 13:15:13) complex                          parallel </i>
  <i name="platform" type="string">LinuxIFC </i>
  <i name="date" type="string">2025 11 27 </i>
  <i name="time" type="string">09:06:53 </i>
 </generator>
 <incar>
  <i type="string" name="PREC">accurate</i>
  <i type="int" name="IALGO">    68</i>
  <i type="logical" name="ADDGRID"> T  </i>
  <i type="int" name="NELM">   200</i>
  <i type="int" name="NELMIN">     4</i>
  <i type="int" name="IBRION">     2</i>
  <i name="EDIFF">      0.00000100</i>
  <i name="EDIFFG">     -0.02000000</i>
  <i type="int" name="NSW">    30</i>
  <i type="int" name="ISIF">     3</i>
  <i name="ENCUT">    500.00000000</i>
  <i type="logical" name="LREAL"> F  </i>
  <i type="int" name="ISMEAR">     1</i>
  <i name="SIGMA">      0.30000000</i>
  <i type="logical" name="LWAVE"> F  </i>
  <i type="logical" name="LCHARG"> F  </i>
  <i type="int" name="NELM">   200</i>
 </incar>
 <kpoints>
  <generation param="Auto">
   <i name="subdivisionlength">     70.00000000 </i>
   <v type="int" name="divisions">      25       19        8 </v>
   <v name="usershift">      0.00000000       0.00000000       0.00000000 </v>
   <v name="genvec1">      0.04000000       0.00000000       0.00000000 </v>
   <v name="genvec2">      0.00000000       0.05263158       0.00000000 </v>
   <v name="genvec3">      0.00000000       0.00000000       0.12500000 </v>
   <v name="shift">      0.00000000       0.00000000       0.00000000 </v>
  </generation>
  <varray name="kpointlist" >
   <v>       0.00000000       0.00000000       0.00000000 </v>
   <v>       0.04000000       0.00000000       0.00000000 </v>
   <v>       0.08000000       0.00000000       0.00000000 </v>
   <v>       0.12000000       0.00000000       0.00000000 </v>
   <v>       0.16000000       0.00000000       0.00000000 </v>
   <v>       0.20000000       0.00000000       0.00000000 </v>
   <v>       0.24000000       0.00000000       0.00000000 </v>
   <v>       0.28000000       0.00000000       0.00000000 </v>
   <v>       0.32000000       0.00000000       0.00000000 </v>
   <v>       0.36000000       0.00000000       0.00000000 </v>
   <v>       0.40000000       0.00000000       0.00000000 </v>
   <v>       0.44000000       0.00000000       0.00000000 </v>
   <v>       0.48000000       0.00000000       0.00000000 </v>
   <v>       0.00000000       0.05263158       0.00000000 </v>
   <v>       0.04000000       0.05263158       0.00000000 </v>
   <v>       0.08000000       0.05263158       0.00000000 </v>
   <v>       0.12000000       0.05263158       0.00000000 </v>
   <v>       0.16000000       0.05263158       0.00000000 </v>
   <v>       0.20000000       0.05263158       0.00000000 </v>
   <v>       0.24000000       0.05263158       0.00000000 </v>
   <v>       0.28000000       0.05263158       0.00000000 </v>
   <v>       0.32000000       0.05263158       0.00000000 </v>
   <v>       0.36000000       0.05263158       0.00000000 </v>
   <v>       0.40000000       0.05263158       0.00000000 </v>
   <v>       0.44000000       0.05263158       0.00000000 </v>
   <v>       0.48000000       0.05263158       0.00000000 </v>
   <v>       0.00000000       0.10526316       0.00000000 </v>
   <v>       0.04000000       0.10526316       0.00000000 </v>
   <v>       0.08000000       0.10526316       0.00000000 </v>
   <v>       0.12000000       0.10526316       0.00000000 </v>
   <v>       0.16000000       0.10526316       0.00000000 </v>
   <v>       0.20000000       0.10526316       0.00000000 </v>
   <v>       0.24000000       0.10526316       0.00000000 </v>
   <v>       0.28000000       0.10526316       0.00000000 </v>
   <v>       0.32000000       0.10526316       0.00000000 </v>
   <v>       0.36000000       0.10526316       0.00000000 </v>
   <v>       0.40000000       0.10526316       0.00000000 </v>
   <v>       0.44000000       0.10526316       0.00000000 </v>
   <v>       0.48000000       0.10526316       0.00000000 </v>
   <v>       0.00000000       0.15789474       0.00000000 </v>
   <v>       0.04000000       0.15789474       0.00000000 </v>
   <v>       0.08000000       0.15789474       0.00000000 </v>
   <v>       0.12000000       0.15789474       0.00000000 </v>
   <v>       0.16000000       0.15789474       0.00000000 </v>
   <v>       0.20000000       0.15789474       0.00000000 </v>
   <v>       0.24000000       0.15789474       0.00000000 </v>
   <v>       0.28000000       0.15789474       0.00000000 </v>
   <v>       0.32000000       0.15789474       0.00000000 </v>
   <v>       0.36000000       0.15789474       0.00000000 </v>
   <v>       0.40000000       0.15789474       0.00000000 </v>
   <v>       0.44000000       0.15789474       0.00000000 </v>
   <v>       0.48000000       0.15789474       0.00000000 </v>
   <v>       0.00000000       0.21052632       0.00000000 </v>
   <v>       0.04000000       0.21052632       0.00000000 </v>
   <v>       0.08000000       0.21052632       0.00000000 </v>
   <v>       0.12000000       0.21052632       0.00000000 </v>
   <v>       0.16000000       0.21052632       0.00000000 </v>
   <v>       0.20000000       0.21052632       0.00000000 </v>
   <v>       0.24000000       0.21052632       0.00000000 </v>
   <v>       0.28000000       0.21052632       0.00000000 </v>
   <v>       0.32000000       0.21052632       0.00000000 </v>
   <v>       0.36000000       0.21052632       0.00000000 </v>
   <v>       0.40000000       0.21052632       0.00000000 </v>
   <v>       0.44000000       0.21052632       0.00000000 </v>
   <v>       0.48000000       0.21052632       0.00000000 </v>
   <v>       0.00000000       0.26315789       0.00000000 </v>
   <v>       0.04000000       0.26315789       0.00000000 </v>
   <v>       0.08000000       0.26315789       0.00000000 </v>
   <v>       0.12000000       0.26315789       0.00000000 </v>
   <v>       0.16000000       0.26315789       0.00000000 </v>
   <v>       0.20000000       0.26315789       0.00000000 </v>
   <v>       0.24000000       0.26315789       0.00000000 </v>
   <v>       0.28000000       0.26315789       0.00000000 </v>
   <v>       0.32000000       0.26315789       0.00000000 </v>
   <v>       0.36000000       0.26315789       0.00000000 </v>
   <v>       0.40000000       0.26315789       0.00000000 </v>
   <v>       0.44000000       0.26315789       0.00000000 </v>
   <v>       0.48000000       0.26315789       0.00000000 </v>
   <v>       0.00000000       0.31578947       0.00000000 </v>
   <v>       0.04000000       0.31578947       0.00000000 </v>
   <v>       0.08000000       0.31578947       0.00000000 </v>
   <v>       0.12000000       0.31578947       0.00000000 </v>
   <v>       0.16000000       0.31578947       0.00000000 </v>
   <v>       0.20000000       0.31578947       0.00000000 </v>
   <v>       0.24000000       0.31578947       0.00000000 </v>
   <v>       0.28000000       0.31578947       0.00000000 </v>
   <v>       0.32000000       0.31578947       0.00000000 </v>
   <v>       0.36000000       0.31578947       0.00000000 </v>
   <v>       0.40000000       0.31578947       0.00000000 </v>
   <v>       0.44000000       0.31578947       0.00000000 </v>
   <v>       0.48000000       0.31578947       0.00000000 </v>
   <v>       0.00000000       0.36842105       0.00000000 </v>
   <v>       0.04000000       0.36842105       0.00000000 </v>
   <v>       0.08000000       0.36842105       0.00000000 </v>
   <v>       0.12000000       0.36842105       0.00000000 </v>
   <v>       0.16000000       0.36842105       0.00000000 </v>
   <v>       0.20000000       0.36842105       0.00000000 </v>
   <v>       0.24000000       0.36842105       0.00000000 </v>
   <v>       0.28000000       0.36842105       0.00000000 </v>
   <v>       0.32000000       0.36842105       0.00000000 </v>
   <v>       0.36000000       0.36842105       0.00000000 </v>
   <v>       0.40000000       0.36842105       0.00000000 </v>
   <v>       0.44000000       0.36842105       0.00000000 </v>
   <v>       0.48000000       0.36842105       0.00000000 </v>
   <v>       0.00000000       0.42105263       0.00000000 </v>
   <v>       0.04000000       0.42105263       0.00000000 </v>
   <v>       0.08000000       0.42105263       0.00000000 </v>
   <v>       0.12000000       0.42105263       0.00000000 </v>
   <v>       0.16000000       0.42105263       0.00000000 </v>
   <v>       0.20000000       0.42105263       0.00000000 </v>
   <v>       0.24000000       0.42105263       0.00000000 </v>
   <v>       0.28000000       0.42105263       0.00000000 </v>
   <v>       0.32000000       0.42105263       0.00000000 </v>
   <v>       0.36000000       0.42105263       0.00000000 </v>
   <v>       0.40000000       0.42105263       0.00000000 </v>
   <v>       0.44000000       0.42105263       0.00000000 </v>
   <v>       0.48000000       0.42105263       0.00000000 </v>
   <v>       0.00000000       0.47368421       0.00000000 </v>
   <v>       0.04000000       0.47368421       0.00000000 </v>
   <v>       0.08000000       0.47368421       0.00000000 </v>
   <v>       0.12000000       0.47368421       0.00000000 </v>
   <v>       0.16000000       0.47368421       0.00000000 </v>
   <v>       0.20000000       0.47368421       0.00000000 </v>
   <v>       0.24000000       0.47368421       0.00000000 </v>
   <v>       0.28000000       0.47368421       0.00000000 </v>
   <v>       0.32000000       0.47368421       0.00000000 </v>
   <v>       0.36000000       0.47368421       0.00000000 </v>
   <v>       0.40000000       0.47368421       0.00000000 </v>
   <v>       0.44000000       0.47368421       0.00000000 </v>
   <v>       0.48000000       0.47368421       0.00000000 </v>
   <v>       0.00000000       0.00000000       0.12500000 </v>
   <v>       0.04000000       0.00000000       0.12500000 </v>
   <v>       0.08000000       0.00000000       0.12500000 </v>
   <v>       0.12000000       0.00000000       0.12500000 </v>
   <v>       0.16000000       0.00000000       0.12500000 </v>
   <v>       0.20000000       0.00000000       0.12500000 </v>
   <v>       0.24000000       0.00000000       0.12500000 </v>
   <v>       0.28000000       0.00000000       0.12500000 </v>
   <v>       0.32000000       0.00000000       0.12500000 </v>
   <v>       0.36000000       0.00000000       0.12500000 </v>
   <v>       0.40000000       0.00000000       0.12500000 </v>
   <v>       0.44000000       0.00000000       0.12500000 </v>
   <v>       0.48000000       0.00000000       0.12500000 </v>
   <v>       0.00000000       0.05263158       0.12500000 </v>
   <v>       0.04000000       0.05263158       0.12500000 </v>
   <v>       0.08000000       0.05263158       0.12500000 </v>
   <v>       0.12000000       0.05263158       0.12500000 </v>
   <v>       0.16000000       0.05263158       0.12500000 </v>
   <v>       0.20000000       0.05263158       0.12500000 </v>
   <v>       0.24000000       0.05263158       0.12500000 </v>
   <v>       0.28000000       0.05263158       0.12500000 </v>
   <v>       0.32000000       0.05263158       0.12500000 </v>
   <v>       0.36000000       0.05263158       0.12500000 </v>
   <v>       0.40000000       0.05263158       0.12500000 </v>
   <v>       0.44000000       0.05263158       0.12500000 </v>
   <v>       0.48000000       0.05263158       0.12500000 </v>
   <v>       0.00000000       0.10526316       0.12500000 </v>
   <v>       0.04000000       0.10526316       0.12500000 </v>
   <v>       0.08000000       0.10526316       0.12500000 </v>
   <v>       0.12000000       0.10526316       0.12500000 </v>
   <v>       0.16000000       0.10526316       0.12500000 </v>
   <v>       0.20000000       0.10526316       0.12500000 </v>
   <v>       0.24000000       0.10526316       0.12500000 </v>
   <v>       0.28000000       0.10526316       0.12500000 </v>
   <v>       0.32000000       0.10526316       0.12500000 </v>
   <v>       0.36000000       0.10526316       0.12500000 </v>
   <v>       0.40000000       0.10526316       0.12500000 </v>
   <v>       0.44000000       0.10526316       0.12500000 </v>
   <v>       0.48000000       0.10526316       0.12500000 </v>
   <v>       0.00000000       0.15789474       0.12500000 </v>
   <v>       0.04000000       0.15789474       0.12500000 </v>
   <v>       0.08000000       0.15789474       0.12500000 </v>
   <v>       0.12000000       0.15789474       0.12500000 </v>
   <v>       0.16000000       0.15789474       0.12500000 </v>
   <v>       0.20000000       0.15789474       0.12500000 </v>
   <v>       0.24000000       0.15789474       0.12500000 </v>
   <v>       0.28000000       0.15789474       0.12500000 </v>
   <v>       0.32000000       0.15789474       0.12500000 </v>
   <v>       0.36000000       0.15789474       0.12500000 </v>
   <v>       0.40000000       0.15789474       0.12500000 </v>
   <v>       0.44000000       0.15789474       0.12500000 </v>
   <v>       0.48000000       0.15789474       0.12500000 </v>
   <v>       0.00000000       0.21052632       0.12500000 </v>
   <v>       0.04000000       0.21052632       0.12500000 </v>
   <v>       0.08000000       0.21052632       0.12500000 </v>
   <v>       0.12000000       0.21052632       0.12500000 </v>
   <v>       0.16000000       0.21052632       0.12500000 </v>
   <v>       0.20000000       0.21052632       0.12500000 </v>
   <v>       0.24000000       0.21052632       0.12500000 </v>
   <v>       0.28000000       0.21052632       0.12500000 </v>
   <v>       0.32000000       0.21052632       0.12500000 </v>
   <v>       0.36000000       0.21052632       0.12500000 </v>
   <v>       0.40000000       0.21052632       0.12500000 </v>
   <v>       0.44000000       0.21052632       0.12500000 </v>
   <v>       0.48000000       0.21052632       0.12500000 </v>
   <v>       0.00000000       0.26315789       0.12500000 </v>
   <v>       0.04000000       0.26315789       0.12500000 </v>
   <v>       0.08000000       0.26315789       0.12500000 </v>
   <v>       0.12000000       0.26315789       0.12500000 </v>
   <v>       0.16000000       0.26315789       0.12500000 </v>
   <v>       0.20000000       0.26315789       0.12500000 </v>
   <v>       0.24000000       0.26315789       0.12500000 </v>
   <v>       0.28000000       0.26315789       0.12500000 </v>
   <v>       0.32000000       0.26315789       0.12500000 </v>
   <v>       0.36000000       0.26315789       0.12500000 </v>
   <v>       0.40000000       0.26315789       0.12500000 </v>
   <v>       0.44000000       0.26315789       0.12500000 </v>
   <v>       0.48000000       0.26315789       0.12500000 </v>
   <v>       0.00000000       0.31578947       0.12500000 </v>
   <v>       0.04000000       0.31578947       0.12500000 </v>
   <v>       0.08000000       0.31578947       0.12500000 </v>
   <v>       0.12000000       0.31578947       0.12500000 </v>
   <v>       0.16000000       0.31578947       0.12500000 </v>
   <v>       0.20000000       0.31578947       0.12500000 </v>
   <v>       0.24000000       0.31578947       0.12500000 </v>
   <v>       0.28000000       0.31578947       0.12500000 </v>
   <v>       0.32000000       0.31578947       0.12500000 </v>
   <v>       0.36000000       0.31578947       0.12500000 </v>
   <v>       0.40000000       0.31578947       0.12500000 </v>
   <v>       0.44000000       0.31578947       0.12500000 </v>
   <v>       0.48000000       0.31578947       0.12500000 </v>
   <v>       0.00000000       0.36842105       0.12500000 </v>
   <v>       0.04000000       0.36842105       0.12500000 </v>
   <v>       0.08000000       0.36842105       0.12500000 </v>
   <v>       0.12000000       0.36842105       0.12500000 </v>
   <v>       0.16000000       0.36842105       0.12500000 </v>
   <v>       0.20000000       0.36842105       0.12500000 </v>
   <v>       0.24000000       0.36842105       0.12500000 </v>
   <v>       0.28000000       0.36842105       0.12500000 </v>
   <v>       0.32000000       0.36842105       0.12500000 </v>
   <v>       0.36000000       0.36842105       0.12500000 </v>
   <v>       0.40000000       0.36842105       0.12500000 </v>
   <v>       0.44000000       0.36842105       0.12500000 </v>
   <v>       0.48000000       0.36842105       0.12500000 </v>
   <v>       0.00000000       0.42105263       0.12500000 </v>
   <v>       0.04000000       0.42105263       0.12500000 </v>
   <v>       0.08000000       0.42105263       0.12500000 </v>
   <v>       0.12000000       0.42105263       0.12500000 </v>
   <v>       0.16000000       0.42105263       0.12500000 </v>
   <v>       0.20000000       0.42105263       0.12500000 </v>
   <v>       0.24000000       0.42105263       0.12500000 </v>
   <v>       0.28000000       0.42105263       0.12500000 </v>
   <v>       0.32000000       0.42105263       0.12500000 </v>
   <v>       0.36000000       0.42105263       0.12500000 </v>
   <v>       0.40000000       0.42105263       0.12500000 </v>
   <v>       0.44000000       0.42105263       0.12500000 </v>
   <v>       0.48000000       0.42105263       0.12500000 </v>
   <v>       0.00000000       0.47368421       0.12500000 </v>
   <v>       0.04000000       0.47368421       0.12500000 </v>
   <v>       0.08000000       0.47368421       0.12500000 </v>
   <v>       0.12000000       0.47368421       0.12500000 </v>
   <v>       0.16000000       0.47368421       0.12500000 </v>
   <v>       0.20000000       0.47368421       0.12500000 </v>
   <v>       0.24000000       0.47368421       0.12500000 </v>
   <v>       0.28000000       0.47368421       0.12500000 </v>
   <v>       0.32000000       0.47368421       0.12500000 </v>
   <v>       0.36000000       0.47368421       0.12500000 </v>
   <v>       0.40000000       0.47368421       0.12500000 </v>
   <v>       0.44000000       0.47368421       0.12500000 </v>
   <v>       0.48000000       0.47368421       0.12500000 </v>
   <v>       0.00000000       0.00000000       0.25000000 </v>
   <v>       0.04000000       0.00000000       0.25000000 </v>
   <v>       0.08000000       0.00000000       0.25000000 </v>
   <v>       0.12000000       0.00000000       0.25000000 </v>
   <v>       0.16000000       0.00000000       0.25000000 </v>
   <v>       0.20000000       0.00000000       0.25000000 </v>
   <v>       0.24000000       0.00000000       0.25000000 </v>
   <v>       0.28000000       0.00000000       0.25000000 </v>
   <v>       0.32000000       0.00000000       0.25000000 </v>
   <v>       0.36000000       0.00000000       0.25000000 </v>
   <v>       0.40000000       0.00000000       0.25000000 </v>
   <v>       0.44000000       0.00000000       0.25000000 </v>
   <v>       0.48000000       0.00000000       0.25000000 </v>
   <v>       0.00000000       0.05263158       0.25000000 </v>
   <v>       0.04000000       0.05263158       0.25000000 </v>
   <v>       0.08000000       0.05263158       0.25000000 </v>
   <v>       0.12000000       0.05263158       0.25000000 </v>
   <v>       0.16000000       0.05263158       0.25000000 </v>
   <v>       0.20000000       0.05263158       0.25000000 </v>
   <v>       0.24000000       0.05263158       0.25000000 </v>
   <v>       0.28000000       0.05263158       0.25000000 </v>
   <v>       0.32000000       0.05263158       0.25000000 </v>
   <v>       0.36000000       0.05263158       0.25000000 </v>
   <v>       0.40000000       0.05263158       0.25000000 </v>
   <v>       0.44000000       0.05263158       0.25000000 </v>
   <v>       0.48000000       0.05263158       0.25000000 </v>
   <v>       0.00000000       0.10526316       0.25000000 </v>
   <v>       0.04000000       0.10526316       0.25000000 </v>
   <v>       0.08000000       0.10526316       0.25000000 </v>
   <v>       0.12000000       0.10526316       0.25000000 </v>
   <v>       0.16000000       0.10526316       0.25000000 </v>
   <v>       0.20000000       0.10526316       0.25000000 </v>
   <v>       0.24000000       0.10526316       0.25000000 </v>
   <v>       0.28000000       0.10526316       0.25000000 </v>
   <v>       0.32000000       0.10526316       0.25000000 </v>
   <v>       0.36000000       0.10526316       0.25000000 </v>
   <v>       0.40000000       0.10526316       0.25000000 </v>
   <v>       0.44000000       0.10526316       0.25000000 </v>
   <v>       0.48000000       0.10526316       0.25000000 </v>
   <v>       0.00000000       0.15789474       0.25000000 </v>
   <v>       0.04000000       0.15789474       0.25000000 </v>
   <v>       0.08000000       0.15789474       0.25000000 </v>
   <v>       0.12000000       0.15789474       0.25000000 </v>
   <v>       0.16000000       0.15789474       0.25000000 </v>
   <v>       0.20000000       0.15789474       0.25000000 </v>
   <v>       0.24000000       0.15789474       0.25000000 </v>
   <v>       0.28000000       0.15789474       0.25000000 </v>
   <v>       0.32000000       0.15789474       0.25000000 </v>
   <v>       0.36000000       0.15789474       0.25000000 </v>
   <v>       0.40000000       0.15789474       0.25000000 </v>
   <v>       0.44000000       0.15789474       0.25000000 </v>
   <v>       0.48000000       0.15789474       0.25000000 </v>
   <v>       0.00000000       0.21052632       0.25000000 </v>
   <v>       0.04000000       0.21052632       0.25000000 </v>
   <v>       0.08000000       0.21052632       0.25000000 </v>
   <v>       0.12000000       0.21052632       0.25000000 </v>
   <v>       0.16000000       0.21052632       0.25000000 </v>
   <v>       0.20000000       0.21052632       0.25000000 </v>
   <v>       0.24000000       0.21052632       0.25000000 </v>
   <v>       0.28000000       0.21052632       0.25000000 </v>
   <v>       0.32000000       0.21052632       0.25000000 </v>
   <v>       0.36000000       0.21052632       0.25000000 </v>
   <v>       0.40000000       0.21052632       0.25000000 </v>
   <v>       0.44000000       0.21052632       0.25000000 </v>
   <v>       0.48000000       0.21052632       0.25000000 </v>
   <v>       0.00000000       0.26315789       0.25000000 </v>
   <v>       0.04000000       0.26315789       0.25000000 </v>
   <v>       0.08000000       0.26315789       0.25000000 </v>
   <v>       0.12000000       0.26315789       0.25000000 </v>
   <v>       0.16000000       0.26315789       0.25000000 </v>
   <v>       0.20000000       0.26315789       0.25000000 </v>
   <v>       0.24000000       0.26315789       0.25000000 </v>
   <v>       0.28000000       0.26315789       0.25000000 </v>
   <v>       0.32000000       0.26315789       0.25000000 </v>
   <v>       0.36000000       0.26315789       0.25000000 </v>
   <v>       0.40000000       0.26315789       0.25000000 </v>
   <v>       0.44000000       0.26315789       0.25000000 </v>
   <v>       0.48000000       0.26315789       0.25000000 </v>
   <v>       0.00000000       0.31578947       0.25000000 </v>
   <v>       0.04000000       0.31578947       0.25000000 </v>
   <v>       0.08000000       0.31578947       0.25000000 </v>
   <v>       0.12000000       0.31578947       0.25000000 </v>
   <v>       0.16000000       0.31578947       0.25000000 </v>
   <v>       0.20000000       0.31578947       0.25000000 </v>
   <v>       0.24000000       0.31578947       0.25000000 </v>
   <v>       0.28000000       0.31578947       0.25000000 </v>
   <v>       0.32000000       0.31578947       0.25000000 </v>
   <v>       0.36000000       0.31578947       0.25000000 </v>
   <v>       0.40000000       0.31578947       0.25000000 </v>
   <v>       0.44000000       0.31578947       0.25000000 </v>
   <v>       0.48000000       0.31578947       0.25000000 </v>
   <v>       0.00000000       0.36842105       0.25000000 </v>
   <v>       0.04000000       0.36842105       0.25000000 </v>
   <v>       0.08000000       0.36842105       0.25000000 </v>
   <v>       0.12000000       0.36842105       0.25000000 </v>
   <v>       0.16000000       0.36842105       0.25000000 </v>
   <v>       0.20000000       0.36842105       0.25000000 </v>
   <v>       0.24000000       0.36842105       0.25000000 </v>
   <v>       0.28000000       0.36842105       0.25000000 </v>
   <v>       0.32000000       0.36842105       0.25000000 </v>
   <v>       0.36000000       0.36842105       0.25000000 </v>
   <v>       0.40000000       0.36842105       0.25000000 </v>
   <v>       0.44000000       0.36842105       0.25000000 </v>
   <v>       0.48000000       0.36842105       0.25000000 </v>
   <v>       0.00000000       0.42105263       0.25000000 </v>
   <v>       0.04000000       0.42105263       0.25000000 </v>
   <v>       0.08000000       0.42105263       0.25000000 </v>
   <v>       0.12000000       0.42105263       0.25000000 </v>
   <v>       0.16000000       0.42105263       0.25000000 </v>
   <v>       0.20000000       0.42105263       0.25000000 </v>
   <v>       0.24000000       0.42105263       0.25000000 </v>
   <v>       0.28000000       0.42105263       0.25000000 </v>
   <v>       0.32000000       0.42105263       0.25000000 </v>
   <v>       0.36000000       0.42105263       0.25000000 </v>
   <v>       0.40000000       0.42105263       0.25000000 </v>
   <v>       0.44000000       0.42105263       0.25000000 </v>
   <v>       0.48000000       0.42105263       0.25000000 </v>
   <v>       0.00000000       0.47368421       0.25000000 </v>
   <v>       0.04000000       0.47368421       0.25000000 </v>
   <v>       0.08000000       0.47368421       0.25000000 </v>
   <v>       0.12000000       0.47368421       0.25000000 </v>
   <v>       0.16000000       0.47368421       0.25000000 </v>
   <v>       0.20000000       0.47368421       0.25000000 </v>
   <v>       0.24000000       0.47368421       0.25000000 </v>
   <v>       0.28000000       0.47368421       0.25000000 </v>
   <v>       0.32000000       0.47368421       0.25000000 </v>
   <v>       0.36000000       0.47368421       0.25000000 </v>
   <v>       0.40000000       0.47368421       0.25000000 </v>
   <v>       0.44000000       0.47368421       0.25000000 </v>
   <v>       0.48000000       0.47368421       0.25000000 </v>
   <v>       0.00000000       0.00000000       0.37500000 </v>
   <v>       0.04000000       0.00000000       0.37500000 </v>
   <v>       0.08000000       0.00000000       0.37500000 </v>
   <v>       0.12000000       0.00000000       0.37500000 </v>
   <v>       0.16000000       0.00000000       0.37500000 </v>
   <v>       0.20000000       0.00000000       0.37500000 </v>
   <v>       0.24000000       0.00000000       0.37500000 </v>
   <v>       0.28000000       0.00000000       0.37500000 </v>
   <v>       0.32000000       0.00000000       0.37500000 </v>
   <v>       0.36000000       0.00000000       0.37500000 </v>
   <v>       0.40000000       0.00000000       0.37500000 </v>
   <v>       0.44000000       0.00000000       0.37500000 </v>
   <v>       0.48000000       0.00000000       0.37500000 </v>
   <v>       0.00000000       0.05263158       0.37500000 </v>
   <v>       0.04000000       0.05263158       0.37500000 </v>
   <v>       0.08000000       0.05263158       0.37500000 </v>
   <v>       0.12000000       0.05263158       0.37500000 </v>
   <v>       0.16000000       0.05263158       0.37500000 </v>
   <v>       0.20000000       0.05263158       0.37500000 </v>
   <v>       0.24000000       0.05263158       0.37500000 </v>
   <v>       0.28000000       0.05263158       0.37500000 </v>
   <v>       0.32000000       0.05263158       0.37500000 </v>
   <v>       0.36000000       0.05263158       0.37500000 </v>
   <v>       0.40000000       0.05263158       0.37500000 </v>
   <v>       0.44000000       0.05263158       0.37500000 </v>
   <v>       0.48000000       0.05263158       0.37500000 </v>
   <v>       0.00000000       0.10526316       0.37500000 </v>
   <v>       0.04000000       0.10526316       0.37500000 </v>
   <v>       0.08000000       0.10526316       0.37500000 </v>
   <v>       0.12000000       0.10526316       0.37500000 </v>
   <v>       0.16000000       0.10526316       0.37500000 </v>
   <v>       0.20000000       0.10526316       0.37500000 </v>
   <v>       0.24000000       0.10526316       0.37500000 </v>
   <v>       0.28000000       0.10526316       0.37500000 </v>
   <v>       0.32000000       0.10526316       0.37500000 </v>
   <v>       0.36000000       0.10526316       0.37500000 </v>
   <v>       0.40000000       0.10526316       0.37500000 </v>
   <v>       0.44000000       0.10526316       0.37500000 </v>
   <v>       0.48000000       0.10526316       0.37500000 </v>
   <v>       0.00000000       0.15789474       0.37500000 </v>
   <v>       0.04000000       0.15789474       0.37500000 </v>
   <v>       0.08000000       0.15789474       0.37500000 </v>
   <v>       0.12000000       0.15789474       0.37500000 </v>
   <v>       0.16000000       0.15789474       0.37500000 </v>
   <v>       0.20000000       0.15789474       0.37500000 </v>
   <v>       0.24000000       0.15789474       0.37500000 </v>
   <v>       0.28000000       0.15789474       0.37500000 </v>
   <v>       0.32000000       0.15789474       0.37500000 </v>
   <v>       0.36000000       0.15789474       0.37500000 </v>
   <v>       0.40000000       0.15789474       0.37500000 </v>
   <v>       0.44000000       0.15789474       0.37500000 </v>
   <v>       0.48000000       0.15789474       0.37500000 </v>
   <v>       0.00000000       0.21052632       0.37500000 </v>
   <v>       0.04000000       0.21052632       0.37500000 </v>
   <v>       0.08000000       0.21052632       0.37500000 </v>
   <v>       0.12000000       0.21052632       0.37500000 </v>
   <v>       0.16000000       0.21052632       0.37500000 </v>
   <v>       0.20000000       0.21052632       0.37500000 </v>
   <v>       0.24000000       0.21052632       0.37500000 </v>
   <v>       0.28000000       0.21052632       0.37500000 </v>
   <v>       0.32000000       0.21052632       0.37500000 </v>
   <v>       0.36000000       0.21052632       0.37500000 </v>
   <v>       0.40000000       0.21052632       0.37500000 </v>
   <v>       0.44000000       0.21052632       0.37500000 </v>
   <v>       0.48000000       0.21052632       0.37500000 </v>
   <v>       0.00000000       0.26315789       0.37500000 </v>
   <v>       0.04000000       0.26315789       0.37500000 </v>
   <v>       0.08000000       0.26315789       0.37500000 </v>
   <v>       0.12000000       0.26315789       0.37500000 </v>
   <v>       0.16000000       0.26315789       0.37500000 </v>
   <v>       0.20000000       0.26315789       0.37500000 </v>
   <v>       0.24000000       0.26315789       0.37500000 </v>
   <v>       0.28000000       0.26315789       0.37500000 </v>
   <v>       0.32000000       0.26315789       0.37500000 </v>
   <v>       0.36000000       0.26315789       0.37500000 </v>
   <v>       0.40000000       0.26315789       0.37500000 </v>
   <v>       0.44000000       0.26315789       0.37500000 </v>
   <v>       0.48000000       0.26315789       0.37500000 </v>
   <v>       0.00000000       0.31578947       0.37500000 </v>
   <v>       0.04000000       0.31578947       0.37500000 </v>
   <v>       0.08000000       0.31578947       0.37500000 </v>
   <v>       0.12000000       0.31578947       0.37500000 </v>
   <v>       0.16000000       0.31578947       0.37500000 </v>
   <v>       0.20000000       0.31578947       0.37500000 </v>
   <v>       0.24000000       0.31578947       0.37500000 </v>
   <v>       0.28000000       0.31578947       0.37500000 </v>
   <v>       0.32000000       0.31578947       0.37500000 </v>
   <v>       0.36000000       0.31578947       0.37500000 </v>
   <v>       0.40000000       0.31578947       0.37500000 </v>
   <v>       0.44000000       0.31578947       0.37500000 </v>
   <v>       0.48000000       0.31578947       0.37500000 </v>
   <v>       0.00000000       0.36842105       0.37500000 </v>
   <v>       0.04000000       0.36842105       0.37500000 </v>
   <v>       0.08000000       0.36842105       0.37500000 </v>
   <v>       0.12000000       0.36842105       0.37500000 </v>
   <v>       0.16000000       0.36842105       0.37500000 </v>
   <v>       0.20000000       0.36842105       0.37500000 </v>
   <v>       0.24000000       0.36842105       0.37500000 </v>
   <v>       0.28000000       0.36842105       0.37500000 </v>
   <v>       0.32000000       0.36842105       0.37500000 </v>
   <v>       0.36000000       0.36842105       0.37500000 </v>
   <v>       0.40000000       0.36842105       0.37500000 </v>
   <v>       0.44000000       0.36842105       0.37500000 </v>
   <v>       0.48000000       0.36842105       0.37500000 </v>
   <v>       0.00000000       0.42105263       0.37500000 </v>
   <v>       0.04000000       0.42105263       0.37500000 </v>
   <v>       0.08000000       0.42105263       0.37500000 </v>
   <v>       0.12000000       0.42105263       0.37500000 </v>
   <v>       0.16000000       0.42105263       0.37500000 </v>
   <v>       0.20000000       0.42105263       0.37500000 </v>
   <v>       0.24000000       0.42105263       0.37500000 </v>
   <v>       0.28000000       0.42105263       0.37500000 </v>
   <v>       0.32000000       0.42105263       0.37500000 </v>
   <v>       0.36000000       0.42105263       0.37500000 </v>
   <v>       0.40000000       0.42105263       0.37500000 </v>
   <v>       0.44000000       0.42105263       0.37500000 </v>
   <v>       0.48000000       0.42105263       0.37500000 </v>
   <v>       0.00000000       0.47368421       0.37500000 </v>
   <v>       0.04000000       0.47368421       0.37500000 </v>
   <v>       0.08000000       0.47368421       0.37500000 </v>
   <v>       0.12000000       0.47368421       0.37500000 </v>
   <v>       0.16000000       0.47368421       0.37500000 </v>
   <v>       0.20000000       0.47368421       0.37500000 </v>
   <v>       0.24000000       0.47368421       0.37500000 </v>
   <v>       0.28000000       0.47368421       0.37500000 </v>
   <v>       0.32000000       0.47368421       0.37500000 </v>
   <v>       0.36000000       0.47368421       0.37500000 </v>
   <v>       0.40000000       0.47368421       0.37500000 </v>
   <v>       0.44000000       0.47368421       0.37500000 </v>
   <v>       0.48000000       0.47368421       0.37500000 </v>
   <v>       0.00000000       0.00000000       0.50000000 </v>
   <v>       0.04000000       0.00000000       0.50000000 </v>
   <v>       0.08000000       0.00000000       0.50000000 </v>
   <v>       0.12000000       0.00000000       0.50000000 </v>
   <v>       0.16000000       0.00000000       0.50000000 </v>
   <v>       0.20000000       0.00000000       0.50000000 </v>
   <v>       0.24000000       0.00000000       0.50000000 </v>
   <v>       0.28000000       0.00000000       0.50000000 </v>
   <v>       0.32000000       0.00000000       0.50000000 </v>
   <v>       0.36000000       0.00000000       0.50000000 </v>
   <v>       0.40000000       0.00000000       0.50000000 </v>
   <v>       0.44000000       0.00000000       0.50000000 </v>
   <v>       0.48000000       0.00000000       0.50000000 </v>
   <v>       0.00000000       0.05263158       0.50000000 </v>
   <v>       0.04000000       0.05263158       0.50000000 </v>
   <v>       0.08000000       0.05263158       0.50000000 </v>
   <v>       0.12000000       0.05263158       0.50000000 </v>
   <v>       0.16000000       0.05263158       0.50000000 </v>
   <v>       0.20000000       0.05263158       0.50000000 </v>
   <v>       0.24000000       0.05263158       0.50000000 </v>
   <v>       0.28000000       0.05263158       0.50000000 </v>
   <v>       0.32000000       0.05263158       0.50000000 </v>
   <v>       0.36000000       0.05263158       0.50000000 </v>
   <v>       0.40000000       0.05263158       0.50000000 </v>
   <v>       0.44000000       0.05263158       0.50000000 </v>
   <v>       0.48000000       0.05263158       0.50000000 </v>
   <v>       0.00000000       0.10526316       0.50000000 </v>
   <v>       0.04000000       0.10526316       0.50000000 </v>
   <v>       0.08000000       0.10526316       0.50000000 </v>
   <v>       0.12000000       0.10526316       0.50000000 </v>
   <v>       0.16000000       0.10526316       0.50000000 </v>
   <v>       0.20000000       0.10526316       0.50000000 </v>
   <v>       0.24000000       0.10526316       0.50000000 </v>
   <v>       0.28000000       0.10526316       0.50000000 </v>
   <v>       0.32000000       0.10526316       0.50000000 </v>
   <v>       0.36000000       0.10526316       0.50000000 </v>
   <v>       0.40000000       0.10526316       0.50000000 </v>
   <v>       0.44000000       0.10526316       0.50000000 </v>
   <v>       0.48000000       0.10526316       0.50000000 </v>
   <v>       0.00000000       0.15789474       0.50000000 </v>
   <v>       0.04000000       0.15789474       0.50000000 </v>
   <v>       0.08000000       0.15789474       0.50000000 </v>
   <v>       0.12000000       0.15789474       0.50000000 </v>
   <v>       0.16000000       0.15789474       0.50000000 </v>
   <v>       0.20000000       0.15789474       0.50000000 </v>
   <v>       0.24000000       0.15789474       0.50000000 </v>
   <v>       0.28000000       0.15789474       0.50000000 </v>
   <v>       0.32000000       0.15789474       0.50000000 </v>
   <v>       0.36000000       0.15789474       0.50000000 </v>
   <v>       0.40000000       0.15789474       0.50000000 </v>
   <v>       0.44000000       0.15789474       0.50000000 </v>
   <v>       0.48000000       0.15789474       0.50000000 </v>
   <v>       0.00000000       0.21052632       0.50000000 </v>
   <v>       0.04000000       0.21052632       0.50000000 </v>
   <v>       0.08000000       0.21052632       0.50000000 </v>
   <v>       0.12000000       0.21052632       0.50000000 </v>
   <v>       0.16000000       0.21052632       0.50000000 </v>
   <v>       0.20000000       0.21052632       0.50000000 </v>
   <v>       0.24000000       0.21052632       0.50000000 </v>
   <v>       0.28000000       0.21052632       0.50000000 </v>
   <v>       0.32000000       0.21052632       0.50000000 </v>
   <v>       0.36000000       0.21052632       0.50000000 </v>
   <v>       0.40000000       0.21052632       0.50000000 </v>
   <v>       0.44000000       0.21052632       0.50000000 </v>
   <v>       0.48000000       0.21052632       0.50000000 </v>
   <v>       0.00000000       0.26315789       0.50000000 </v>
   <v>       0.04000000       0.26315789       0.50000000 </v>
   <v>       0.08000000       0.26315789       0.50000000 </v>
   <v>       0.12000000       0.26315789       0.50000000 </v>
   <v>       0.16000000       0.26315789       0.50000000 </v>
   <v>       0.20000000       0.26315789       0.50000000 </v>
   <v>       0.24000000       0.26315789       0.50000000 </v>
   <v>       0.28000000       0.26315789       0.50000000 </v>
   <v>       0.32000000       0.26315789       0.50000000 </v>
   <v>       0.36000000       0.26315789       0.50000000 </v>
   <v>       0.40000000       0.26315789       0.50000000 </v>
   <v>       0.44000000       0.26315789       0.50000000 </v>
   <v>       0.48000000       0.26315789       0.50000000 </v>
   <v>       0.00000000       0.31578947       0.50000000 </v>
   <v>       0.04000000       0.31578947       0.50000000 </v>
   <v>       0.08000000       0.31578947       0.50000000 </v>
   <v>       0.12000000       0.31578947       0.50000000 </v>
   <v>       0.16000000       0.31578947       0.50000000 </v>
   <v>       0.20000000       0.31578947       0.50000000 </v>
   <v>       0.24000000       0.31578947       0.50000000 </v>
   <v>       0.28000000       0.31578947       0.50000000 </v>
   <v>       0.32000000       0.31578947       0.50000000 </v>
   <v>       0.36000000       0.31578947       0.50000000 </v>
   <v>       0.40000000       0.31578947       0.50000000 </v>
   <v>       0.44000000       0.31578947       0.50000000 </v>
   <v>       0.48000000       0.31578947       0.50000000 </v>
   <v>       0.00000000       0.36842105       0.50000000 </v>
   <v>       0.04000000       0.36842105       0.50000000 </v>
   <v>       0.08000000       0.36842105       0.50000000 </v>
   <v>       0.12000000       0.36842105       0.50000000 </v>
   <v>       0.16000000       0.36842105       0.50000000 </v>
   <v>       0.20000000       0.36842105       0.50000000 </v>
   <v>       0.24000000       0.36842105       0.50000000 </v>
   <v>       0.28000000       0.36842105       0.50000000 </v>
   <v>       0.32000000       0.36842105       0.50000000 </v>
   <v>       0.36000000       0.36842105       0.50000000 </v>
   <v>       0.40000000       0.36842105       0.50000000 </v>
   <v>       0.44000000       0.36842105       0.50000000 </v>
   <v>       0.48000000       0.36842105       0.50000000 </v>
   <v>       0.00000000       0.42105263       0.50000000 </v>
   <v>       0.04000000       0.42105263       0.50000000 </v>
   <v>       0.08000000       0.42105263       0.50000000 </v>
   <v>       0.12000000       0.42105263       0.50000000 </v>
   <v>       0.16000000       0.42105263       0.50000000 </v>
   <v>       0.20000000       0.42105263       0.50000000 </v>
   <v>       0.24000000       0.42105263       0.50000000 </v>
   <v>       0.28000000       0.42105263       0.50000000 </v>
   <v>       0.32000000       0.42105263       0.50000000 </v>
   <v>       0.36000000       0.42105263       0.50000000 </v>
   <v>       0.40000000       0.42105263       0.50000000 </v>
   <v>       0.44000000       0.42105263       0.50000000 </v>
   <v>       0.48000000       0.42105263       0.50000000 </v>
   <v>       0.00000000       0.47368421       0.50000000 </v>
   <v>       0.04000000       0.47368421       0.50000000 </v>
   <v>       0.08000000       0.47368421       0.50000000 </v>
   <v>       0.12000000       0.47368421       0.50000000 </v>
   <v>       0.16000000       0.47368421       0.50000000 </v>
   <v>       0.20000000       0.47368421       0.50000000 </v>
   <v>       0.24000000       0.47368421       0.50000000 </v>
   <v>       0.28000000       0.47368421       0.50000000 </v>
   <v>       0.32000000       0.47368421       0.50000000 </v>
   <v>       0.36000000       0.47368421       0.50000000 </v>
   <v>       0.40000000       0.47368421       0.50000000 </v>
   <v>       0.44000000       0.47368421       0.50000000 </v>
   <v>       0.48000000       0.47368421       0.50000000 </v>
  </varray>
  <varray name="weights" >
   <v>       0.00026316 </v>
   <v>       0.00052632 </v>
   <v>       0.00052632 </v>
   <v>       0.00052632 </v>
   <v>       0.00052632 </v>
   <v>       0.00052632 </v>
   <v>       0.00052632 </v>
   <v>       0.00052632 </v>
   <v>       0.00052632 </v>
   <v>       0.00052632 </v>
   <v>       0.00052632 </v>
   <v>       0.00052632 </v>
   <v>       0.00052632 </v>
   <v>       0.00052632 </v>
   <v>       0.00105263 </v>
   <v>       0.00105263 </v>
   <v>       0.00105263 </v>
   <v>       0.00105263 </v>
   <v>       0.00105263 </v>
   <v>       0.00105263 </v>
   <v>       0.00105263 </v>
   <v>       0.00105263 </v>
   <v>       0.00105263 </v>
   <v>       0.00105263 </v>
   <v>       0.00105263 </v>
   <v>       0.00105263 </v>
   <v>       0.00052632 </v>
   <v>       0.00105263 </v>
   <v>       0.00105263 </v>
   <v>       0.00105263 </v>
   <v>       0.00105263 </v>
   <v>       0.00105263 </v>
   <v>       0.00105263 </v>
   <v>       0.00105263 </v>
   <v>       0.00105263 </v>
   <v>       0.00105263 </v>
   <v>       0.00105263 </v>
   <v>       0.00105263 </v>
   <v>       0.00105263 </v>
   <v>       0.00052632 </v>
   <v>       0.00105263 </v>
   <v>       0.00105263 </v>
   <v>       0.00105263 </v>
   <v>       0.00105263 </v>
   <v>       0.00105263 </v>
   <v>       0.00105263 </v>
   <v>       0.00105263 </v>
   <v>       0.00105263 </v>
   <v>       0.00105263 </v>
   <v>       0.00105263 </v>
   <v>       0.00105263 </v>
   <v>       0.00105263 </v>
   <v>       0.00052632 </v>
   <v>       0.00105263 </v>
   <v>       0.00105263 </v>
   <v>       0.00105263 </v>
   <v>       0.00105263 </v>
   <v>       0.00105263 </v>
   <v>       0.00105263 </v>
   <v>       0.00105263 </v>
   <v>       0.00105263 </v>
   <v>       0.00105263 </v>
   <v>       0.00105263 </v>
   <v>       0.00105263 </v>
   <v>       0.00105263 </v>
   <v>       0.00052632 </v>
   <v>       0.00105263 </v>
   <v>       0.00105263 </v>
   <v>       0.00105263 </v>
   <v>       0.00105263 </v>
   <v>       0.00105263 </v>
   <v>       0.00105263 </v>
   <v>       0.00105263 </v>
   <v>       0.00105263 </v>
   <v>       0.00105263 </v>
   <v>       0.00105263 </v>
   <v>       0.00105263 </v>
   <v>       0.00105263 </v>
   <v>       0.00052632 </v>
   <v>       0.00105263 </v>
   <v>       0.00105263 </v>
   <v>       0.00105263 </v>
   <v>       0.00105263 </v>
   <v>       0.00105263 </v>
   <v>       0.00105263 </v>
   <v>       0.00105263 </v>
   <v>       0.00105263 </v>
   <v>       0.00105263 </v>
   <v>       0.00105263 </v>
   <v>       0.00105263 </v>
   <v>       0.00105263 </v>
   <v>       0.00052632 </v>
   <v>       0.00105263 </v>
   <v>       0.00105263 </v>
   <v>       0.00105263 </v>
   <v>       0.00105263 </v>
   <v>       0.00105263 </v>
   <v>       0.00105263 </v>
   <v>       0.00105263 </v>
   <v>       0.00105263 </v>
   <v>       0.00105263 </v>
   <v>       0.00105263 </v>
   <v>       0.00105263 </v>
   <v>       0.00105263 </v>
   <v>       0.00052632 </v>
   <v>       0.00105263 </v>
   <v>       0.00105263 </v>
   <v>       0.00105263 </v>
   <v>       0.00105263 </v>
   <v>       0.00105263 </v>
   <v>       0.00105263 </v>
   <v>       0.00105263 </v>
   <v>       0.00105263 </v>
   <v>       0.00105263 </v>
   <v>       0.00105263 </v>
   <v>       0.00105263 </v>
   <v>       0.00105263 </v>
   <v>       0.00052632 </v>
   <v>       0.00105263 </v>
   <v>       0.00105263 </v>
   <v>       0.00105263 </v>
   <v>       0.00105263 </v>
   <v>       0.00105263 </v>
   <v>       0.00105263 </v>
   <v>       0.00105263 </v>
   <v>       0.00105263 </v>
   <v>       0.00105263 </v>
   <v>       0.00105263 </v>
   <v>       0.00105263 </v>
   <v>       0.00105263 </v>
   <v>       0.00052632 </v>
   <v>       0.00105263 </v>
   <v>       0.00105263 </v>
   <v>       0.00105263 </v>
   <v>       0.00105263 </v>
   <v>       0.00105263 </v>
   <v>       0.00105263 </v>
   <v>       0.00105263 </v>
   <v>       0.00105263 </v>
   <v>       0.00105263 </v>
   <v>       0.00105263 </v>
   <v>       0.00105263 </v>
   <v>       0.00105263 </v>
   <v>       0.00105263 </v>
   <v>       0.00210526 </v>
   <v>       0.00210526 </v>
   <v>       0.00210526 </v>
   <v>       0.00210526 </v>
   <v>       0.00210526 </v>
   <v>       0.00210526 </v>
   <v>       0.00210526 </v>
   <v>       0.00210526 </v>
   <v>       0.00210526 </v>
   <v>       0.00210526 </v>
   <v>       0.00210526 </v>
   <v>       0.00210526 </v>
   <v>       0.00105263 </v>
   <v>       0.00210526 </v>
   <v>       0.00210526 </v>
   <v>       0.00210526 </v>
   <v>       0.00210526 </v>
   <v>       0.00210526 </v>
   <v>       0.00210526 </v>
   <v>       0.00210526 </v>
   <v>       0.00210526 </v>
   <v>       0.00210526 </v>
   <v>       0.00210526 </v>
   <v>       0.00210526 </v>
   <v>       0.00210526 </v>
   <v>       0.00105263 </v>
   <v>       0.00210526 </v>
   <v>       0.00210526 </v>
   <v>       0.00210526 </v>
   <v>       0.00210526 </v>
   <v>       0.00210526 </v>
   <v>       0.00210526 </v>
   <v>       0.00210526 </v>
   <v>       0.00210526 </v>
   <v>       0.00210526 </v>
   <v>       0.00210526 </v>
   <v>       0.00210526 </v>
   <v>       0.00210526 </v>
   <v>       0.00105263 </v>
   <v>       0.00210526 </v>
   <v>       0.00210526 </v>
   <v>       0.00210526 </v>
   <v>       0.00210526 </v>
   <v>       0.00210526 </v>
   <v>       0.00210526 </v>
   <v>       0.00210526 </v>
   <v>       0.00210526 </v>
   <v>       0.00210526 </v>
   <v>       0.00210526 </v>
   <v>       0.00210526 </v>
   <v>       0.00210526 </v>
   <v>       0.00105263 </v>
   <v>       0.00210526 </v>
   <v>       0.00210526 </v>
   <v>       0.00210526 </v>
   <v>       0.00210526 </v>
   <v>       0.00210526 </v>
   <v>       0.00210526 </v>
   <v>       0.00210526 </v>
   <v>       0.00210526 </v>
   <v>       0.00210526 </v>
   <v>       0.00210526 </v>
   <v>       0.00210526 </v>
   <v>       0.00210526 </v>
   <v>       0.00105263 </v>
   <v>       0.00210526 </v>
   <v>       0.00210526 </v>
   <v>       0.00210526 </v>
   <v>       0.00210526 </v>
   <v>       0.00210526 </v>
   <v>       0.00210526 </v>
   <v>       0.00210526 </v>
   <v>       0.00210526 </v>
   <v>       0.00210526 </v>
   <v>       0.00210526 </v>
   <v>       0.00210526 </v>
   <v>       0.00210526 </v>
   <v>       0.00105263 </v>
   <v>       0.00210526 </v>
   <v>       0.00210526 </v>
   <v>       0.00210526 </v>
   <v>       0.00210526 </v>
   <v>       0.00210526 </v>
   <v>       0.00210526 </v>
   <v>       0.00210526 </v>
   <v>       0.00210526 </v>
   <v>       0.00210526 </v>
   <v>       0.00210526 </v>
   <v>       0.00210526 </v>
   <v>       0.00210526 </v>
   <v>       0.00105263 </v>
   <v>       0.00210526 </v>
   <v>       0.00210526 </v>
   <v>       0.00210526 </v>
   <v>       0.00210526 </v>
   <v>       0.00210526 </v>
   <v>       0.00210526 </v>
   <v>       0.00210526 </v>
   <v>       0.00210526 </v>
   <v>       0.00210526 </v>
   <v>       0.00210526 </v>
   <v>       0.00210526 </v>
   <v>       0.00210526 </v>
   <v>       0.00105263 </v>
   <v>       0.00210526 </v>
   <v>       0.00210526 </v>
   <v>       0.00210526 </v>
   <v>       0.00210526 </v>
   <v>       0.00210526 </v>
   <v>       0.00210526 </v>
   <v>       0.00210526 </v>
   <v>       0.00210526 </v>
   <v>       0.00210526 </v>
   <v>       0.00210526 </v>
   <v>       0.00210526 </v>
   <v>       0.00210526 </v>
   <v>       0.00052632 </v>
   <v>       0.00105263 </v>
   <v>       0.00105263 </v>
   <v>       0.00105263 </v>
   <v>       0.00105263 </v>
   <v>       0.00105263 </v>
   <v>       0.00105263 </v>
   <v>       0.00105263 </v>
   <v>       0.00105263 </v>
   <v>       0.00105263 </v>
   <v>       0.00105263 </v>
   <v>       0.00105263 </v>
   <v>       0.00105263 </v>
   <v>       0.00105263 </v>
   <v>       0.00210526 </v>
   <v>       0.00210526 </v>
   <v>       0.00210526 </v>
   <v>       0.00210526 </v>
   <v>       0.00210526 </v>
   <v>       0.00210526 </v>
   <v>       0.00210526 </v>
   <v>       0.00210526 </v>
   <v>       0.00210526 </v>
   <v>       0.00210526 </v>
   <v>       0.00210526 </v>
   <v>       0.00210526 </v>
   <v>       0.00105263 </v>
   <v>       0.00210526 </v>
   <v>       0.00210526 </v>
   <v>       0.00210526 </v>
   <v>       0.00210526 </v>
   <v>       0.00210526 </v>
   <v>       0.00210526 </v>
   <v>       0.00210526 </v>
   <v>       0.00210526 </v>
   <v>       0.00210526 </v>
   <v>       0.00210526 </v>
   <v>       0.00210526 </v>
   <v>       0.00210526 </v>
   <v>       0.00105263 </v>
   <v>       0.00210526 </v>
   <v>       0.00210526 </v>
   <v>       0.00210526 </v>
   <v>       0.00210526 </v>
   <v>       0.00210526 </v>
   <v>       0.00210526 </v>
   <v>       0.00210526 </v>
   <v>       0.00210526 </v>
   <v>       0.00210526 </v>
   <v>       0.00210526 </v>
   <v>       0.00210526 </v>
   <v>       0.00210526 </v>
   <v>       0.00105263 </v>
   <v>       0.00210526 </v>
   <v>       0.00210526 </v>
   <v>       0.00210526 </v>
   <v>       0.00210526 </v>
   <v>       0.00210526 </v>
   <v>       0.00210526 </v>
   <v>       0.00210526 </v>
   <v>       0.00210526 </v>
   <v>       0.00210526 </v>
   <v>       0.00210526 </v>
   <v>       0.00210526 </v>
   <v>       0.00210526 </v>
   <v>       0.00105263 </v>
   <v>       0.00210526 </v>
   <v>       0.00210526 </v>
   <v>       0.00210526 </v>
   <v>       0.00210526 </v>
   <v>       0.00210526 </v>
   <v>       0.00210526 </v>
   <v>       0.00210526 </v>
   <v>       0.00210526 </v>
   <v>       0.00210526 </v>
   <v>       0.00210526 </v>
   <v>       0.00210526 </v>
   <v>       0.00210526 </v>
   <v>       0.00105263 </v>
   <v>       0.00210526 </v>
   <v>       0.00210526 </v>
   <v>       0.00210526 </v>
   <v>       0.00210526 </v>
   <v>       0.00210526 </v>
   <v>       0.00210526 </v>
   <v>       0.00210526 </v>
   <v>       0.00210526 </v>
   <v>       0.00210526 </v>
   <v>       0.00210526 </v>
   <v>       0.00210526 </v>
   <v>       0.00210526 </v>
   <v>       0.00105263 </v>
   <v>       0.00210526 </v>
   <v>       0.00210526 </v>
   <v>       0.00210526 </v>
   <v>       0.00210526 </v>
   <v>       0.00210526 </v>
   <v>       0.00210526 </v>
   <v>       0.00210526 </v>
   <v>       0.00210526 </v>
   <v>       0.00210526 </v>
   <v>       0.00210526 </v>
   <v>       0.00210526 </v>
   <v>       0.00210526 </v>
   <v>       0.00105263 </v>
   <v>       0.00210526 </v>
   <v>       0.00210526 </v>
   <v>       0.00210526 </v>
   <v>       0.00210526 </v>
   <v>       0.00210526 </v>
   <v>       0.00210526 </v>
   <v>       0.00210526 </v>
   <v>       0.00210526 </v>
   <v>       0.00210526 </v>
   <v>       0.00210526 </v>
   <v>       0.00210526 </v>
   <v>       0.00210526 </v>
   <v>       0.00105263 </v>
   <v>       0.00210526 </v>
   <v>       0.00210526 </v>
   <v>       0.00210526 </v>
   <v>       0.00210526 </v>
   <v>       0.00210526 </v>
   <v>       0.00210526 </v>
   <v>       0.00210526 </v>
   <v>       0.00210526 </v>
   <v>       0.00210526 </v>
   <v>       0.00210526 </v>
   <v>       0.00210526 </v>
   <v>       0.00210526 </v>
   <v>       0.00052632 </v>
   <v>       0.00105263 </v>
   <v>       0.00105263 </v>
   <v>       0.00105263 </v>
   <v>       0.00105263 </v>
   <v>       0.00105263 </v>
   <v>       0.00105263 </v>
   <v>       0.00105263 </v>
   <v>       0.00105263 </v>
   <v>       0.00105263 </v>
   <v>       0.00105263 </v>
   <v>       0.00105263 </v>
   <v>       0.00105263 </v>
   <v>       0.00105263 </v>
   <v>       0.00210526 </v>
   <v>       0.00210526 </v>
   <v>       0.00210526 </v>
   <v>       0.00210526 </v>
   <v>       0.00210526 </v>
   <v>       0.00210526 </v>
   <v>       0.00210526 </v>
   <v>       0.00210526 </v>
   <v>       0.00210526 </v>
   <v>       0.00210526 </v>
   <v>       0.00210526 </v>
   <v>       0.00210526 </v>
   <v>       0.00105263 </v>
   <v>       0.00210526 </v>
   <v>       0.00210526 </v>
   <v>       0.00210526 </v>
   <v>       0.00210526 </v>
   <v>       0.00210526 </v>
   <v>       0.00210526 </v>
   <v>       0.00210526 </v>
   <v>       0.00210526 </v>
   <v>       0.00210526 </v>
   <v>       0.00210526 </v>
   <v>       0.00210526 </v>
   <v>       0.00210526 </v>
   <v>       0.00105263 </v>
   <v>       0.00210526 </v>
   <v>       0.00210526 </v>
   <v>       0.00210526 </v>
   <v>       0.00210526 </v>
   <v>       0.00210526 </v>
   <v>       0.00210526 </v>
   <v>       0.00210526 </v>
   <v>       0.00210526 </v>
   <v>       0.00210526 </v>
   <v>       0.00210526 </v>
   <v>       0.00210526 </v>
   <v>       0.00210526 </v>
   <v>       0.00105263 </v>
   <v>       0.00210526 </v>
   <v>       0.00210526 </v>
   <v>       0.00210526 </v>
   <v>       0.00210526 </v>
   <v>       0.00210526 </v>
   <v>       0.00210526 </v>
   <v>       0.00210526 </v>
   <v>       0.00210526 </v>
   <v>       0.00210526 </v>
   <v>       0.00210526 </v>
   <v>       0.00210526 </v>
   <v>       0.00210526 </v>
   <v>       0.00105263 </v>
   <v>       0.00210526 </v>
   <v>       0.00210526 </v>
   <v>       0.00210526 </v>
   <v>       0.00210526 </v>
   <v>       0.00210526 </v>
   <v>       0.00210526 </v>
   <v>       0.00210526 </v>
   <v>       0.00210526 </v>
   <v>       0.00210526 </v>
   <v>       0.00210526 </v>
   <v>       0.00210526 </v>
   <v>       0.00210526 </v>
   <v>       0.00105263 </v>
   <v>       0.00210526 </v>
   <v>       0.00210526 </v>
   <v>       0.00210526 </v>
   <v>       0.00210526 </v>
   <v>       0.00210526 </v>
   <v>       0.00210526 </v>
   <v>       0.00210526 </v>
   <v>       0.00210526 </v>
   <v>       0.00210526 </v>
   <v>       0.00210526 </v>
   <v>       0.00210526 </v>
   <v>       0.00210526 </v>
   <v>       0.00105263 </v>
   <v>       0.00210526 </v>
   <v>       0.00210526 </v>
   <v>       0.00210526 </v>
   <v>       0.00210526 </v>
   <v>       0.00210526 </v>
   <v>       0.00210526 </v>
   <v>       0.00210526 </v>
   <v>       0.00210526 </v>
   <v>       0.00210526 </v>
   <v>       0.00210526 </v>
   <v>       0.00210526 </v>
   <v>       0.00210526 </v>
   <v>       0.00105263 </v>
   <v>       0.00210526 </v>
   <v>       0.00210526 </v>
   <v>       0.00210526 </v>
   <v>       0.00210526 </v>
   <v>       0.00210526 </v>
   <v>       0.00210526 </v>
   <v>       0.00210526 </v>
   <v>       0.00210526 </v>
   <v>       0.00210526 </v>
   <v>       0.00210526 </v>
   <v>       0.00210526 </v>
   <v>       0.00210526 </v>
   <v>       0.00105263 </v>
   <v>       0.00210526 </v>
   <v>       0.00210526 </v>
   <v>       0.00210526 </v>
   <v>       0.00210526 </v>
   <v>       0.00210526 </v>
   <v>       0.00210526 </v>
   <v>       0.00210526 </v>
   <v>       0.00210526 </v>
   <v>       0.00210526 </v>
   <v>       0.00210526 </v>
   <v>       0.00210526 </v>
   <v>       0.00210526 </v>
   <v>       0.00026316 </v>
   <v>       0.00052632 </v>
   <v>       0.00052632 </v>
   <v>       0.00052632 </v>
   <v>       0.00052632 </v>
   <v>       0.00052632 </v>
   <v>       0.00052632 </v>
   <v>       0.00052632 </v>
   <v>       0.00052632 </v>
   <v>       0.00052632 </v>
   <v>       0.00052632 </v>
   <v>       0.00052632 </v>
   <v>       0.00052632 </v>
   <v>       0.00052632 </v>
   <v>       0.00105263 </v>
   <v>       0.00105263 </v>
   <v>       0.00105263 </v>
   <v>       0.00105263 </v>
   <v>       0.00105263 </v>
   <v>       0.00105263 </v>
   <v>       0.00105263 </v>
   <v>       0.00105263 </v>
   <v>       0.00105263 </v>
   <v>       0.00105263 </v>
   <v>       0.00105263 </v>
   <v>       0.00105263 </v>
   <v>       0.00052632 </v>
   <v>       0.00105263 </v>
   <v>       0.00105263 </v>
   <v>       0.00105263 </v>
   <v>       0.00105263 </v>
   <v>       0.00105263 </v>
   <v>       0.00105263 </v>
   <v>       0.00105263 </v>
   <v>       0.00105263 </v>
   <v>       0.00105263 </v>
   <v>       0.00105263 </v>
   <v>       0.00105263 </v>
   <v>       0.00105263 </v>
   <v>       0.00052632 </v>
   <v>       0.00105263 </v>
   <v>       0.00105263 </v>
   <v>       0.00105263 </v>
   <v>       0.00105263 </v>
   <v>       0.00105263 </v>
   <v>       0.00105263 </v>
   <v>       0.00105263 </v>
   <v>       0.00105263 </v>
   <v>       0.00105263 </v>
   <v>       0.00105263 </v>
   <v>       0.00105263 </v>
   <v>       0.00105263 </v>
   <v>       0.00052632 </v>
   <v>       0.00105263 </v>
   <v>       0.00105263 </v>
   <v>       0.00105263 </v>
   <v>       0.00105263 </v>
   <v>       0.00105263 </v>
   <v>       0.00105263 </v>
   <v>       0.00105263 </v>
   <v>       0.00105263 </v>
   <v>       0.00105263 </v>
   <v>       0.00105263 </v>
   <v>       0.00105263 </v>
   <v>       0.00105263 </v>
   <v>       0.00052632 </v>
   <v>       0.00105263 </v>
   <v>       0.00105263 </v>
   <v>       0.00105263 </v>
   <v>       0.00105263 </v>
   <v>       0.00105263 </v>
   <v>       0.00105263 </v>
   <v>       0.00105263 </v>
   <v>       0.00105263 </v>
   <v>       0.00105263 </v>
   <v>       0.00105263 </v>
   <v>       0.00105263 </v>
   <v>       0.00105263 </v>
   <v>       0.00052632 </v>
   <v>       0.00105263 </v>
   <v>       0.00105263 </v>
   <v>       0.00105263 </v>
   <v>       0.00105263 </v>
   <v>       0.00105263 </v>
   <v>       0.00105263 </v>
   <v>       0.00105263 </v>
   <v>       0.00105263 </v>
   <v>       0.00105263 </v>
   <v>       0.00105263 </v>
   <v>       0.00105263 </v>
   <v>       0.00105263 </v>
   <v>       0.00052632 </v>
   <v>       0.00105263 </v>
   <v>       0.00105263 </v>
   <v>       0.00105263 </v>
   <v>       0.00105263 </v>
   <v>       0.00105263 </v>
   <v>       0.00105263 </v>
   <v>       0.00105263 </v>
   <v>       0.00105263 </v>
   <v>       0.00105263 </v>
   <v>       0.00105263 </v>
   <v>       0.00105263 </v>
   <v>       0.00105263 </v>
   <v>       0.00052632 </v>
   <v>       0.00105263 </v>
   <v>       0.00105263 </v>
   <v>       0.00105263 </v>
   <v>       0.00105263 </v>
   <v>       0.00105263 </v>
   <v>       0.00105263 </v>
   <v>       0.00105263 </v>
   <v>       0.00105263 </v>
   <v>       0.00105263 </v>
   <v>       0.00105263 </v>
   <v>       0.00105263 </v>
   <v>       0.00105263 </v>
   <v>       0.00052632 </v>
   <v>       0.00105263 </v>
   <v>       0.00105263 </v>
   <v>       0.00105263 </v>
   <v>       0.00105263 </v>
   <v>       0.00105263 </v>
   <v>       0.00105263 </v>
   <v>       0.00105263 </v>
   <v>       0.00105263 </v>
   <v>       0.00105263 </v>
   <v>       0.00105263 </v>
   <v>       0.00105263 </v>
   <v>       0.00105263 </v>
  </varray>
 </kpoints>
 <parameters>
  <separator name="general" >
   <i type="string" name="SYSTEM">unknown system</i>
   <i type="logical" name="LCOMPAT"> F  </i>
  </separator>
  <separator name="electronic" >
   <i type="string" name="PREC">accura</i>
   <i name="ENMAX">    500.00000000</i>
   <i name="ENAUG">    586.98000000</i>
   <i name="EDIFF">      0.00000100</i>
   <i type="int" name="IALGO">    68</i>
   <i type="int" name="IWAVPR">    11</i>
   <i type="int" name="NBANDS">    40</i>
   <i name="NELECT">     66.00000000</i>
   <i type="int" name="TURBO">     0</i>
   <i type="int" name="IRESTART">     0</i>
   <i type="int" name="NREBOOT">     0</i>
   <i type="int" name="NMIN">     0</i>
   <i name="EREF">      0.00000000</i>
   <separator name="electronic smearing" >
    <i type="int" name="ISMEAR">     1</i>
    <i name="SIGMA">      0.30000000</i>
    <i name="KSPACING">      0.50000000</i>
    <i type="logical" name="KGAMMA"> T  </i>
   </separator>
   <separator name="electronic projectors" >
    <i type="logical" name="LREAL"> F  </i>
    <v name="ROPT">      0.00000000      0.00000000      0.00000000</v>
    <i type="int" name="LMAXPAW">  -100</i>
    <i type="int" name="LMAXMIX">     2</i>
    <i type="logical" name="NLSPLINE"> F  </i>
   </separator>
   <separator name="electronic startup" >
    <i type="int" name="ISTART">     0</i>
    <i type="int" name="ICHARG">     2</i>
    <i type="int" name="INIWAV">     1</i>
   </separator>
   <separator name="electronic spin" >
    <i type="int" name="ISPIN">     1</i>
    <i type="logical" name="LNONCOLLINEAR"> F  </i>
    <v name="MAGMOM">      1.00000000      1.00000000      1.00000000      1.00000000      1.00000000      1.00000000</v>
    <i name="NUPDOWN">     -1.00000000</i>
    <i type="logical" name="LSORBIT"> F  </i>
    <v name="SAXIS">      0.00000000      0.00000000      1.00000000</v>
    <i type="logical" name="LSPIRAL"> F  </i>
    <v name="QSPIRAL">      0.00000000      0.00000000      0.00000000</v>
    <i type="logical" name="LZEROZ"> F  </i>
   </separator>
   <separator name="electronic exchange-correlation" >
    <i type="logical" name="LASPH"> F  </i>
    <i type="logical" name="LMETAGGA"> F  </i>
   </separator>
   <separator name="electronic convergence" >
    <i type="int" name="NELM">   200</i>
    <i type="int" name="NELMDL">     0</i>
    <i type="int" name="NELMIN">     4</i>
    <i name="ENINI">    500.00000000</i>
    <separator name="electronic convergence detail" >
     <i type="logical" name="LDIAG"> T  </i>
     <i type="logical" name="LSUBROT"> F  </i>
     <i name="WEIMIN">      0.00100000</i>
     <i name="EBREAK">      0.00000001</i>
     <i name="DEPER">      0.30000000</i>
     <i type="int" name="NRMM">     4</i>
     <i name="TIME">      0.40000000</i>
    </separator>
   </separator>
   <separator name="electronic mixer" >
    <i name="AMIX">      0.40000000</i>
    <i name="BMIX">      1.00000000</i>
    <i name="AMIN">      0.10000000</i>
    <i name="AMIX_MAG">      1.60000000</i>
    <i name="BMIX_MAG">      1.00000000</i>
    <separator name="electronic mixer details" >
     <i type="int" name="IMIX">     4</i>
     <i type="int" name="MAXMIX">   -45</i>
     <i name="WC">    100.00000000</i>
     <i type="int" name="INIMIX">     1</i>
     <i type="int" name="MIXPRE">     1</i>
     <i type="int" name="MREMOVE">     5</i>
    </separator>
   </separator>
   <separator name="electronic dipolcorrection" >
    <i type="logical" name="LDIPOL"> F  </i>
    <i type="logical" name="LMONO"> F  </i>
    <i type="int" name="IDIPOL">     0</i>
    <i name="EPSILON">      1.00000000</i>
    <v name="DIPOL">   -100.00000000   -100.00000000   -100.00000000</v>
    <i name="EFIELD">      0.00000000</i>
   </separator>
  </separator>
  <separator name="grids" >
   <i type="int" name="NGX">    24</i>
   <i type="int" name="NGY">    28</i>
   <i type="int" name="NGZ">    64</i>
   <i type="int" name="NGXF">    48</i>
   <i type="int" name="NGYF">    56</i>
   <i type="int" name="NGZF">   128</i>
   <i type="logical" name="ADDGRID"> T  </i>
  </separator>
  <separator name="ionic" >
   <i type="int" name="NSW">    30</i>
   <i type="int" name="IBRION">     2</i>
   <i type="int" name="ISIF">     3</i>
   <i name="PSTRESS">      0.00000000</i>
   <i name="EDIFFG">     -0.02000000</i>
   <i type="int" name="NFREE">     1</i>
   <i name="POTIM">      0.50000000</i>
   <i name="SMASS">     -3.00000000</i>
   <i name="SCALEE">      1.00000000</i>
  </separator>
  <separator name="ionic md" >
   <i name="TEBEG">      0.00010000</i>
   <i name="TEEND">      0.00010000</i>
   <i type="int" name="NBLOCK">     1</i>
   <i type="int" name="KBLOCK">    30</i>
   <i type="int" name="NPACO">   256</i>
   <i name="APACO">     16.00000000</i>
  </separator>
  <separator name="symmetry" >
   <i type="int" name="ISYM">     2</i>
   <i name="SYMPREC">      0.00001000</i>
  </separator>
  <separator name="dos" >
   <i type="logical" name="LORBIT"> F  </i>
   <v name="RWIGS">     -1.00000000     -1.00000000     -1.00000000</v>
   <i type="int" name="NEDOS">   301</i>
   <i name="EMIN">     10.00000000</i>
   <i name="EMAX">    -10.00000000</i>
   <i name="EFERMI">      0.00000000</i>
  </separator>
  <separator name="writing" >
   <i type="int" name="NWRITE">     2</i>
   <i type="logical" name="LWAVE"> F  </i>
   <i type="logical" name="LCHARG"> F  </i>
   <i type="logical" name="LPARD"> F  </i>
   <i type="logical" name="LVTOT"> F  </i>
   <i type="logical" name="LVHAR"> F  </i>
   <i type="logical" name="LELF"> F  </i>
   <i type="logical" name="LOPTICS"> F  </i>
   <v name="STM">      0.00000000      0.00000000      0.00000000      0.00000000      0.00000000      0.00000000      0.00000000</v>
  </separator>
  <separator name="performance" >
   <i type="int" name="NPAR">     4</i>
   <i type="int" name="NSIM">     4</i>
   <i type="int" name="NBLK">    -1</i>
   <i type="logical" name="LPLANE"> T  </i>
   <i type="logical" name="LSCALAPACK"> T  </i>
   <i type="logical" name="LSCAAWARE"> F  </i>
   <i type="logical" name="LSCALU"> F  </i>
   <i type="logical" name="LASYNC"> F  </i>
   <i type="logical" name="LORBITALREAL"> F  </i>
  </separator>
  <separator name="miscellaneous" >
   <i type="int" name="IDIOT">     3</i>
   <i type="logical" name="LMUSIC"> F  </i>
   <v name="POMASS">     63.54600000    107.86800000    196.96600000</v>
   <v name="DARWINR">      0.00000000      0.00000000      0.00000000</v>
   <v name="DARWINV">      1.00000000      1.00000000      1.00000000</v>
   <i type="logical" name="LCORR"> T  </i>
  </separator>
  <i type="logical" name="GGA_COMPAT"> T  </i>
  <i type="logical" name="LBERRY"> F  </i>
  <i type="int" name="ICORELEVEL">     0</i>
  <i type="logical" name="LDAU"> F  </i>
  <i type="int" name="I_CONSTRAINED_M">     0</i>
  <separator name="electronic exchange-correlation" >
   <i type="string" name="GGA">--</i>
   <i type="int" name="VOSKOWN">     0</i>
   <i type="logical" name="LHFCALC"> F  </i>
   <i type="string" name="PRECFOCK"></i>
   <i type="logical" name="LSYMGRAD"> F  </i>
   <i type="logical" name="LHFONE"> F  </i>
   <i type="logical" name="LRHFCALC"> F  </i>
   <i type="logical" name="LTHOMAS"> F  </i>
   <i type="logical" name="LMODELHF"> F  </i>
   <i name="ENCUT4O">     -1.00000000</i>
   <i type="int" name="EXXOEP">     0</i>
   <i type="int" name="FOURORBIT">     0</i>
   <i name="AEXX">      0.00000000</i>
   <i name="HFALPHA">      0.00000000</i>
   <i name="MCALPHA">      0.00000000</i>
   <i name="ALDAX">      1.00000000</i>
   <i name="AGGAX">      1.00000000</i>
   <i name="ALDAC">      1.00000000</i>
   <i name="AGGAC">      1.00000000</i>
   <i type="int" name="NKREDX">     1</i>
   <i type="int" name="NKREDY">     1</i>
   <i type="int" name="NKREDZ">     1</i>
   <i type="logical" name="SHIFTRED"> F  </i>
   <i type="logical" name="ODDONLY"> F  </i>
   <i type="logical" name="EVENONLY"> F  </i>
   <i type="int" name="LMAXFOCK">     0</i>
   <i type="int" name="NMAXFOCKAE">     0</i>
   <i type="logical" name="LFOCKAEDFT"> F  </i>
   <i name="HFSCREEN">      0.00000000</i>
   <i name="HFSCREENC">      0.00000000</i>
   <i type="int" name="NBANDSGWLOW">     0</i>
  </separator>
  <separator name="vdW DFT" >
   <i type="logical" name="LUSE_VDW"> F  </i>
   <i name="Zab_VDW">     -0.84910000</i>
   <i name="PARAM1">      0.12340000</i>
   <i name="PARAM2">      1.00000000</i>
   <i name="PARAM3">      0.00000000</i>
  </separator>
  <separator name="model GW" >
   <i type="int" name="MODEL_GW">     0</i>
   <i name="MODEL_EPS0">      9.02359664</i>
   <i name="MODEL_ALPHA">      1.00000000</i>
  </separator>
  <separator name="linear response parameters" >
   <i type="logical" name="LEPSILON"> F  </i>
   <i type="logical" name="LRPA"> F  </i>
   <i type="logical" name="LNABLA"> F  </i>
   <i type="logical" name="LVEL"> F  </i>
   <i type="int" name="KINTER">     0</i>
   <i name="CSHIFT">      0.10000000</i>
   <i name="OMEGAMAX">     -1.00000000</i>
   <i name="DEG_THRESHOLD">      0.00200000</i>
  </separator>
  <separator name="orbital magnetization" >
   <i type="logical" name="NUCIND"> F  </i>
   <v name="MAGPOS">      0.00000000      0.00000000      0.00000000</v>
   <i type="logical" name="LNICSALL"> T  </i>
   <i type="logical" name="ORBITALMAG"> F  </i>
   <i type="logical" name="LMAGBLOCH"> F  </i>
   <i type="logical" name="LCHIMAG"> F  </i>
   <i type="logical" name="LGAUGE"> T  </i>
   <i type="int" name="MAGATOM">     0</i>
   <v name="MAGDIPOL">      0.00000000      0.00000000      0.00000000</v>
   <v name="AVECCONST">      0.00000000      0.00000000      0.00000000</v>
  </separator>
  <separator name="response functions" >
   <i type="logical" name="LADDER"> F  </i>
   <i type="logical" name="LFXC"> F  </i>
   <i type="logical" name="LHARTREE"> T  </i>
   <i type="int" name="IBSE">     0</i>
   <i type="logical" name="LTCTE"> F  </i>
   <i type="logical" name="LTETE"> F  </i>
   <i type="logical" name="LTRIPLET"> F  </i>
   <i type="logical" name="LFXCEPS"> F  </i>
   <i type="logical" name="LFXHEG"> F  </i>
   <i type="logical" name="L2ORDER"> F  </i>
   <i type="logical" name="LUSEW"> F  </i>
   <i name="ENCUTGW">     -2.00000000</i>
   <i name="ENCUTGWSOFT">     -2.00000000</i>
   <i name="ENCUTLF">     -1.00000000</i>
   <i type="int" name="LMAXMP2">    -1</i>
   <i name="SCISSOR">      0.00000000</i>
   <i type="int" name="NOMEGA">     0</i>
   <i type="int" name="NOMEGAR">     0</i>
   <i type="int" name="NBANDSGW">    -1</i>
   <i type="int" name="NBANDSO">    -1</i>
   <i type="int" name="NBANDSV">    -1</i>
   <i type="int" name="NELM">   200</i>
   <i type="int" name="DIM">     3</i>
   <i type="int" name="ANTIRES">     0</i>
   <i name="OMEGAMAX">    -30.00000000</i>
   <i name="OMEGAMIN">    -30.00000000</i>
   <i name="OMEGATL">   -200.00000000</i>
   <i type="int" name="OMEGAGRID">     0</i>
   <i name="CSHIFT">     -0.10000000</i>
   <i type="logical" name="SELFENERGY"> F  </i>
   <i type="logical" name="LSPECTRAL"> F  </i>
   <i type="logical" name="ODDONLYGW"> F  </i>
   <i type="logical" name="EVENONLYGW"> F  </i>
   <i type="int" name="NKREDLFX">     1</i>
   <i type="int" name="NKREDLFY">     1</i>
   <i type="int" name="NKREDLFZ">     1</i>
   <i type="int" name="MAXMEM">  1800</i>
   <i type="int" name="TELESCOPE">     0</i>
   <i type="int" name="TAUPAR">     1</i>
  </separator>
  <separator name="External order field" >
   <i name="OFIELD_KAPPA">      0.00000000</i>
   <v name="OFIELD_K">      0.00000000      0.00000000      0.00000000</v>
   <i name="OFIELD_Q6_NEAR">      0.00000000</i>
   <i name="OFIELD_Q6_FAR">      0.00000000</i>
   <i name="OFIELD_A">      0.00000000</i>
  </separator>
 </parameters>
 <atominfo>
  <atoms>       6 </atoms>
  <types>       3 </types>
  <array name="atoms" >
   <dimension dim="1">ion</dimension>
   <field type="string">element</field>
   <field type="int">atomtype</field>
   <set>
    <rc><c>Cu</c><c>   1</c></rc>
    <rc><c>Cu</c><c>   1</c></rc>
    <rc><c>Cu</c><c>   1</c></rc>
    <rc><c>Ag</c><c>   2</c></rc>
    <rc><c>Ag</c><c>   2</c></rc>
    <rc><c>Au</c><c>   3</c></rc>
   </set>
  </array>
  <array name="atomtypes" >
   <dimension dim="1">type</dimension>
   <field type="int">atomspertype</field>
   <field type="string">element</field>
   <field>mass</field>
   <field>valence</field>
   <field type="string">pseudopotential</field>
   <set>
    <rc><c>   3</c><c>Cu</c><c>     63.54600000</c><c>     11.00000000</c><c>  PAW_PBE Cu 22Jun2005                  </c></rc>
    <rc><c>   2</c><c>Ag</c><c>    107.86800000</c><c>     11.00000000</c><c>  PAW_PBE Ag 02Apr2005                  </c></rc>
    <rc><c>   1</c><c>Au</c><c>    196.96600000</c><c>     11.00000000</c><c>  PAW_PBE Au 04Oct2007                  </c></rc>
   </set>
  </array>
 </atominfo>
 <structure name="initialpos" >
  <crystal>
   <varray name="basis" >
    <v>       0.00000000       1.99767525       1.99767525 </v>
    <v>       3.67660312       0.00000000       0.00000000 </v>
    <v>       0.00000000       6.14296497      -6.14296497 </v>
   </varray>
   <i name="volume">     90.23596644 </i>
   <varray name="rec_basis" >
    <v>       0.00000000       0.25029093       0.25029093 </v>
    <v>       0.27199020       0.00000000       0.00000000 </v>
    <v>       0.00000000       0.08139392      -0.08139392 </v>
   </varray>
  </crystal>
  <varray name="positions" >
   <v>       0.00000000       0.00000000       0.34469837 </v>
   <v>       0.00000000       0.00000000       0.67250180 </v>
   <v>       0.50000000       0.50000000       0.81682460 </v>
   <v>       0.50000000       0.50000000       0.17812957 </v>
   <v>       0.50000000       0.50000000       0.50805821 </v>
   <v>       0.00000000       0.00000000       0.97978745 </v>
  </varray>
 </structure>
 <calculation>
  <scstep>
   <time name="dav">   10.26   10.27</time>
   <time name="total">   10.34   10.35</time>
   <energy>
    <i name="alphaZ">    336.44697331 </i>
    <i name="ewald">  -6070.03429199 </i>
    <i name="hartreedc">  -1750.72865830 </i>
    <i name="XCdc">    131.44128068 </i>
    <i name="pawpsdc">   6565.64178164 </i>
    <i name="pawaedc">  -6767.85408466 </i>
    <i name="eentropy">      0.00200326 </i>
    <i name="bandstr">   1005.13391771 </i>
    <i name="atom">   7173.53671731 </i>
    <i name="e_fr_energy">    623.58563896 </i>
    <i name="e_wo_entrp">    623.58363570 </i>
    <i name="e_0_energy">    623.58497120 </i>
   </energy>
  </scstep>
  <scstep>
   <time name="dav">   10.38   10.38</time>
   <time name="total">   10.42   10.43</time>
   <energy>
    <i name="e_fr_energy">     47.54601567 </i>
    <i name="e_wo_entrp">     47.54758272 </i>
    <i name="e_0_energy">     47.54653802 </i>
   </energy>
  </scstep>
  <scstep>
   <time name="dav">   11.86   11.86</time>
   <time name="total">   11.90   11.92</time>
   <energy>
    <i name="e_fr_energy">    -20.47486418 </i>
    <i name="e_wo_entrp">    -20.47616206 </i>
    <i name="e_0_energy">    -20.47529680 </i>
   </energy>
  </scstep>
  <scstep>
   <time name="dav">   13.42   13.42</time>
   <time name="total">   13.46   13.47</time>
   <energy>
    <i name="e_fr_energy">    -22.58349360 </i>
    <i name="e_wo_entrp">    -22.58471229 </i>
    <i name="e_0_energy">    -22.58389983 </i>
   </energy>
  </scstep>
  <scstep>
   <time name="dav">   14.37   14.38</time>
   <time name="total">   15.03   15.05</time>
   <energy>
    <i name="e_fr_energy">    -22.60704169 </i>
    <i name="e_wo_entrp">    -22.60825530 </i>
    <i name="e_0_energy">    -22.60744623 </i>
   </energy>
  </scstep>
  <scstep>
   <time name="diag">    2.83    2.83</time>
   <time name="diis">    4.64    4.64</time>
   <time name="orth">    0.40    0.40</time>
   <time name="total">    8.58    8.60</time>
   <energy>
    <i name="e_fr_energy">    -21.40314256 </i>
    <i name="e_wo_entrp">    -21.40413953 </i>
    <i name="e_0_energy">    -21.40347489 </i>
   </energy>
  </scstep>
  <scstep>
   <time name="diag">    2.59    2.59</time>
   <time name="diis">    4.77    4.77</time>
   <time name="orth">    0.38    0.38</time>
   <time name="total">    8.45    8.46</time>
   <energy>
    <i name="e_fr_energy">    -19.69811847 </i>
    <i name="e_wo_entrp">    -19.69795918 </i>
    <i name="e_0_energy">    -19.69806537 </i>
   </energy>
  </scstep>
  <scstep>
   <time name="diag">    2.59    2.59</time>
   <time name="diis">    4.81    4.81</time>
   <time name="orth">    0.39    0.39</time>
   <time name="total">    8.51    8.53</time>
   <energy>
    <i name="e_fr_energy">    -19.59859900 </i>
    <i name="e_wo_entrp">    -19.59872689 </i>
    <i name="e_0_energy">    -19.59864163 </i>
   </energy>
  </scstep>
  <scstep>
   <time name="diag">    2.85    2.85</time>
   <time name="diis">    4.65    4.65</time>
   <time name="orth">    0.39    0.39</time>
   <time name="total">    8.60    8.62</time>
   <energy>
    <i name="e_fr_energy">    -19.63851961 </i>
    <i name="e_wo_entrp">    -19.63840322 </i>
    <i name="e_0_energy">    -19.63848081 </i>
   </energy>
  </scstep>
  <scstep>
   <time name="diag">    2.59    2.59</time>
   <time name="diis">    4.66    4.66</time>
   <time name="orth">    0.39    0.39</time>
   <time name="total">    8.35    8.37</time>
   <energy>
    <i name="e_fr_energy">    -19.57717013 </i>
    <i name="e_wo_entrp">    -19.57719084 </i>
    <i name="e_0_energy">    -19.57717703 </i>
   </energy>
  </scstep>
  <scstep>
   <time name="diag">    2.58    2.58</time>
   <time name="diis">    5.03    5.03</time>
   <time name="orth">    0.38    0.38</time>
   <time name="total">    8.72    8.73</time>
   <energy>
    <i name="e_fr_energy">    -19.57610545 </i>
    <i name="e_wo_entrp">    -19.57611860 </i>
    <i name="e_0_energy">    -19.57610983 </i>
   </energy>
  </scstep>
  <scstep>
   <time name="diag">    2.85    2.85</time>
   <time name="diis">    5.86    5.88</time>
   <time name="orth">    0.40    0.40</time>
   <time name="total">    9.84    9.87</time>
   <energy>
    <i name="e_fr_energy">    -19.57619078 </i>
    <i name="e_wo_entrp">    -19.57622126 </i>
    <i name="e_0_energy">    -19.57620094 </i>
   </energy>
  </scstep>
  <scstep>
   <time name="diag">    2.59    2.59</time>
[...]
       <r>    5.2953    1.0000 </r>
       <r>    5.3635    1.0000 </r>
       <r>    5.4529    1.0000 </r>
       <r>    5.5414    1.0000 </r>
       <r>    5.6936    1.0000 </r>
       <r>    5.8630    1.0000 </r>
       <r>    5.9733    1.0000 </r>
       <r>    6.0220    1.0000 </r>
       <r>    6.1216    1.0000 </r>
       <r>    7.6524    0.8670 </r>
       <r>    7.9783    0.0836 </r>
       <r>    8.2551   -0.0270 </r>
       <r>    8.5191   -0.0018 </r>
       <r>   11.5628    0.0000 </r>
       <r>   12.1609    0.0000 </r>
       <r>   12.2386    0.0000 </r>
       <r>   12.4492    0.0000 </r>
       <r>   12.6934    0.0000 </r>
       <r>   12.9197    0.0000 </r>
      </set>
      <set comment="kpoint 649">
       <r>    1.6407    1.0000 </r>
       <r>    1.6844    1.0000 </r>
       <r>    1.8836    1.0000 </r>
       <r>    2.0104    1.0000 </r>
       <r>    2.1233    1.0000 </r>
       <r>    2.5869    1.0000 </r>
       <r>    2.6544    1.0000 </r>
       <r>    2.7482    1.0000 </r>
       <r>    3.4336    1.0000 </r>
       <r>    3.4467    1.0000 </r>
       <r>    3.5680    1.0000 </r>
       <r>    3.8228    1.0000 </r>
       <r>    3.9816    1.0000 </r>
       <r>    4.3178    1.0000 </r>
       <r>    4.3716    1.0000 </r>
       <r>    4.7790    1.0000 </r>
       <r>    4.8151    1.0000 </r>
       <r>    4.8751    1.0000 </r>
       <r>    5.0687    1.0000 </r>
       <r>    5.0999    1.0000 </r>
       <r>    5.2519    1.0000 </r>
       <r>    5.3271    1.0000 </r>
       <r>    5.3690    1.0000 </r>
       <r>    5.4739    1.0000 </r>
       <r>    5.5660    1.0000 </r>
       <r>    5.6814    1.0000 </r>
       <r>    5.9442    1.0000 </r>
       <r>    6.0318    1.0000 </r>
       <r>    6.0752    1.0000 </r>
       <r>    6.1629    1.0000 </r>
       <r>    8.0808   -0.0168 </r>
       <r>    8.3993   -0.0081 </r>
       <r>    8.5567   -0.0011 </r>
       <r>    8.8465    0.0000 </r>
       <r>   11.2152    0.0000 </r>
       <r>   11.7703    0.0000 </r>
       <r>   11.9230    0.0000 </r>
       <r>   12.4938    0.0000 </r>
       <r>   12.6657    0.0000 </r>
       <r>   12.9710    0.0000 </r>
      </set>
      <set comment="kpoint 650">
       <r>    1.6152    1.0000 </r>
       <r>    1.6509    1.0000 </r>
       <r>    1.8632    1.0000 </r>
       <r>    1.9752    1.0000 </r>
       <r>    2.0942    1.0000 </r>
       <r>    2.5677    1.0000 </r>
       <r>    2.6640    1.0000 </r>
       <r>    2.7643    1.0000 </r>
       <r>    3.4604    1.0000 </r>
       <r>    3.4678    1.0000 </r>
       <r>    3.5674    1.0000 </r>
       <r>    3.8311    1.0000 </r>
       <r>    3.9816    1.0000 </r>
       <r>    4.3261    1.0000 </r>
       <r>    4.3771    1.0000 </r>
       <r>    4.7708    1.0000 </r>
       <r>    4.8180    1.0000 </r>
       <r>    4.9709    1.0000 </r>
       <r>    5.0884    1.0000 </r>
       <r>    5.1827    1.0000 </r>
       <r>    5.3045    1.0000 </r>
       <r>    5.3655    1.0000 </r>
       <r>    5.3995    1.0000 </r>
       <r>    5.4541    1.0000 </r>
       <r>    5.5805    1.0000 </r>
       <r>    5.6725    1.0000 </r>
       <r>    5.9983    1.0000 </r>
       <r>    6.0636    1.0000 </r>
       <r>    6.1044    1.0000 </r>
       <r>    6.1885    1.0000 </r>
       <r>    8.4843   -0.0029 </r>
       <r>    8.6884   -0.0001 </r>
       <r>    8.7928    0.0000 </r>
       <r>    8.9954    0.0000 </r>
       <r>   10.8114    0.0000 </r>
       <r>   11.3913    0.0000 </r>
       <r>   11.5192    0.0000 </r>
       <r>   12.2558    0.0000 </r>
       <r>   13.0792    0.0000 </r>
       <r>   13.4024    0.0000 </r>
      </set>
     </set>
    </set>
   </array>
  </eigenvalues>
  <separator name="orbital magnetization" >
   <v name="MAGDIPOLOUT">      0.00000000      0.00000000      0.00000000</v>
  </separator>
  <dos>
   <i name="efermi">      7.80066602 </i>
   <total>
    <array>
     <dimension dim="1">gridpoints</dimension>
     <dimension dim="2">spin</dimension>
     <field>energy</field>
     <field>total</field>
     <field>integrated</field>
     <set>
      <set comment="spin 1">
       <r>    -3.8968     0.0000     0.0000 </r>
       <r>    -3.8199     0.0000     0.0000 </r>
       <r>    -3.7430     0.0000     0.0000 </r>
       <r>    -3.6661     0.0000     0.0000 </r>
       <r>    -3.5892     0.0000     0.0000 </r>
       <r>    -3.5123     0.0000     0.0000 </r>
       <r>    -3.4354     0.0000     0.0000 </r>
       <r>    -3.3585     0.0000     0.0000 </r>
       <r>    -3.2816     0.0000     0.0000 </r>
       <r>    -3.2047     0.0000     0.0000 </r>
       <r>    -3.1278     0.0000     0.0000 </r>
       <r>    -3.0509     0.0000     0.0000 </r>
       <r>    -2.9740     0.0000     0.0000 </r>
       <r>    -2.8971     0.0000     0.0000 </r>
       <r>    -2.8202     0.0000     0.0000 </r>
       <r>    -2.7433     0.0000     0.0000 </r>
       <r>    -2.6664     0.0000     0.0000 </r>
       <r>    -2.5895     0.0000     0.0000 </r>
       <r>    -2.5126     0.0000     0.0000 </r>
       <r>    -2.4357     0.0000     0.0000 </r>
       <r>    -2.3588     0.0000     0.0000 </r>
       <r>    -2.2819     0.0000     0.0000 </r>
       <r>    -2.2050     0.0000     0.0000 </r>
       <r>    -2.1281     0.0000     0.0000 </r>
       <r>    -2.0512     0.0000     0.0000 </r>
       <r>    -1.9743     0.0000     0.0000 </r>
       <r>    -1.8974     0.0000     0.0000 </r>
       <r>    -1.8205     0.0000     0.0000 </r>
       <r>    -1.7435     0.0000     0.0000 </r>
       <r>    -1.6666    -0.0001     0.0000 </r>
       <r>    -1.5897    -0.0002     0.0000 </r>
       <r>    -1.5128    -0.0006    -0.0001 </r>
       <r>    -1.4359    -0.0016    -0.0002 </r>
       <r>    -1.3590    -0.0034    -0.0004 </r>
       <r>    -1.2821    -0.0061    -0.0009 </r>
       <r>    -1.2052    -0.0089    -0.0016 </r>
       <r>    -1.1283    -0.0088    -0.0023 </r>
       <r>    -1.0514    -0.0011    -0.0024 </r>
       <r>    -0.9745     0.0201    -0.0008 </r>
       <r>    -0.8976     0.0590     0.0037 </r>
       <r>    -0.8207     0.1152     0.0126 </r>
       <r>    -0.7438     0.1831     0.0267 </r>
       <r>    -0.6669     0.2529     0.0461 </r>
       <r>    -0.5900     0.3146     0.0703 </r>
       <r>    -0.5131     0.3613     0.0981 </r>
       <r>    -0.4362     0.3909     0.1281 </r>
       <r>    -0.3593     0.4062     0.1594 </r>
       <r>    -0.2824     0.4122     0.1911 </r>
       <r>    -0.2055     0.4152     0.2230 </r>
       <r>    -0.1286     0.4207     0.2554 </r>
       <r>    -0.0517     0.4331     0.2887 </r>
       <r>     0.0252     0.4551     0.3237 </r>
       <r>     0.1021     0.4873     0.3611 </r>
       <r>     0.1790     0.5280     0.4017 </r>
       <r>     0.2559     0.5745     0.4459 </r>
       <r>     0.3328     0.6236     0.4939 </r>
       <r>     0.4097     0.6742     0.5457 </r>
       <r>     0.4866     0.7281     0.6017 </r>
       <r>     0.5635     0.7902     0.6625 </r>
       <r>     0.6404     0.8645     0.7290 </r>
       <r>     0.7173     0.9500     0.8020 </r>
       <r>     0.7942     1.0371     0.8818 </r>
       <r>     0.8711     1.1094     0.9671 </r>
       <r>     0.9480     1.1508     1.0556 </r>
       <r>     1.0249     1.1556     1.1445 </r>
       <r>     1.1018     1.1409     1.2322 </r>
       <r>     1.1787     1.1605     1.3215 </r>
       <r>     1.2556     1.3090     1.4221 </r>
       <r>     1.3325     1.6982     1.5527 </r>
       <r>     1.4094     2.4011     1.7374 </r>
       <r>     1.4863     3.3918     1.9982 </r>
       <r>     1.5633     4.5380     2.3472 </r>
       <r>     1.6402     5.6722     2.7834 </r>
       <r>     1.7171     6.6986     3.2985 </r>
       <r>     1.7940     7.6436     3.8863 </r>
       <r>     1.8709     8.6002     4.5477 </r>
       <r>     1.9478     9.6108     5.2868 </r>
       <r>     2.0247    10.5946     6.1016 </r>
       <r>     2.1016    11.3851     6.9771 </r>
       <r>     2.1785    11.8451     7.8880 </r>
       <r>     2.2554    11.9692     8.8085 </r>
       <r>     2.3323    11.8955     9.7232 </r>
       <r>     2.4092    11.8199    10.6322 </r>
       <r>     2.4861    11.8741    11.5454 </r>
       <r>     2.5630    12.0533    12.4723 </r>
       <r>     2.6399    12.2429    13.4138 </r>
       <r>     2.7168    12.3106    14.3605 </r>
       <r>     2.7937    12.1845    15.2975 </r>
       <r>     2.8706    11.8671    16.2101 </r>
       <r>     2.9475    11.4093    17.0875 </r>
       <r>     3.0244    10.8974    17.9256 </r>
       <r>     3.1013    10.4573    18.7298 </r>
       <r>     3.1782    10.2403    19.5173 </r>
       <r>     3.2551    10.3582    20.3138 </r>
       <r>     3.3320    10.8056    21.1448 </r>
       <r>     3.4089    11.4375    22.0244 </r>
       <r>     3.4858    12.0344    22.9499 </r>
       <r>     3.5627    12.4115    23.9043 </r>
       <r>     3.6396    12.4836    24.8644 </r>
       <r>     3.7165    12.2482    25.8063 </r>
       <r>     3.7934    11.7298    26.7083 </r>
       <r>     3.8703    10.9658    27.5516 </r>
       <r>     3.9472    10.0498    28.3245 </r>
       <r>     4.0241     9.1582    29.0288 </r>
       <r>     4.1010     8.4837    29.6812 </r>
       <r>     4.1779     8.1144    30.3052 </r>
       <r>     4.2548     7.9799    30.9189 </r>
       <r>     4.3317     7.9329    31.5289 </r>
       <r>     4.4086     7.8906    32.1357 </r>
       <r>     4.4855     7.9027    32.7435 </r>
       <r>     4.5624     8.0999    33.3664 </r>
       <r>     4.6393     8.5895    34.0269 </r>
       <r>     4.7162     9.3945    34.7494 </r>
       <r>     4.7931    10.4603    35.5538 </r>
       <r>     4.8701    11.6941    36.4531 </r>
       <r>     4.9470    12.9967    37.4526 </r>
       <r>     5.0239    14.2745    38.5503 </r>
       <r>     5.1008    15.4428    39.7379 </r>
       <r>     5.1777    16.4383    41.0021 </r>
       <r>     5.2546    17.2462    42.3283 </r>
       <r>     5.3315    17.9176    43.7062 </r>
       <r>     5.4084    18.5476    45.1326 </r>
       <r>     5.4853    19.2236    46.6109 </r>
       <r>     5.5622    19.9905    48.1483 </r>
       <r>     5.6391    20.8603    49.7525 </r>
       <r>     5.7160    21.8235    51.4307 </r>
       <r>     5.7929    22.8095    53.1848 </r>
       <r>     5.8698    23.6025    54.9999 </r>
       <r>     5.9467    23.8001    56.8302 </r>
       <r>     6.0236    22.9117    58.5922 </r>
       <r>     6.1005    20.6031    60.1766 </r>
       <r>     6.1774    16.9587    61.4808 </r>
       <r>     6.2543    12.5627    62.4469 </r>
       <r>     6.3312     8.2906    63.0844 </r>
       <r>     6.4081     4.9147    63.4624 </r>
       <r>     6.4850     2.7836    63.6765 </r>
       <r>     6.5619     1.7722    63.8127 </r>
       <r>     6.6388     1.4859    63.9270 </r>
       <r>     6.7157     1.5277    64.0445 </r>
       <r>     6.7926     1.6525    64.1716 </r>
       <r>     6.8695     1.7673    64.3075 </r>
       <r>     6.9464     1.8550    64.4501 </r>
       <r>     7.0233     1.9093    64.5970 </r>
       <r>     7.1002     1.9191    64.7445 </r>
       <r>     7.1771     1.8827    64.8893 </r>
       <r>     7.2540     1.8201    65.0293 </r>
       <r>     7.3309     1.7647    65.1650 </r>
       <r>     7.4078     1.7426    65.2990 </r>
       <r>     7.4847     1.7573    65.4342 </r>
       <r>     7.5616     1.7896    65.5718 </r>
       <r>     7.6385     1.8117    65.7111 </r>
       <r>     7.7154     1.8041    65.8498 </r>
       <r>     7.7923     1.7648    65.9856 </r>
       <r>     7.8692     1.7088    66.1170 </r>
       <r>     7.9461     1.6589    66.2445 </r>
       <r>     8.0230     1.6358    66.3703 </r>
       <r>     8.0999     1.6513    66.4973 </r>
       <r>     8.1768     1.7012    66.6281 </r>
       <r>     8.2538     1.7621    66.7637 </r>
       <r>     8.3307     1.7992    66.9020 </r>
       <r>     8.4076     1.7851    67.0393 </r>
       <r>     8.4845     1.7192    67.1715 </r>
       <r>     8.5614     1.6311    67.2969 </r>
       <r>     8.6383     1.5636    67.4172 </r>
       <r>     8.7152     1.5465    67.5361 </r>
       <r>     8.7921     1.5792    67.6576 </r>
       <r>     8.8690     1.6343    67.7832 </r>
       <r>     8.9459     1.6787    67.9123 </r>
       <r>     9.0228     1.6950    68.0427 </r>
       <r>     9.0997     1.6858    68.1723 </r>
       <r>     9.1766     1.6610    68.3001 </r>
       <r>     9.2535     1.6246    68.4250 </r>
       <r>     9.3304     1.5746    68.5461 </r>
       <r>     9.4073     1.5139    68.6625 </r>
       <r>     9.4842     1.4565    68.7745 </r>
       <r>     9.5611     1.4221    68.8839 </r>
       <r>     9.6380     1.4214    68.9932 </r>
       <r>     9.7149     1.4462    69.1044 </r>
       <r>     9.7918     1.4712    69.2175 </r>
       <r>     9.8687     1.4684    69.3305 </r>
       <r>     9.9456     1.4255    69.4401 </r>
       <r>    10.0225     1.3554    69.5443 </r>
       <r>    10.0994     1.2889    69.6434 </r>
       <r>    10.1763     1.2525    69.7397 </r>
       <r>    10.2532     1.2493    69.8358 </r>
       <r>    10.3301     1.2584    69.9326 </r>
       <r>    10.4070     1.2543    70.0291 </r>
       <r>    10.4839     1.2300    70.1237 </r>
       <r>    10.5608     1.2032    70.2162 </r>
       <r>    10.6377     1.2011    70.3085 </r>
       <r>    10.7146     1.2383    70.4038 </r>
       <r>    10.7915     1.3063    70.5042 </r>
       <r>    10.8684     1.3800    70.6104 </r>
       <r>    10.9453     1.4375    70.7209 </r>
       <r>    11.0222     1.4745    70.8343 </r>
       <r>    11.0991     1.5041    70.9500 </r>
       <r>    11.1760     1.5400    71.0684 </r>
       <r>    11.2529     1.5816    71.1900 </r>
       <r>    11.3298     1.6137    71.3141 </r>
       <r>    11.4067     1.6231    71.4389 </r>
       <r>    11.4836     1.6155    71.5632 </r>
       <r>    11.5606     1.6149    71.6874 </r>
       <r>    11.6375     1.6467    71.8140 </r>
       <r>    11.7144     1.7153    71.9459 </r>
       <r>    11.7913     1.8000    72.0843 </r>
       <r>    11.8682     1.8703    72.2282 </r>
       <r>    11.9451     1.9073    72.3748 </r>
       <r>    12.0220     1.9127    72.5219 </r>
       <r>    12.0989     1.8995    72.6680 </r>
       <r>    12.1758     1.8777    72.8124 </r>
       <r>    12.2527     1.8482    72.9545 </r>
       <r>    12.3296     1.8079    73.0936 </r>
       <r>    12.4065     1.7600    73.2289 </r>
       <r>    12.4834     1.7172    73.3610 </r>
       <r>    12.5603     1.6952    73.4913 </r>
       <r>    12.6372     1.7016    73.6222 </r>
       <r>    12.7141     1.7289    73.7551 </r>
       <r>    12.7910     1.7594    73.8904 </r>
       <r>    12.8679     1.7774    74.0271 </r>
       <r>    12.9448     1.7785    74.1639 </r>
       <r>    13.0217     1.7703    74.3000 </r>
       <r>    13.0986     1.7643    74.4357 </r>
       <r>    13.1755     1.7683    74.5717 </r>
       <r>    13.2524     1.7816    74.7087 </r>
       <r>    13.3293     1.7970    74.8469 </r>
       <r>    13.4062     1.8048    74.9857 </r>
       <r>    13.4831     1.7997    75.1241 </r>
       <r>    13.5600     1.7873    75.2616 </r>
       <r>    13.6369     1.7862    75.3989 </r>
       <r>    13.7138     1.8190    75.5388 </r>
       <r>    13.7907     1.8962    75.6846 </r>
       <r>    13.8676     2.0035    75.8387 </r>
       <r>    13.9445     2.1076    76.0008 </r>
       <r>    14.0214     2.1751    76.1681 </r>
       <r>    14.0983     2.1919    76.3366 </r>
       <r>    14.1752     2.1668    76.5033 </r>
       <r>    14.2521     2.1200    76.6663 </r>
       <r>    14.3290     2.0693    76.8254 </r>
       <r>    14.4059     2.0226    76.9810 </r>
       <r>    14.4828     1.9792    77.1332 </r>
       <r>    14.5597     1.9339    77.2819 </r>
       <r>    14.6366     1.8815    77.4266 </r>
       <r>    14.7135     1.8196    77.5665 </r>
       <r>    14.7904     1.7513    77.7012 </r>
       <r>    14.8674     1.6853    77.8308 </r>
       <r>    14.9443     1.6304    77.9562 </r>
       <r>    15.0212     1.5912    78.0785 </r>
       <r>    15.0981     1.5652    78.1989 </r>
       <r>    15.1750     1.5455    78.3178 </r>
       <r>    15.2519     1.5262    78.4351 </r>
       <r>    15.3288     1.5078    78.5511 </r>
       <r>    15.4057     1.4991    78.6664 </r>
       <r>    15.4826     1.5160    78.7830 </r>
       <r>    15.5595     1.5762    78.9042 </r>
       <r>    15.6364     1.6904    79.0342 </r>
       <r>    15.7133     1.8501    79.1765 </r>
       <r>    15.7902     2.0159    79.3315 </r>
       <r>    15.8671     2.1165    79.4942 </r>
       <r>    15.9440     2.0702    79.6534 </r>
       <r>    16.0209     1.8279    79.7940 </r>
       <r>    16.0978     1.4115    79.9026 </r>
       <r>    16.1747     0.9163    79.9730 </r>
       <r>    16.2516     0.4642    80.0087 </r>
       <r>    16.3285     0.1434    80.0198 </r>
       <r>    16.4054    -0.0258    80.0178 </r>
       <r>    16.4823    -0.0788    80.0117 </r>
       <r>    16.5592    -0.0707    80.0063 </r>
       <r>    16.6361    -0.0447    80.0028 </r>
       <r>    16.7130    -0.0226    80.0011 </r>
       <r>    16.7899    -0.0095    80.0004 </r>
       <r>    16.8668    -0.0034    80.0001 </r>
       <r>    16.9437    -0.0011    80.0000 </r>
       <r>    17.0206    -0.0003    80.0000 </r>
       <r>    17.0975    -0.0001    80.0000 </r>
       <r>    17.1744     0.0000    80.0000 </r>
       <r>    17.2513     0.0000    80.0000 </r>
       <r>    17.3282     0.0000    80.0000 </r>
       <r>    17.4051     0.0000    80.0000 </r>
       <r>    17.4820     0.0000    80.0000 </r>
       <r>    17.5589     0.0000    80.0000 </r>
       <r>    17.6358     0.0000    80.0000 </r>
       <r>    17.7127     0.0000    80.0000 </r>
       <r>    17.7896     0.0000    80.0000 </r>
       <r>    17.8665     0.0000    80.0000 </r>
       <r>    17.9434     0.0000    80.0000 </r>
       <r>    18.0203     0.0000    80.0000 </r>
       <r>    18.0972     0.0000    80.0000 </r>
       <r>    18.1742     0.0000    80.0000 </r>
       <r>    18.2511     0.0000    80.0000 </r>
       <r>    18.3280     0.0000    80.0000 </r>
       <r>    18.4049     0.0000    80.0000 </r>
       <r>    18.4818     0.0000    80.0000 </r>
       <r>    18.5587     0.0000    80.0000 </r>
       <r>    18.6356     0.0000    80.0000 </r>
       <r>    18.7125     0.0000    80.0000 </r>
       <r>    18.7894     0.0000    80.0000 </r>
       <r>    18.8663     0.0000    80.0000 </r>
       <r>    18.9432     0.0000    80.0000 </r>
       <r>    19.0201     0.0000    80.0000 </r>
       <r>    19.0970     0.0000    80.0000 </r>
       <r>    19.1739     0.0000    80.0000 </r>
      </set>
     </set>
    </array>
   </total>
  </dos>
 </calculation>
 <structure name="finalpos" >
  <crystal>
   <varray name="basis" >
    <v>       0.00000000       1.99767525       1.99767525 </v>
    <v>       3.67660312       0.00000000       0.00000000 </v>
    <v>       0.00000000       6.14296497      -6.14296497 </v>
   </varray>
   <i name="volume">     90.23596644 </i>
   <varray name="rec_basis" >
    <v>       0.00000000       0.25029093       0.25029093 </v>
    <v>       0.27199020       0.00000000       0.00000000 </v>
    <v>       0.00000000       0.08139392      -0.08139392 </v>
   </varray>
  </crystal>
  <varray name="positions" >
   <v>       0.00000000       0.00000000       0.34469837 </v>
   <v>       0.00000000       0.00000000       0.67250180 </v>
   <v>       0.50000000       0.50000000       0.81682460 </v>
   <v>       0.50000000       0.50000000       0.17812957 </v>
   <v>       0.50000000       0.50000000       0.50805821 </v>
   <v>       0.00000000       0.00000000       0.97978745 </v>
  </varray>
 </structure>
</modeling>
