<?xml version="1.0" encoding="ISO-8859-1"?>
<modeling>
 <generator>
  <i name="program" type="string">vasp </i>
  <i name="version" type="string">5.3.5  </i>
  <i name="subversion" type="string">31Mar14 (build Jun 20 2014 13:15:13) complex                          parallel </i>
  <i name="platform" type="string">LinuxIFC </i>
  <i name="date" type="string">2025 11 26 </i>
  <i name="time" type="string">17:56:35 </i>
 </generator>
 <incar>
  <i type="string" name="PREC">accurate</i>
  <i type="int" name="IALGO">    68</i>
  <i type="logical" name="ADDGRID"> T  </i>
  <i type="int" name="NELM">   200</i>
  <i type="int" name="NELMIN">     4</i>
  <i type="int" name="IBRION">     2</i>
  <i name="EDIFF">      0.00000100</i>
  <i name="EDIFFG">     -0.02000000</i>
  <i type="int" name="NSW">    30</i>
  <i type="int" name="ISIF">     3</i>
  <i name="ENCUT">    500.00000000</i>
  <i type="logical" name="LREAL"> F  </i>
  <i type="int" name="ISMEAR">     1</i>
  <i name="SIGMA">      0.30000000</i>
  <i type="logical" name="LWAVE"> F  </i>
  <i type="logical" name="LCHARG"> F  </i>
  <i type="int" name="NELM">   200</i>
 </incar>
 <kpoints>
  <generation param="Auto">
   <i name="subdivisionlength">     70.00000000 </i>
   <v type="int" name="divisions">      26       19       13 </v>
   <v name="usershift">      0.00000000       0.00000000       0.00000000 </v>
   <v name="genvec1">      0.03846154       0.00000000       0.00000000 </v>
   <v name="genvec2">      0.00000000       0.05263158       0.00000000 </v>
   <v name="genvec3">      0.00000000       0.00000000       0.07692308 </v>
   <v name="shift">      0.00000000       0.00000000       0.00000000 </v>
  </generation>
  <varray name="kpointlist" >
   <v>       0.00000000       0.00000000       0.00000000 </v>
   <v>       0.03846154       0.00000000       0.00000000 </v>
   <v>       0.07692308       0.00000000       0.00000000 </v>
   <v>       0.11538462       0.00000000       0.00000000 </v>
   <v>       0.15384615       0.00000000       0.00000000 </v>
   <v>       0.19230769       0.00000000       0.00000000 </v>
   <v>       0.23076923       0.00000000       0.00000000 </v>
   <v>       0.26923077       0.00000000       0.00000000 </v>
   <v>       0.30769231       0.00000000       0.00000000 </v>
   <v>       0.34615385       0.00000000       0.00000000 </v>
   <v>       0.38461538       0.00000000       0.00000000 </v>
   <v>       0.42307692       0.00000000       0.00000000 </v>
   <v>       0.46153846       0.00000000       0.00000000 </v>
   <v>       0.50000000       0.00000000       0.00000000 </v>
   <v>       0.00000000       0.05263158       0.00000000 </v>
   <v>       0.03846154       0.05263158       0.00000000 </v>
   <v>       0.07692308       0.05263158       0.00000000 </v>
   <v>       0.11538462       0.05263158       0.00000000 </v>
   <v>       0.15384615       0.05263158       0.00000000 </v>
   <v>       0.19230769       0.05263158       0.00000000 </v>
   <v>       0.23076923       0.05263158       0.00000000 </v>
   <v>       0.26923077       0.05263158       0.00000000 </v>
   <v>       0.30769231       0.05263158       0.00000000 </v>
   <v>       0.34615385       0.05263158       0.00000000 </v>
   <v>       0.38461538       0.05263158       0.00000000 </v>
   <v>       0.42307692       0.05263158       0.00000000 </v>
   <v>       0.46153846       0.05263158       0.00000000 </v>
   <v>       0.50000000       0.05263158       0.00000000 </v>
   <v>       0.00000000       0.10526316       0.00000000 </v>
   <v>       0.03846154       0.10526316       0.00000000 </v>
   <v>       0.07692308       0.10526316       0.00000000 </v>
   <v>       0.11538462       0.10526316       0.00000000 </v>
   <v>       0.15384615       0.10526316       0.00000000 </v>
   <v>       0.19230769       0.10526316       0.00000000 </v>
   <v>       0.23076923       0.10526316       0.00000000 </v>
   <v>       0.26923077       0.10526316       0.00000000 </v>
   <v>       0.30769231       0.10526316       0.00000000 </v>
   <v>       0.34615385       0.10526316       0.00000000 </v>
   <v>       0.38461538       0.10526316       0.00000000 </v>
   <v>       0.42307692       0.10526316       0.00000000 </v>
   <v>       0.46153846       0.10526316       0.00000000 </v>
   <v>       0.50000000       0.10526316       0.00000000 </v>
   <v>       0.00000000       0.15789474       0.00000000 </v>
   <v>       0.03846154       0.15789474       0.00000000 </v>
   <v>       0.07692308       0.15789474       0.00000000 </v>
   <v>       0.11538462       0.15789474       0.00000000 </v>
   <v>       0.15384615       0.15789474       0.00000000 </v>
   <v>       0.19230769       0.15789474       0.00000000 </v>
   <v>       0.23076923       0.15789474       0.00000000 </v>
   <v>       0.26923077       0.15789474       0.00000000 </v>
   <v>       0.30769231       0.15789474       0.00000000 </v>
   <v>       0.34615385       0.15789474       0.00000000 </v>
   <v>       0.38461538       0.15789474       0.00000000 </v>
   <v>       0.42307692       0.15789474       0.00000000 </v>
   <v>       0.46153846       0.15789474       0.00000000 </v>
   <v>       0.50000000       0.15789474       0.00000000 </v>
   <v>       0.00000000       0.21052632       0.00000000 </v>
   <v>       0.03846154       0.21052632       0.00000000 </v>
   <v>       0.07692308       0.21052632       0.00000000 </v>
   <v>       0.11538462       0.21052632       0.00000000 </v>
   <v>       0.15384615       0.21052632       0.00000000 </v>
   <v>       0.19230769       0.21052632       0.00000000 </v>
   <v>       0.23076923       0.21052632       0.00000000 </v>
   <v>       0.26923077       0.21052632       0.00000000 </v>
   <v>       0.30769231       0.21052632       0.00000000 </v>
   <v>       0.34615385       0.21052632       0.00000000 </v>
   <v>       0.38461538       0.21052632       0.00000000 </v>
   <v>       0.42307692       0.21052632       0.00000000 </v>
   <v>       0.46153846       0.21052632       0.00000000 </v>
   <v>       0.50000000       0.21052632       0.00000000 </v>
   <v>       0.00000000       0.26315789       0.00000000 </v>
   <v>       0.03846154       0.26315789       0.00000000 </v>
   <v>       0.07692308       0.26315789       0.00000000 </v>
   <v>       0.11538462       0.26315789       0.00000000 </v>
   <v>       0.15384615       0.26315789       0.00000000 </v>
   <v>       0.19230769       0.26315789       0.00000000 </v>
   <v>       0.23076923       0.26315789       0.00000000 </v>
   <v>       0.26923077       0.26315789       0.00000000 </v>
   <v>       0.30769231       0.26315789       0.00000000 </v>
   <v>       0.34615385       0.26315789       0.00000000 </v>
   <v>       0.38461538       0.26315789       0.00000000 </v>
   <v>       0.42307692       0.26315789       0.00000000 </v>
   <v>       0.46153846       0.26315789       0.00000000 </v>
   <v>       0.50000000       0.26315789       0.00000000 </v>
   <v>       0.00000000       0.31578947       0.00000000 </v>
   <v>       0.03846154       0.31578947       0.00000000 </v>
   <v>       0.07692308       0.31578947       0.00000000 </v>
   <v>       0.11538462       0.31578947       0.00000000 </v>
   <v>       0.15384615       0.31578947       0.00000000 </v>
   <v>       0.19230769       0.31578947       0.00000000 </v>
   <v>       0.23076923       0.31578947       0.00000000 </v>
   <v>       0.26923077       0.31578947       0.00000000 </v>
   <v>       0.30769231       0.31578947       0.00000000 </v>
   <v>       0.34615385       0.31578947       0.00000000 </v>
   <v>       0.38461538       0.31578947       0.00000000 </v>
   <v>       0.42307692       0.31578947       0.00000000 </v>
   <v>       0.46153846       0.31578947       0.00000000 </v>
   <v>       0.50000000       0.31578947       0.00000000 </v>
   <v>       0.00000000       0.36842105       0.00000000 </v>
   <v>       0.03846154       0.36842105       0.00000000 </v>
   <v>       0.07692308       0.36842105       0.00000000 </v>
   <v>       0.11538462       0.36842105       0.00000000 </v>
   <v>       0.15384615       0.36842105       0.00000000 </v>
   <v>       0.19230769       0.36842105       0.00000000 </v>
   <v>       0.23076923       0.36842105       0.00000000 </v>
   <v>       0.26923077       0.36842105       0.00000000 </v>
   <v>       0.30769231       0.36842105       0.00000000 </v>
   <v>       0.34615385       0.36842105       0.00000000 </v>
   <v>       0.38461538       0.36842105       0.00000000 </v>
   <v>       0.42307692       0.36842105       0.00000000 </v>
   <v>       0.46153846       0.36842105       0.00000000 </v>
   <v>       0.50000000       0.36842105       0.00000000 </v>
   <v>       0.00000000       0.42105263       0.00000000 </v>
   <v>       0.03846154       0.42105263       0.00000000 </v>
   <v>       0.07692308       0.42105263       0.00000000 </v>
   <v>       0.11538462       0.42105263       0.00000000 </v>
   <v>       0.15384615       0.42105263       0.00000000 </v>
   <v>       0.19230769       0.42105263       0.00000000 </v>
   <v>       0.23076923       0.42105263       0.00000000 </v>
   <v>       0.26923077       0.42105263       0.00000000 </v>
   <v>       0.30769231       0.42105263       0.00000000 </v>
   <v>       0.34615385       0.42105263       0.00000000 </v>
   <v>       0.38461538       0.42105263       0.00000000 </v>
   <v>       0.42307692       0.42105263       0.00000000 </v>
   <v>       0.46153846       0.42105263       0.00000000 </v>
   <v>       0.50000000       0.42105263       0.00000000 </v>
   <v>       0.00000000       0.47368421       0.00000000 </v>
   <v>       0.03846154       0.47368421       0.00000000 </v>
   <v>       0.07692308       0.47368421       0.00000000 </v>
   <v>       0.11538462       0.47368421       0.00000000 </v>
   <v>       0.15384615       0.47368421       0.00000000 </v>
   <v>       0.19230769       0.47368421       0.00000000 </v>
   <v>       0.23076923       0.47368421       0.00000000 </v>
   <v>       0.26923077       0.47368421       0.00000000 </v>
   <v>       0.30769231       0.47368421       0.00000000 </v>
   <v>       0.34615385       0.47368421       0.00000000 </v>
   <v>       0.38461538       0.47368421       0.00000000 </v>
   <v>       0.42307692       0.47368421       0.00000000 </v>
   <v>       0.46153846       0.47368421       0.00000000 </v>
   <v>       0.50000000       0.47368421       0.00000000 </v>
   <v>       0.00000000       0.00000000       0.07692308 </v>
   <v>       0.03846154       0.00000000       0.07692308 </v>
   <v>       0.07692308       0.00000000       0.07692308 </v>
   <v>       0.11538462       0.00000000       0.07692308 </v>
   <v>       0.15384615       0.00000000       0.07692308 </v>
   <v>       0.19230769       0.00000000       0.07692308 </v>
   <v>       0.23076923       0.00000000       0.07692308 </v>
   <v>       0.26923077       0.00000000       0.07692308 </v>
   <v>       0.30769231       0.00000000       0.07692308 </v>
   <v>       0.34615385       0.00000000       0.07692308 </v>
   <v>       0.38461538       0.00000000       0.07692308 </v>
   <v>       0.42307692       0.00000000       0.07692308 </v>
   <v>       0.46153846       0.00000000       0.07692308 </v>
   <v>       0.50000000       0.00000000       0.07692308 </v>
   <v>       0.00000000       0.05263158       0.07692308 </v>
   <v>       0.03846154       0.05263158       0.07692308 </v>
   <v>       0.07692308       0.05263158       0.07692308 </v>
   <v>       0.11538462       0.05263158       0.07692308 </v>
   <v>       0.15384615       0.05263158       0.07692308 </v>
   <v>       0.19230769       0.05263158       0.07692308 </v>
   <v>       0.23076923       0.05263158       0.07692308 </v>
   <v>       0.26923077       0.05263158       0.07692308 </v>
   <v>       0.30769231       0.05263158       0.07692308 </v>
   <v>       0.34615385       0.05263158       0.07692308 </v>
   <v>       0.38461538       0.05263158       0.07692308 </v>
   <v>       0.42307692       0.05263158       0.07692308 </v>
   <v>       0.46153846       0.05263158       0.07692308 </v>
   <v>       0.50000000       0.05263158       0.07692308 </v>
   <v>       0.00000000       0.10526316       0.07692308 </v>
   <v>       0.03846154       0.10526316       0.07692308 </v>
   <v>       0.07692308       0.10526316       0.07692308 </v>
   <v>       0.11538462       0.10526316       0.07692308 </v>
   <v>       0.15384615       0.10526316       0.07692308 </v>
   <v>       0.19230769       0.10526316       0.07692308 </v>
   <v>       0.23076923       0.10526316       0.07692308 </v>
   <v>       0.26923077       0.10526316       0.07692308 </v>
   <v>       0.30769231       0.10526316       0.07692308 </v>
   <v>       0.34615385       0.10526316       0.07692308 </v>
   <v>       0.38461538       0.10526316       0.07692308 </v>
   <v>       0.42307692       0.10526316       0.07692308 </v>
   <v>       0.46153846       0.10526316       0.07692308 </v>
   <v>       0.50000000       0.10526316       0.07692308 </v>
   <v>       0.00000000       0.15789474       0.07692308 </v>
   <v>       0.03846154       0.15789474       0.07692308 </v>
   <v>       0.07692308       0.15789474       0.07692308 </v>
   <v>       0.11538462       0.15789474       0.07692308 </v>
   <v>       0.15384615       0.15789474       0.07692308 </v>
   <v>       0.19230769       0.15789474       0.07692308 </v>
   <v>       0.23076923       0.15789474       0.07692308 </v>
   <v>       0.26923077       0.15789474       0.07692308 </v>
   <v>       0.30769231       0.15789474       0.07692308 </v>
   <v>       0.34615385       0.15789474       0.07692308 </v>
   <v>       0.38461538       0.15789474       0.07692308 </v>
   <v>       0.42307692       0.15789474       0.07692308 </v>
   <v>       0.46153846       0.15789474       0.07692308 </v>
   <v>       0.50000000       0.15789474       0.07692308 </v>
   <v>       0.00000000       0.21052632       0.07692308 </v>
   <v>       0.03846154       0.21052632       0.07692308 </v>
   <v>       0.07692308       0.21052632       0.07692308 </v>
   <v>       0.11538462       0.21052632       0.07692308 </v>
   <v>       0.15384615       0.21052632       0.07692308 </v>
   <v>       0.19230769       0.21052632       0.07692308 </v>
   <v>       0.23076923       0.21052632       0.07692308 </v>
   <v>       0.26923077       0.21052632       0.07692308 </v>
   <v>       0.30769231       0.21052632       0.07692308 </v>
   <v>       0.34615385       0.21052632       0.07692308 </v>
   <v>       0.38461538       0.21052632       0.07692308 </v>
   <v>       0.42307692       0.21052632       0.07692308 </v>
   <v>       0.46153846       0.21052632       0.07692308 </v>
   <v>       0.50000000       0.21052632       0.07692308 </v>
   <v>       0.00000000       0.26315789       0.07692308 </v>
   <v>       0.03846154       0.26315789       0.07692308 </v>
   <v>       0.07692308       0.26315789       0.07692308 </v>
   <v>       0.11538462       0.26315789       0.07692308 </v>
   <v>       0.15384615       0.26315789       0.07692308 </v>
   <v>       0.19230769       0.26315789       0.07692308 </v>
   <v>       0.23076923       0.26315789       0.07692308 </v>
   <v>       0.26923077       0.26315789       0.07692308 </v>
   <v>       0.30769231       0.26315789       0.07692308 </v>
   <v>       0.34615385       0.26315789       0.07692308 </v>
   <v>       0.38461538       0.26315789       0.07692308 </v>
   <v>       0.42307692       0.26315789       0.07692308 </v>
   <v>       0.46153846       0.26315789       0.07692308 </v>
   <v>       0.50000000       0.26315789       0.07692308 </v>
   <v>       0.00000000       0.31578947       0.07692308 </v>
   <v>       0.03846154       0.31578947       0.07692308 </v>
   <v>       0.07692308       0.31578947       0.07692308 </v>
   <v>       0.11538462       0.31578947       0.07692308 </v>
   <v>       0.15384615       0.31578947       0.07692308 </v>
   <v>       0.19230769       0.31578947       0.07692308 </v>
   <v>       0.23076923       0.31578947       0.07692308 </v>
   <v>       0.26923077       0.31578947       0.07692308 </v>
   <v>       0.30769231       0.31578947       0.07692308 </v>
   <v>       0.34615385       0.31578947       0.07692308 </v>
   <v>       0.38461538       0.31578947       0.07692308 </v>
   <v>       0.42307692       0.31578947       0.07692308 </v>
   <v>       0.46153846       0.31578947       0.07692308 </v>
   <v>       0.50000000       0.31578947       0.07692308 </v>
   <v>       0.00000000       0.36842105       0.07692308 </v>
   <v>       0.03846154       0.36842105       0.07692308 </v>
   <v>       0.07692308       0.36842105       0.07692308 </v>
   <v>       0.11538462       0.36842105       0.07692308 </v>
   <v>       0.15384615       0.36842105       0.07692308 </v>
   <v>       0.19230769       0.36842105       0.07692308 </v>
   <v>       0.23076923       0.36842105       0.07692308 </v>
   <v>       0.26923077       0.36842105       0.07692308 </v>
   <v>       0.30769231       0.36842105       0.07692308 </v>
   <v>       0.34615385       0.36842105       0.07692308 </v>
   <v>       0.38461538       0.36842105       0.07692308 </v>
   <v>       0.42307692       0.36842105       0.07692308 </v>
   <v>       0.46153846       0.36842105       0.07692308 </v>
   <v>       0.50000000       0.36842105       0.07692308 </v>
   <v>       0.00000000       0.42105263       0.07692308 </v>
   <v>       0.03846154       0.42105263       0.07692308 </v>
   <v>       0.07692308       0.42105263       0.07692308 </v>
   <v>       0.11538462       0.42105263       0.07692308 </v>
   <v>       0.15384615       0.42105263       0.07692308 </v>
   <v>       0.19230769       0.42105263       0.07692308 </v>
   <v>       0.23076923       0.42105263       0.07692308 </v>
   <v>       0.26923077       0.42105263       0.07692308 </v>
   <v>       0.30769231       0.42105263       0.07692308 </v>
   <v>       0.34615385       0.42105263       0.07692308 </v>
   <v>       0.38461538       0.42105263       0.07692308 </v>
   <v>       0.42307692       0.42105263       0.07692308 </v>
   <v>       0.46153846       0.42105263       0.07692308 </v>
   <v>       0.50000000       0.42105263       0.07692308 </v>
   <v>       0.00000000       0.47368421       0.07692308 </v>
   <v>       0.03846154       0.47368421       0.07692308 </v>
   <v>       0.07692308       0.47368421       0.07692308 </v>
   <v>       0.11538462       0.47368421       0.07692308 </v>
   <v>       0.15384615       0.47368421       0.07692308 </v>
   <v>       0.19230769       0.47368421       0.07692308 </v>
   <v>       0.23076923       0.47368421       0.07692308 </v>
   <v>       0.26923077       0.47368421       0.07692308 </v>
   <v>       0.30769231       0.47368421       0.07692308 </v>
   <v>       0.34615385       0.47368421       0.07692308 </v>
   <v>       0.38461538       0.47368421       0.07692308 </v>
   <v>       0.42307692       0.47368421       0.07692308 </v>
   <v>       0.46153846       0.47368421       0.07692308 </v>
   <v>       0.50000000       0.47368421       0.07692308 </v>
   <v>       0.00000000       0.00000000       0.15384615 </v>
   <v>       0.03846154       0.00000000       0.15384615 </v>
   <v>       0.07692308       0.00000000       0.15384615 </v>
   <v>       0.11538462       0.00000000       0.15384615 </v>
   <v>       0.15384615       0.00000000       0.15384615 </v>
   <v>       0.19230769       0.00000000       0.15384615 </v>
   <v>       0.23076923       0.00000000       0.15384615 </v>
   <v>       0.26923077       0.00000000       0.15384615 </v>
   <v>       0.30769231       0.00000000       0.15384615 </v>
   <v>       0.34615385       0.00000000       0.15384615 </v>
   <v>       0.38461538       0.00000000       0.15384615 </v>
   <v>       0.42307692       0.00000000       0.15384615 </v>
   <v>       0.46153846       0.00000000       0.15384615 </v>
   <v>       0.50000000       0.00000000       0.15384615 </v>
   <v>       0.00000000       0.05263158       0.15384615 </v>
   <v>       0.03846154       0.05263158       0.15384615 </v>
   <v>       0.07692308       0.05263158       0.15384615 </v>
   <v>       0.11538462       0.05263158       0.15384615 </v>
   <v>       0.15384615       0.05263158       0.15384615 </v>
   <v>       0.19230769       0.05263158       0.15384615 </v>
   <v>       0.23076923       0.05263158       0.15384615 </v>
   <v>       0.26923077       0.05263158       0.15384615 </v>
   <v>       0.30769231       0.05263158       0.15384615 </v>
   <v>       0.34615385       0.05263158       0.15384615 </v>
   <v>       0.38461538       0.05263158       0.15384615 </v>
   <v>       0.42307692       0.05263158       0.15384615 </v>
   <v>       0.46153846       0.05263158       0.15384615 </v>
   <v>       0.50000000       0.05263158       0.15384615 </v>
   <v>       0.00000000       0.10526316       0.15384615 </v>
   <v>       0.03846154       0.10526316       0.15384615 </v>
   <v>       0.07692308       0.10526316       0.15384615 </v>
   <v>       0.11538462       0.10526316       0.15384615 </v>
   <v>       0.15384615       0.10526316       0.15384615 </v>
   <v>       0.19230769       0.10526316       0.15384615 </v>
   <v>       0.23076923       0.10526316       0.15384615 </v>
   <v>       0.26923077       0.10526316       0.15384615 </v>
   <v>       0.30769231       0.10526316       0.15384615 </v>
   <v>       0.34615385       0.10526316       0.15384615 </v>
   <v>       0.38461538       0.10526316       0.15384615 </v>
   <v>       0.42307692       0.10526316       0.15384615 </v>
   <v>       0.46153846       0.10526316       0.15384615 </v>
   <v>       0.50000000       0.10526316       0.15384615 </v>
   <v>       0.00000000       0.15789474       0.15384615 </v>
   <v>       0.03846154       0.15789474       0.15384615 </v>
   <v>       0.07692308       0.15789474       0.15384615 </v>
   <v>       0.11538462       0.15789474       0.15384615 </v>
   <v>       0.15384615       0.15789474       0.15384615 </v>
   <v>       0.19230769       0.15789474       0.15384615 </v>
   <v>       0.23076923       0.15789474       0.15384615 </v>
   <v>       0.26923077       0.15789474       0.15384615 </v>
   <v>       0.30769231       0.15789474       0.15384615 </v>
   <v>       0.34615385       0.15789474       0.15384615 </v>
   <v>       0.38461538       0.15789474       0.15384615 </v>
   <v>       0.42307692       0.15789474       0.15384615 </v>
   <v>       0.46153846       0.15789474       0.15384615 </v>
   <v>       0.50000000       0.15789474       0.15384615 </v>
   <v>       0.00000000       0.21052632       0.15384615 </v>
   <v>       0.03846154       0.21052632       0.15384615 </v>
   <v>       0.07692308       0.21052632       0.15384615 </v>
   <v>       0.11538462       0.21052632       0.15384615 </v>
   <v>       0.15384615       0.21052632       0.15384615 </v>
   <v>       0.19230769       0.21052632       0.15384615 </v>
   <v>       0.23076923       0.21052632       0.15384615 </v>
   <v>       0.26923077       0.21052632       0.15384615 </v>
   <v>       0.30769231       0.21052632       0.15384615 </v>
   <v>       0.34615385       0.21052632       0.15384615 </v>
   <v>       0.38461538       0.21052632       0.15384615 </v>
   <v>       0.42307692       0.21052632       0.15384615 </v>
   <v>       0.46153846       0.21052632       0.15384615 </v>
   <v>       0.50000000       0.21052632       0.15384615 </v>
   <v>       0.00000000       0.26315789       0.15384615 </v>
   <v>       0.03846154       0.26315789       0.15384615 </v>
   <v>       0.07692308       0.26315789       0.15384615 </v>
   <v>       0.11538462       0.26315789       0.15384615 </v>
   <v>       0.15384615       0.26315789       0.15384615 </v>
   <v>       0.19230769       0.26315789       0.15384615 </v>
   <v>       0.23076923       0.26315789       0.15384615 </v>
   <v>       0.26923077       0.26315789       0.15384615 </v>
   <v>       0.30769231       0.26315789       0.15384615 </v>
   <v>       0.34615385       0.26315789       0.15384615 </v>
   <v>       0.38461538       0.26315789       0.15384615 </v>
   <v>       0.42307692       0.26315789       0.15384615 </v>
   <v>       0.46153846       0.26315789       0.15384615 </v>
   <v>       0.50000000       0.26315789       0.15384615 </v>
   <v>       0.00000000       0.31578947       0.15384615 </v>
   <v>       0.03846154       0.31578947       0.15384615 </v>
   <v>       0.07692308       0.31578947       0.15384615 </v>
   <v>       0.11538462       0.31578947       0.15384615 </v>
   <v>       0.15384615       0.31578947       0.15384615 </v>
   <v>       0.19230769       0.31578947       0.15384615 </v>
   <v>       0.23076923       0.31578947       0.15384615 </v>
   <v>       0.26923077       0.31578947       0.15384615 </v>
   <v>       0.30769231       0.31578947       0.15384615 </v>
   <v>       0.34615385       0.31578947       0.15384615 </v>
   <v>       0.38461538       0.31578947       0.15384615 </v>
   <v>       0.42307692       0.31578947       0.15384615 </v>
   <v>       0.46153846       0.31578947       0.15384615 </v>
   <v>       0.50000000       0.31578947       0.15384615 </v>
   <v>       0.00000000       0.36842105       0.15384615 </v>
   <v>       0.03846154       0.36842105       0.15384615 </v>
   <v>       0.07692308       0.36842105       0.15384615 </v>
   <v>       0.11538462       0.36842105       0.15384615 </v>
   <v>       0.15384615       0.36842105       0.15384615 </v>
   <v>       0.19230769       0.36842105       0.15384615 </v>
   <v>       0.23076923       0.36842105       0.15384615 </v>
   <v>       0.26923077       0.36842105       0.15384615 </v>
   <v>       0.30769231       0.36842105       0.15384615 </v>
   <v>       0.34615385       0.36842105       0.15384615 </v>
   <v>       0.38461538       0.36842105       0.15384615 </v>
   <v>       0.42307692       0.36842105       0.15384615 </v>
   <v>       0.46153846       0.36842105       0.15384615 </v>
   <v>       0.50000000       0.36842105       0.15384615 </v>
   <v>       0.00000000       0.42105263       0.15384615 </v>
   <v>       0.03846154       0.42105263       0.15384615 </v>
   <v>       0.07692308       0.42105263       0.15384615 </v>
   <v>       0.11538462       0.42105263       0.15384615 </v>
   <v>       0.15384615       0.42105263       0.15384615 </v>
   <v>       0.19230769       0.42105263       0.15384615 </v>
   <v>       0.23076923       0.42105263       0.15384615 </v>
   <v>       0.26923077       0.42105263       0.15384615 </v>
   <v>       0.30769231       0.42105263       0.15384615 </v>
   <v>       0.34615385       0.42105263       0.15384615 </v>
   <v>       0.38461538       0.42105263       0.15384615 </v>
   <v>       0.42307692       0.42105263       0.15384615 </v>
   <v>       0.46153846       0.42105263       0.15384615 </v>
   <v>       0.50000000       0.42105263       0.15384615 </v>
   <v>       0.00000000       0.47368421       0.15384615 </v>
   <v>       0.03846154       0.47368421       0.15384615 </v>
   <v>       0.07692308       0.47368421       0.15384615 </v>
   <v>       0.11538462       0.47368421       0.15384615 </v>
   <v>       0.15384615       0.47368421       0.15384615 </v>
   <v>       0.19230769       0.47368421       0.15384615 </v>
   <v>       0.23076923       0.47368421       0.15384615 </v>
   <v>       0.26923077       0.47368421       0.15384615 </v>
   <v>       0.30769231       0.47368421       0.15384615 </v>
   <v>       0.34615385       0.47368421       0.15384615 </v>
   <v>       0.38461538       0.47368421       0.15384615 </v>
   <v>       0.42307692       0.47368421       0.15384615 </v>
   <v>       0.46153846       0.47368421       0.15384615 </v>
   <v>       0.50000000       0.47368421       0.15384615 </v>
   <v>       0.00000000       0.00000000       0.23076923 </v>
   <v>       0.03846154       0.00000000       0.23076923 </v>
   <v>       0.07692308       0.00000000       0.23076923 </v>
   <v>       0.11538462       0.00000000       0.23076923 </v>
   <v>       0.15384615       0.00000000       0.23076923 </v>
   <v>       0.19230769       0.00000000       0.23076923 </v>
   <v>       0.23076923       0.00000000       0.23076923 </v>
   <v>       0.26923077       0.00000000       0.23076923 </v>
   <v>       0.30769231       0.00000000       0.23076923 </v>
   <v>       0.34615385       0.00000000       0.23076923 </v>
   <v>       0.38461538       0.00000000       0.23076923 </v>
   <v>       0.42307692       0.00000000       0.23076923 </v>
   <v>       0.46153846       0.00000000       0.23076923 </v>
   <v>       0.50000000       0.00000000       0.23076923 </v>
   <v>       0.00000000       0.05263158       0.23076923 </v>
   <v>       0.03846154       0.05263158       0.23076923 </v>
   <v>       0.07692308       0.05263158       0.23076923 </v>
   <v>       0.11538462       0.05263158       0.23076923 </v>
   <v>       0.15384615       0.05263158       0.23076923 </v>
   <v>       0.19230769       0.05263158       0.23076923 </v>
   <v>       0.23076923       0.05263158       0.23076923 </v>
   <v>       0.26923077       0.05263158       0.23076923 </v>
   <v>       0.30769231       0.05263158       0.23076923 </v>
   <v>       0.34615385       0.05263158       0.23076923 </v>
   <v>       0.38461538       0.05263158       0.23076923 </v>
   <v>       0.42307692       0.05263158       0.23076923 </v>
   <v>       0.46153846       0.05263158       0.23076923 </v>
   <v>       0.50000000       0.05263158       0.23076923 </v>
   <v>       0.00000000       0.10526316       0.23076923 </v>
   <v>       0.03846154       0.10526316       0.23076923 </v>
   <v>       0.07692308       0.10526316       0.23076923 </v>
   <v>       0.11538462       0.10526316       0.23076923 </v>
   <v>       0.15384615       0.10526316       0.23076923 </v>
   <v>       0.19230769       0.10526316       0.23076923 </v>
   <v>       0.23076923       0.10526316       0.23076923 </v>
   <v>       0.26923077       0.10526316       0.23076923 </v>
   <v>       0.30769231       0.10526316       0.23076923 </v>
   <v>       0.34615385       0.10526316       0.23076923 </v>
   <v>       0.38461538       0.10526316       0.23076923 </v>
   <v>       0.42307692       0.10526316       0.23076923 </v>
   <v>       0.46153846       0.10526316       0.23076923 </v>
   <v>       0.50000000       0.10526316       0.23076923 </v>
   <v>       0.00000000       0.15789474       0.23076923 </v>
   <v>       0.03846154       0.15789474       0.23076923 </v>
   <v>       0.07692308       0.15789474       0.23076923 </v>
   <v>       0.11538462       0.15789474       0.23076923 </v>
   <v>       0.15384615       0.15789474       0.23076923 </v>
   <v>       0.19230769       0.15789474       0.23076923 </v>
   <v>       0.23076923       0.15789474       0.23076923 </v>
   <v>       0.26923077       0.15789474       0.23076923 </v>
   <v>       0.30769231       0.15789474       0.23076923 </v>
   <v>       0.34615385       0.15789474       0.23076923 </v>
   <v>       0.38461538       0.15789474       0.23076923 </v>
   <v>       0.42307692       0.15789474       0.23076923 </v>
   <v>       0.46153846       0.15789474       0.23076923 </v>
   <v>       0.50000000       0.15789474       0.23076923 </v>
   <v>       0.00000000       0.21052632       0.23076923 </v>
   <v>       0.03846154       0.21052632       0.23076923 </v>
   <v>       0.07692308       0.21052632       0.23076923 </v>
   <v>       0.11538462       0.21052632       0.23076923 </v>
   <v>       0.15384615       0.21052632       0.23076923 </v>
   <v>       0.19230769       0.21052632       0.23076923 </v>
   <v>       0.23076923       0.21052632       0.23076923 </v>
   <v>       0.26923077       0.21052632       0.23076923 </v>
   <v>       0.30769231       0.21052632       0.23076923 </v>
   <v>       0.34615385       0.21052632       0.23076923 </v>
   <v>       0.38461538       0.21052632       0.23076923 </v>
   <v>       0.42307692       0.21052632       0.23076923 </v>
   <v>       0.46153846       0.21052632       0.23076923 </v>
   <v>       0.50000000       0.21052632       0.23076923 </v>
   <v>       0.00000000       0.26315789       0.23076923 </v>
   <v>       0.03846154       0.26315789       0.23076923 </v>
   <v>       0.07692308       0.26315789       0.23076923 </v>
   <v>       0.11538462       0.26315789       0.23076923 </v>
   <v>       0.15384615       0.26315789       0.23076923 </v>
   <v>       0.19230769       0.26315789       0.23076923 </v>
   <v>       0.23076923       0.26315789       0.23076923 </v>
   <v>       0.26923077       0.26315789       0.23076923 </v>
   <v>       0.30769231       0.26315789       0.23076923 </v>
   <v>       0.34615385       0.26315789       0.23076923 </v>
   <v>       0.38461538       0.26315789       0.23076923 </v>
   <v>       0.42307692       0.26315789       0.23076923 </v>
   <v>       0.46153846       0.26315789       0.23076923 </v>
   <v>       0.50000000       0.26315789       0.23076923 </v>
   <v>       0.00000000       0.31578947       0.23076923 </v>
   <v>       0.03846154       0.31578947       0.23076923 </v>
   <v>       0.07692308       0.31578947       0.23076923 </v>
   <v>       0.11538462       0.31578947       0.23076923 </v>
   <v>       0.15384615       0.31578947       0.23076923 </v>
   <v>       0.19230769       0.31578947       0.23076923 </v>
   <v>       0.23076923       0.31578947       0.23076923 </v>
   <v>       0.26923077       0.31578947       0.23076923 </v>
   <v>       0.30769231       0.31578947       0.23076923 </v>
   <v>       0.34615385       0.31578947       0.23076923 </v>
   <v>       0.38461538       0.31578947       0.23076923 </v>
   <v>       0.42307692       0.31578947       0.23076923 </v>
   <v>       0.46153846       0.31578947       0.23076923 </v>
   <v>       0.50000000       0.31578947       0.23076923 </v>
   <v>       0.00000000       0.36842105       0.23076923 </v>
   <v>       0.03846154       0.36842105       0.23076923 </v>
   <v>       0.07692308       0.36842105       0.23076923 </v>
   <v>       0.11538462       0.36842105       0.23076923 </v>
   <v>       0.15384615       0.36842105       0.23076923 </v>
   <v>       0.19230769       0.36842105       0.23076923 </v>
   <v>       0.23076923       0.36842105       0.23076923 </v>
   <v>       0.26923077       0.36842105       0.23076923 </v>
   <v>       0.30769231       0.36842105       0.23076923 </v>
   <v>       0.34615385       0.36842105       0.23076923 </v>
   <v>       0.38461538       0.36842105       0.23076923 </v>
   <v>       0.42307692       0.36842105       0.23076923 </v>
   <v>       0.46153846       0.36842105       0.23076923 </v>
   <v>       0.50000000       0.36842105       0.23076923 </v>
   <v>       0.00000000       0.42105263       0.23076923 </v>
   <v>       0.03846154       0.42105263       0.23076923 </v>
   <v>       0.07692308       0.42105263       0.23076923 </v>
   <v>       0.11538462       0.42105263       0.23076923 </v>
   <v>       0.15384615       0.42105263       0.23076923 </v>
   <v>       0.19230769       0.42105263       0.23076923 </v>
   <v>       0.23076923       0.42105263       0.23076923 </v>
   <v>       0.26923077       0.42105263       0.23076923 </v>
   <v>       0.30769231       0.42105263       0.23076923 </v>
   <v>       0.34615385       0.42105263       0.23076923 </v>
   <v>       0.38461538       0.42105263       0.23076923 </v>
   <v>       0.42307692       0.42105263       0.23076923 </v>
   <v>       0.46153846       0.42105263       0.23076923 </v>
   <v>       0.50000000       0.42105263       0.23076923 </v>
   <v>       0.00000000       0.47368421       0.23076923 </v>
   <v>       0.03846154       0.47368421       0.23076923 </v>
   <v>       0.07692308       0.47368421       0.23076923 </v>
   <v>       0.11538462       0.47368421       0.23076923 </v>
   <v>       0.15384615       0.47368421       0.23076923 </v>
   <v>       0.19230769       0.47368421       0.23076923 </v>
   <v>       0.23076923       0.47368421       0.23076923 </v>
   <v>       0.26923077       0.47368421       0.23076923 </v>
   <v>       0.30769231       0.47368421       0.23076923 </v>
   <v>       0.34615385       0.47368421       0.23076923 </v>
   <v>       0.38461538       0.47368421       0.23076923 </v>
   <v>       0.42307692       0.47368421       0.23076923 </v>
   <v>       0.46153846       0.47368421       0.23076923 </v>
   <v>       0.50000000       0.47368421       0.23076923 </v>
   <v>       0.00000000       0.00000000       0.30769231 </v>
   <v>       0.03846154       0.00000000       0.30769231 </v>
   <v>       0.07692308       0.00000000       0.30769231 </v>
   <v>       0.11538462       0.00000000       0.30769231 </v>
   <v>       0.15384615       0.00000000       0.30769231 </v>
   <v>       0.19230769       0.00000000       0.30769231 </v>
   <v>       0.23076923       0.00000000       0.30769231 </v>
   <v>       0.26923077       0.00000000       0.30769231 </v>
   <v>       0.30769231       0.00000000       0.30769231 </v>
   <v>       0.34615385       0.00000000       0.30769231 </v>
   <v>       0.38461538       0.00000000       0.30769231 </v>
   <v>       0.42307692       0.00000000       0.30769231 </v>
   <v>       0.46153846       0.00000000       0.30769231 </v>
   <v>       0.50000000       0.00000000       0.30769231 </v>
   <v>       0.00000000       0.05263158       0.30769231 </v>
   <v>       0.03846154       0.05263158       0.30769231 </v>
   <v>       0.07692308       0.05263158       0.30769231 </v>
   <v>       0.11538462       0.05263158       0.30769231 </v>
   <v>       0.15384615       0.05263158       0.30769231 </v>
   <v>       0.19230769       0.05263158       0.30769231 </v>
   <v>       0.23076923       0.05263158       0.30769231 </v>
   <v>       0.26923077       0.05263158       0.30769231 </v>
   <v>       0.30769231       0.05263158       0.30769231 </v>
   <v>       0.34615385       0.05263158       0.30769231 </v>
   <v>       0.38461538       0.05263158       0.30769231 </v>
   <v>       0.42307692       0.05263158       0.30769231 </v>
   <v>       0.46153846       0.05263158       0.30769231 </v>
   <v>       0.50000000       0.05263158       0.30769231 </v>
   <v>       0.00000000       0.10526316       0.30769231 </v>
   <v>       0.03846154       0.10526316       0.30769231 </v>
   <v>       0.07692308       0.10526316       0.30769231 </v>
   <v>       0.11538462       0.10526316       0.30769231 </v>
   <v>       0.15384615       0.10526316       0.30769231 </v>
   <v>       0.19230769       0.10526316       0.30769231 </v>
   <v>       0.23076923       0.10526316       0.30769231 </v>
   <v>       0.26923077       0.10526316       0.30769231 </v>
   <v>       0.30769231       0.10526316       0.30769231 </v>
   <v>       0.34615385       0.10526316       0.30769231 </v>
   <v>       0.38461538       0.10526316       0.30769231 </v>
   <v>       0.42307692       0.10526316       0.30769231 </v>
   <v>       0.46153846       0.10526316       0.30769231 </v>
   <v>       0.50000000       0.10526316       0.30769231 </v>
   <v>       0.00000000       0.15789474       0.30769231 </v>
   <v>       0.03846154       0.15789474       0.30769231 </v>
   <v>       0.07692308       0.15789474       0.30769231 </v>
   <v>       0.11538462       0.15789474       0.30769231 </v>
   <v>       0.15384615       0.15789474       0.30769231 </v>
   <v>       0.19230769       0.15789474       0.30769231 </v>
   <v>       0.23076923       0.15789474       0.30769231 </v>
   <v>       0.26923077       0.15789474       0.30769231 </v>
   <v>       0.30769231       0.15789474       0.30769231 </v>
   <v>       0.34615385       0.15789474       0.30769231 </v>
   <v>       0.38461538       0.15789474       0.30769231 </v>
   <v>       0.42307692       0.15789474       0.30769231 </v>
   <v>       0.46153846       0.15789474       0.30769231 </v>
   <v>       0.50000000       0.15789474       0.30769231 </v>
   <v>       0.00000000       0.21052632       0.30769231 </v>
   <v>       0.03846154       0.21052632       0.30769231 </v>
   <v>       0.07692308       0.21052632       0.30769231 </v>
   <v>       0.11538462       0.21052632       0.30769231 </v>
   <v>       0.15384615       0.21052632       0.30769231 </v>
   <v>       0.19230769       0.21052632       0.30769231 </v>
   <v>       0.23076923       0.21052632       0.30769231 </v>
   <v>       0.26923077       0.21052632       0.30769231 </v>
   <v>       0.30769231       0.21052632       0.30769231 </v>
   <v>       0.34615385       0.21052632       0.30769231 </v>
   <v>       0.38461538       0.21052632       0.30769231 </v>
   <v>       0.42307692       0.21052632       0.30769231 </v>
   <v>       0.46153846       0.21052632       0.30769231 </v>
   <v>       0.50000000       0.21052632       0.30769231 </v>
   <v>       0.00000000       0.26315789       0.30769231 </v>
   <v>       0.03846154       0.26315789       0.30769231 </v>
   <v>       0.07692308       0.26315789       0.30769231 </v>
   <v>       0.11538462       0.26315789       0.30769231 </v>
   <v>       0.15384615       0.26315789       0.30769231 </v>
   <v>       0.19230769       0.26315789       0.30769231 </v>
   <v>       0.23076923       0.26315789       0.30769231 </v>
   <v>       0.26923077       0.26315789       0.30769231 </v>
   <v>       0.30769231       0.26315789       0.30769231 </v>
   <v>       0.34615385       0.26315789       0.30769231 </v>
   <v>       0.38461538       0.26315789       0.30769231 </v>
   <v>       0.42307692       0.26315789       0.30769231 </v>
   <v>       0.46153846       0.26315789       0.30769231 </v>
   <v>       0.50000000       0.26315789       0.30769231 </v>
   <v>       0.00000000       0.31578947       0.30769231 </v>
   <v>       0.03846154       0.31578947       0.30769231 </v>
   <v>       0.07692308       0.31578947       0.30769231 </v>
   <v>       0.11538462       0.31578947       0.30769231 </v>
   <v>       0.15384615       0.31578947       0.30769231 </v>
   <v>       0.19230769       0.31578947       0.30769231 </v>
   <v>       0.23076923       0.31578947       0.30769231 </v>
   <v>       0.26923077       0.31578947       0.30769231 </v>
   <v>       0.30769231       0.31578947       0.30769231 </v>
   <v>       0.34615385       0.31578947       0.30769231 </v>
   <v>       0.38461538       0.31578947       0.30769231 </v>
   <v>       0.42307692       0.31578947       0.30769231 </v>
   <v>       0.46153846       0.31578947       0.30769231 </v>
   <v>       0.50000000       0.31578947       0.30769231 </v>
   <v>       0.00000000       0.36842105       0.30769231 </v>
   <v>       0.03846154       0.36842105       0.30769231 </v>
   <v>       0.07692308       0.36842105       0.30769231 </v>
   <v>       0.11538462       0.36842105       0.30769231 </v>
   <v>       0.15384615       0.36842105       0.30769231 </v>
   <v>       0.19230769       0.36842105       0.30769231 </v>
   <v>       0.23076923       0.36842105       0.30769231 </v>
   <v>       0.26923077       0.36842105       0.30769231 </v>
   <v>       0.30769231       0.36842105       0.30769231 </v>
   <v>       0.34615385       0.36842105       0.30769231 </v>
   <v>       0.38461538       0.36842105       0.30769231 </v>
   <v>       0.42307692       0.36842105       0.30769231 </v>
   <v>       0.46153846       0.36842105       0.30769231 </v>
   <v>       0.50000000       0.36842105       0.30769231 </v>
   <v>       0.00000000       0.42105263       0.30769231 </v>
   <v>       0.03846154       0.42105263       0.30769231 </v>
   <v>       0.07692308       0.42105263       0.30769231 </v>
   <v>       0.11538462       0.42105263       0.30769231 </v>
   <v>       0.15384615       0.42105263       0.30769231 </v>
   <v>       0.19230769       0.42105263       0.30769231 </v>
   <v>       0.23076923       0.42105263       0.30769231 </v>
   <v>       0.26923077       0.42105263       0.30769231 </v>
   <v>       0.30769231       0.42105263       0.30769231 </v>
   <v>       0.34615385       0.42105263       0.30769231 </v>
   <v>       0.38461538       0.42105263       0.30769231 </v>
   <v>       0.42307692       0.42105263       0.30769231 </v>
   <v>       0.46153846       0.42105263       0.30769231 </v>
   <v>       0.50000000       0.42105263       0.30769231 </v>
   <v>       0.00000000       0.47368421       0.30769231 </v>
   <v>       0.03846154       0.47368421       0.30769231 </v>
   <v>       0.07692308       0.47368421       0.30769231 </v>
   <v>       0.11538462       0.47368421       0.30769231 </v>
   <v>       0.15384615       0.47368421       0.30769231 </v>
   <v>       0.19230769       0.47368421       0.30769231 </v>
   <v>       0.23076923       0.47368421       0.30769231 </v>
   <v>       0.26923077       0.47368421       0.30769231 </v>
   <v>       0.30769231       0.47368421       0.30769231 </v>
   <v>       0.34615385       0.47368421       0.30769231 </v>
   <v>       0.38461538       0.47368421       0.30769231 </v>
   <v>       0.42307692       0.47368421       0.30769231 </v>
   <v>       0.46153846       0.47368421       0.30769231 </v>
   <v>       0.50000000       0.47368421       0.30769231 </v>
   <v>       0.00000000       0.00000000       0.38461538 </v>
   <v>       0.03846154       0.00000000       0.38461538 </v>
   <v>       0.07692308       0.00000000       0.38461538 </v>
   <v>       0.11538462       0.00000000       0.38461538 </v>
   <v>       0.15384615       0.00000000       0.38461538 </v>
   <v>       0.19230769       0.00000000       0.38461538 </v>
   <v>       0.23076923       0.00000000       0.38461538 </v>
   <v>       0.26923077       0.00000000       0.38461538 </v>
   <v>       0.30769231       0.00000000       0.38461538 </v>
   <v>       0.34615385       0.00000000       0.38461538 </v>
   <v>       0.38461538       0.00000000       0.38461538 </v>
   <v>       0.42307692       0.00000000       0.38461538 </v>
   <v>       0.46153846       0.00000000       0.38461538 </v>
   <v>       0.50000000       0.00000000       0.38461538 </v>
   <v>       0.00000000       0.05263158       0.38461538 </v>
   <v>       0.03846154       0.05263158       0.38461538 </v>
   <v>       0.07692308       0.05263158       0.38461538 </v>
   <v>       0.11538462       0.05263158       0.38461538 </v>
   <v>       0.15384615       0.05263158       0.38461538 </v>
   <v>       0.19230769       0.05263158       0.38461538 </v>
   <v>       0.23076923       0.05263158       0.38461538 </v>
   <v>       0.26923077       0.05263158       0.38461538 </v>
   <v>       0.30769231       0.05263158       0.38461538 </v>
   <v>       0.34615385       0.05263158       0.38461538 </v>
   <v>       0.38461538       0.05263158       0.38461538 </v>
   <v>       0.42307692       0.05263158       0.38461538 </v>
   <v>       0.46153846       0.05263158       0.38461538 </v>
   <v>       0.50000000       0.05263158       0.38461538 </v>
   <v>       0.00000000       0.10526316       0.38461538 </v>
   <v>       0.03846154       0.10526316       0.38461538 </v>
   <v>       0.07692308       0.10526316       0.38461538 </v>
   <v>       0.11538462       0.10526316       0.38461538 </v>
   <v>       0.15384615       0.10526316       0.38461538 </v>
   <v>       0.19230769       0.10526316       0.38461538 </v>
   <v>       0.23076923       0.10526316       0.38461538 </v>
   <v>       0.26923077       0.10526316       0.38461538 </v>
   <v>       0.30769231       0.10526316       0.38461538 </v>
   <v>       0.34615385       0.10526316       0.38461538 </v>
   <v>       0.38461538       0.10526316       0.38461538 </v>
   <v>       0.42307692       0.10526316       0.38461538 </v>
   <v>       0.46153846       0.10526316       0.38461538 </v>
   <v>       0.50000000       0.10526316       0.38461538 </v>
   <v>       0.00000000       0.15789474       0.38461538 </v>
   <v>       0.03846154       0.15789474       0.38461538 </v>
   <v>       0.07692308       0.15789474       0.38461538 </v>
   <v>       0.11538462       0.15789474       0.38461538 </v>
   <v>       0.15384615       0.15789474       0.38461538 </v>
   <v>       0.19230769       0.15789474       0.38461538 </v>
   <v>       0.23076923       0.15789474       0.38461538 </v>
   <v>       0.26923077       0.15789474       0.38461538 </v>
   <v>       0.30769231       0.15789474       0.38461538 </v>
   <v>       0.34615385       0.15789474       0.38461538 </v>
   <v>       0.38461538       0.15789474       0.38461538 </v>
   <v>       0.42307692       0.15789474       0.38461538 </v>
   <v>       0.46153846       0.15789474       0.38461538 </v>
   <v>       0.50000000       0.15789474       0.38461538 </v>
   <v>       0.00000000       0.21052632       0.38461538 </v>
   <v>       0.03846154       0.21052632       0.38461538 </v>
   <v>       0.07692308       0.21052632       0.38461538 </v>
   <v>       0.11538462       0.21052632       0.38461538 </v>
   <v>       0.15384615       0.21052632       0.38461538 </v>
   <v>       0.19230769       0.21052632       0.38461538 </v>
   <v>       0.23076923       0.21052632       0.38461538 </v>
   <v>       0.26923077       0.21052632       0.38461538 </v>
   <v>       0.30769231       0.21052632       0.38461538 </v>
   <v>       0.34615385       0.21052632       0.38461538 </v>
   <v>       0.38461538       0.21052632       0.38461538 </v>
   <v>       0.42307692       0.21052632       0.38461538 </v>
   <v>       0.46153846       0.21052632       0.38461538 </v>
   <v>       0.50000000       0.21052632       0.38461538 </v>
   <v>       0.00000000       0.26315789       0.38461538 </v>
   <v>       0.03846154       0.26315789       0.38461538 </v>
   <v>       0.07692308       0.26315789       0.38461538 </v>
   <v>       0.11538462       0.26315789       0.38461538 </v>
   <v>       0.15384615       0.26315789       0.38461538 </v>
   <v>       0.19230769       0.26315789       0.38461538 </v>
   <v>       0.23076923       0.26315789       0.38461538 </v>
   <v>       0.26923077       0.26315789       0.38461538 </v>
   <v>       0.30769231       0.26315789       0.38461538 </v>
   <v>       0.34615385       0.26315789       0.38461538 </v>
   <v>       0.38461538       0.26315789       0.38461538 </v>
   <v>       0.42307692       0.26315789       0.38461538 </v>
   <v>       0.46153846       0.26315789       0.38461538 </v>
   <v>       0.50000000       0.26315789       0.38461538 </v>
   <v>       0.00000000       0.31578947       0.38461538 </v>
   <v>       0.03846154       0.31578947       0.38461538 </v>
   <v>       0.07692308       0.31578947       0.38461538 </v>
   <v>       0.11538462       0.31578947       0.38461538 </v>
   <v>       0.15384615       0.31578947       0.38461538 </v>
   <v>       0.19230769       0.31578947       0.38461538 </v>
   <v>       0.23076923       0.31578947       0.38461538 </v>
   <v>       0.26923077       0.31578947       0.38461538 </v>
   <v>       0.30769231       0.31578947       0.38461538 </v>
   <v>       0.34615385       0.31578947       0.38461538 </v>
   <v>       0.38461538       0.31578947       0.38461538 </v>
   <v>       0.42307692       0.31578947       0.38461538 </v>
   <v>       0.46153846       0.31578947       0.38461538 </v>
   <v>       0.50000000       0.31578947       0.38461538 </v>
   <v>       0.00000000       0.36842105       0.38461538 </v>
   <v>       0.03846154       0.36842105       0.38461538 </v>
   <v>       0.07692308       0.36842105       0.38461538 </v>
   <v>       0.11538462       0.36842105       0.38461538 </v>
   <v>       0.15384615       0.36842105       0.38461538 </v>
   <v>       0.19230769       0.36842105       0.38461538 </v>
   <v>       0.23076923       0.36842105       0.38461538 </v>
   <v>       0.26923077       0.36842105       0.38461538 </v>
   <v>       0.30769231       0.36842105       0.38461538 </v>
   <v>       0.34615385       0.36842105       0.38461538 </v>
   <v>       0.38461538       0.36842105       0.38461538 </v>
   <v>       0.42307692       0.36842105       0.38461538 </v>
   <v>       0.46153846       0.36842105       0.38461538 </v>
   <v>       0.50000000       0.36842105       0.38461538 </v>
   <v>       0.00000000       0.42105263       0.38461538 </v>
   <v>       0.03846154       0.42105263       0.38461538 </v>
   <v>       0.07692308       0.42105263       0.38461538 </v>
   <v>       0.11538462       0.42105263       0.38461538 </v>
   <v>       0.15384615       0.42105263       0.38461538 </v>
   <v>       0.19230769       0.42105263       0.38461538 </v>
   <v>       0.23076923       0.42105263       0.38461538 </v>
   <v>       0.26923077       0.42105263       0.38461538 </v>
   <v>       0.30769231       0.42105263       0.38461538 </v>
   <v>       0.34615385       0.42105263       0.38461538 </v>
   <v>       0.38461538       0.42105263       0.38461538 </v>
   <v>       0.42307692       0.42105263       0.38461538 </v>
   <v>       0.46153846       0.42105263       0.38461538 </v>
   <v>       0.50000000       0.42105263       0.38461538 </v>
   <v>       0.00000000       0.47368421       0.38461538 </v>
   <v>       0.03846154       0.47368421       0.38461538 </v>
   <v>       0.07692308       0.47368421       0.38461538 </v>
   <v>       0.11538462       0.47368421       0.38461538 </v>
   <v>       0.15384615       0.47368421       0.38461538 </v>
   <v>       0.19230769       0.47368421       0.38461538 </v>
   <v>       0.23076923       0.47368421       0.38461538 </v>
   <v>       0.26923077       0.47368421       0.38461538 </v>
   <v>       0.30769231       0.47368421       0.38461538 </v>
   <v>       0.34615385       0.47368421       0.38461538 </v>
   <v>       0.38461538       0.47368421       0.38461538 </v>
   <v>       0.42307692       0.47368421       0.38461538 </v>
   <v>       0.46153846       0.47368421       0.38461538 </v>
   <v>       0.50000000       0.47368421       0.38461538 </v>
   <v>       0.00000000       0.00000000       0.46153846 </v>
   <v>       0.03846154       0.00000000       0.46153846 </v>
   <v>       0.07692308       0.00000000       0.46153846 </v>
   <v>       0.11538462       0.00000000       0.46153846 </v>
   <v>       0.15384615       0.00000000       0.46153846 </v>
   <v>       0.19230769       0.00000000       0.46153846 </v>
   <v>       0.23076923       0.00000000       0.46153846 </v>
   <v>       0.26923077       0.00000000       0.46153846 </v>
   <v>       0.30769231       0.00000000       0.46153846 </v>
   <v>       0.34615385       0.00000000       0.46153846 </v>
   <v>       0.38461538       0.00000000       0.46153846 </v>
   <v>       0.42307692       0.00000000       0.46153846 </v>
   <v>       0.46153846       0.00000000       0.46153846 </v>
   <v>       0.50000000       0.00000000       0.46153846 </v>
   <v>       0.00000000       0.05263158       0.46153846 </v>
   <v>       0.03846154       0.05263158       0.46153846 </v>
   <v>       0.07692308       0.05263158       0.46153846 </v>
   <v>       0.11538462       0.05263158       0.46153846 </v>
   <v>       0.15384615       0.05263158       0.46153846 </v>
   <v>       0.19230769       0.05263158       0.46153846 </v>
   <v>       0.23076923       0.05263158       0.46153846 </v>
   <v>       0.26923077       0.05263158       0.46153846 </v>
   <v>       0.30769231       0.05263158       0.46153846 </v>
   <v>       0.34615385       0.05263158       0.46153846 </v>
   <v>       0.38461538       0.05263158       0.46153846 </v>
   <v>       0.42307692       0.05263158       0.46153846 </v>
   <v>       0.46153846       0.05263158       0.46153846 </v>
   <v>       0.50000000       0.05263158       0.46153846 </v>
   <v>       0.00000000       0.10526316       0.46153846 </v>
   <v>       0.03846154       0.10526316       0.46153846 </v>
   <v>       0.07692308       0.10526316       0.46153846 </v>
   <v>       0.11538462       0.10526316       0.46153846 </v>
   <v>       0.15384615       0.10526316       0.46153846 </v>
   <v>       0.19230769       0.10526316       0.46153846 </v>
   <v>       0.23076923       0.10526316       0.46153846 </v>
   <v>       0.26923077       0.10526316       0.46153846 </v>
   <v>       0.30769231       0.10526316       0.46153846 </v>
   <v>       0.34615385       0.10526316       0.46153846 </v>
   <v>       0.38461538       0.10526316       0.46153846 </v>
   <v>       0.42307692       0.10526316       0.46153846 </v>
   <v>       0.46153846       0.10526316       0.46153846 </v>
   <v>       0.50000000       0.10526316       0.46153846 </v>
   <v>       0.00000000       0.15789474       0.46153846 </v>
   <v>       0.03846154       0.15789474       0.46153846 </v>
   <v>       0.07692308       0.15789474       0.46153846 </v>
   <v>       0.11538462       0.15789474       0.46153846 </v>
   <v>       0.15384615       0.15789474       0.46153846 </v>
   <v>       0.19230769       0.15789474       0.46153846 </v>
   <v>       0.23076923       0.15789474       0.46153846 </v>
   <v>       0.26923077       0.15789474       0.46153846 </v>
   <v>       0.30769231       0.15789474       0.46153846 </v>
   <v>       0.34615385       0.15789474       0.46153846 </v>
   <v>       0.38461538       0.15789474       0.46153846 </v>
   <v>       0.42307692       0.15789474       0.46153846 </v>
   <v>       0.46153846       0.15789474       0.46153846 </v>
   <v>       0.50000000       0.15789474       0.46153846 </v>
   <v>       0.00000000       0.21052632       0.46153846 </v>
   <v>       0.03846154       0.21052632       0.46153846 </v>
   <v>       0.07692308       0.21052632       0.46153846 </v>
   <v>       0.11538462       0.21052632       0.46153846 </v>
   <v>       0.15384615       0.21052632       0.46153846 </v>
   <v>       0.19230769       0.21052632       0.46153846 </v>
   <v>       0.23076923       0.21052632       0.46153846 </v>
   <v>       0.26923077       0.21052632       0.46153846 </v>
   <v>       0.30769231       0.21052632       0.46153846 </v>
   <v>       0.34615385       0.21052632       0.46153846 </v>
   <v>       0.38461538       0.21052632       0.46153846 </v>
   <v>       0.42307692       0.21052632       0.46153846 </v>
   <v>       0.46153846       0.21052632       0.46153846 </v>
   <v>       0.50000000       0.21052632       0.46153846 </v>
   <v>       0.00000000       0.26315789       0.46153846 </v>
   <v>       0.03846154       0.26315789       0.46153846 </v>
   <v>       0.07692308       0.26315789       0.46153846 </v>
   <v>       0.11538462       0.26315789       0.46153846 </v>
   <v>       0.15384615       0.26315789       0.46153846 </v>
   <v>       0.19230769       0.26315789       0.46153846 </v>
   <v>       0.23076923       0.26315789       0.46153846 </v>
   <v>       0.26923077       0.26315789       0.46153846 </v>
   <v>       0.30769231       0.26315789       0.46153846 </v>
   <v>       0.34615385       0.26315789       0.46153846 </v>
   <v>       0.38461538       0.26315789       0.46153846 </v>
   <v>       0.42307692       0.26315789       0.46153846 </v>
   <v>       0.46153846       0.26315789       0.46153846 </v>
   <v>       0.50000000       0.26315789       0.46153846 </v>
   <v>       0.00000000       0.31578947       0.46153846 </v>
   <v>       0.03846154       0.31578947       0.46153846 </v>
   <v>       0.07692308       0.31578947       0.46153846 </v>
   <v>       0.11538462       0.31578947       0.46153846 </v>
   <v>       0.15384615       0.31578947       0.46153846 </v>
   <v>       0.19230769       0.31578947       0.46153846 </v>
   <v>       0.23076923       0.31578947       0.46153846 </v>
   <v>       0.26923077       0.31578947       0.46153846 </v>
   <v>       0.30769231       0.31578947       0.46153846 </v>
   <v>       0.34615385       0.31578947       0.46153846 </v>
   <v>       0.38461538       0.31578947       0.46153846 </v>
   <v>       0.42307692       0.31578947       0.46153846 </v>
   <v>       0.46153846       0.31578947       0.46153846 </v>
   <v>       0.50000000       0.31578947       0.46153846 </v>
   <v>       0.00000000       0.36842105       0.46153846 </v>
   <v>       0.03846154       0.36842105       0.46153846 </v>
   <v>       0.07692308       0.36842105       0.46153846 </v>
   <v>       0.11538462       0.36842105       0.46153846 </v>
   <v>       0.15384615       0.36842105       0.46153846 </v>
   <v>       0.19230769       0.36842105       0.46153846 </v>
   <v>       0.23076923       0.36842105       0.46153846 </v>
   <v>       0.26923077       0.36842105       0.46153846 </v>
   <v>       0.30769231       0.36842105       0.46153846 </v>
   <v>       0.34615385       0.36842105       0.46153846 </v>
   <v>       0.38461538       0.36842105       0.46153846 </v>
   <v>       0.42307692       0.36842105       0.46153846 </v>
   <v>       0.46153846       0.36842105       0.46153846 </v>
   <v>       0.50000000       0.36842105       0.46153846 </v>
   <v>       0.00000000       0.42105263       0.46153846 </v>
   <v>       0.03846154       0.42105263       0.46153846 </v>
   <v>       0.07692308       0.42105263       0.46153846 </v>
   <v>       0.11538462       0.42105263       0.46153846 </v>
   <v>       0.15384615       0.42105263       0.46153846 </v>
   <v>       0.19230769       0.42105263       0.46153846 </v>
   <v>       0.23076923       0.42105263       0.46153846 </v>
   <v>       0.26923077       0.42105263       0.46153846 </v>
   <v>       0.30769231       0.42105263       0.46153846 </v>
   <v>       0.34615385       0.42105263       0.46153846 </v>
   <v>       0.38461538       0.42105263       0.46153846 </v>
   <v>       0.42307692       0.42105263       0.46153846 </v>
   <v>       0.46153846       0.42105263       0.46153846 </v>
   <v>       0.50000000       0.42105263       0.46153846 </v>
   <v>       0.00000000       0.47368421       0.46153846 </v>
   <v>       0.03846154       0.47368421       0.46153846 </v>
   <v>       0.07692308       0.47368421       0.46153846 </v>
   <v>       0.11538462       0.47368421       0.46153846 </v>
   <v>       0.15384615       0.47368421       0.46153846 </v>
   <v>       0.19230769       0.47368421       0.46153846 </v>
   <v>       0.23076923       0.47368421       0.46153846 </v>
   <v>       0.26923077       0.47368421       0.46153846 </v>
   <v>       0.30769231       0.47368421       0.46153846 </v>
   <v>       0.34615385       0.47368421       0.46153846 </v>
   <v>       0.38461538       0.47368421       0.46153846 </v>
   <v>       0.42307692       0.47368421       0.46153846 </v>
   <v>       0.46153846       0.47368421       0.46153846 </v>
   <v>       0.50000000       0.47368421       0.46153846 </v>
  </varray>
  <varray name="weights" >
   <v>       0.00015571 </v>
   <v>       0.00031143 </v>
   <v>       0.00031143 </v>
   <v>       0.00031143 </v>
   <v>       0.00031143 </v>
   <v>       0.00031143 </v>
   <v>       0.00031143 </v>
   <v>       0.00031143 </v>
   <v>       0.00031143 </v>
   <v>       0.00031143 </v>
   <v>       0.00031143 </v>
   <v>       0.00031143 </v>
   <v>       0.00031143 </v>
   <v>       0.00015571 </v>
   <v>       0.00031143 </v>
   <v>       0.00062286 </v>
   <v>       0.00062286 </v>
   <v>       0.00062286 </v>
   <v>       0.00062286 </v>
   <v>       0.00062286 </v>
   <v>       0.00062286 </v>
   <v>       0.00062286 </v>
   <v>       0.00062286 </v>
   <v>       0.00062286 </v>
   <v>       0.00062286 </v>
   <v>       0.00062286 </v>
   <v>       0.00062286 </v>
   <v>       0.00031143 </v>
   <v>       0.00031143 </v>
   <v>       0.00062286 </v>
   <v>       0.00062286 </v>
   <v>       0.00062286 </v>
   <v>       0.00062286 </v>
   <v>       0.00062286 </v>
   <v>       0.00062286 </v>
   <v>       0.00062286 </v>
   <v>       0.00062286 </v>
   <v>       0.00062286 </v>
   <v>       0.00062286 </v>
   <v>       0.00062286 </v>
   <v>       0.00062286 </v>
   <v>       0.00031143 </v>
   <v>       0.00031143 </v>
   <v>       0.00062286 </v>
   <v>       0.00062286 </v>
   <v>       0.00062286 </v>
   <v>       0.00062286 </v>
   <v>       0.00062286 </v>
   <v>       0.00062286 </v>
   <v>       0.00062286 </v>
   <v>       0.00062286 </v>
   <v>       0.00062286 </v>
   <v>       0.00062286 </v>
   <v>       0.00062286 </v>
   <v>       0.00062286 </v>
   <v>       0.00031143 </v>
   <v>       0.00031143 </v>
   <v>       0.00062286 </v>
   <v>       0.00062286 </v>
   <v>       0.00062286 </v>
   <v>       0.00062286 </v>
   <v>       0.00062286 </v>
   <v>       0.00062286 </v>
   <v>       0.00062286 </v>
   <v>       0.00062286 </v>
   <v>       0.00062286 </v>
   <v>       0.00062286 </v>
   <v>       0.00062286 </v>
   <v>       0.00062286 </v>
   <v>       0.00031143 </v>
   <v>       0.00031143 </v>
   <v>       0.00062286 </v>
   <v>       0.00062286 </v>
   <v>       0.00062286 </v>
   <v>       0.00062286 </v>
   <v>       0.00062286 </v>
   <v>       0.00062286 </v>
   <v>       0.00062286 </v>
   <v>       0.00062286 </v>
   <v>       0.00062286 </v>
   <v>       0.00062286 </v>
   <v>       0.00062286 </v>
   <v>       0.00062286 </v>
   <v>       0.00031143 </v>
   <v>       0.00031143 </v>
   <v>       0.00062286 </v>
   <v>       0.00062286 </v>
   <v>       0.00062286 </v>
   <v>       0.00062286 </v>
   <v>       0.00062286 </v>
   <v>       0.00062286 </v>
   <v>       0.00062286 </v>
   <v>       0.00062286 </v>
   <v>       0.00062286 </v>
   <v>       0.00062286 </v>
   <v>       0.00062286 </v>
   <v>       0.00062286 </v>
   <v>       0.00031143 </v>
   <v>       0.00031143 </v>
   <v>       0.00062286 </v>
   <v>       0.00062286 </v>
   <v>       0.00062286 </v>
   <v>       0.00062286 </v>
   <v>       0.00062286 </v>
   <v>       0.00062286 </v>
   <v>       0.00062286 </v>
   <v>       0.00062286 </v>
   <v>       0.00062286 </v>
   <v>       0.00062286 </v>
   <v>       0.00062286 </v>
   <v>       0.00062286 </v>
   <v>       0.00031143 </v>
   <v>       0.00031143 </v>
   <v>       0.00062286 </v>
   <v>       0.00062286 </v>
   <v>       0.00062286 </v>
   <v>       0.00062286 </v>
   <v>       0.00062286 </v>
   <v>       0.00062286 </v>
   <v>       0.00062286 </v>
   <v>       0.00062286 </v>
   <v>       0.00062286 </v>
   <v>       0.00062286 </v>
   <v>       0.00062286 </v>
   <v>       0.00062286 </v>
   <v>       0.00031143 </v>
   <v>       0.00031143 </v>
   <v>       0.00062286 </v>
   <v>       0.00062286 </v>
   <v>       0.00062286 </v>
   <v>       0.00062286 </v>
   <v>       0.00062286 </v>
   <v>       0.00062286 </v>
   <v>       0.00062286 </v>
   <v>       0.00062286 </v>
   <v>       0.00062286 </v>
   <v>       0.00062286 </v>
   <v>       0.00062286 </v>
   <v>       0.00062286 </v>
   <v>       0.00031143 </v>
   <v>       0.00031143 </v>
   <v>       0.00062286 </v>
   <v>       0.00062286 </v>
   <v>       0.00062286 </v>
   <v>       0.00062286 </v>
   <v>       0.00062286 </v>
   <v>       0.00062286 </v>
   <v>       0.00062286 </v>
   <v>       0.00062286 </v>
   <v>       0.00062286 </v>
   <v>       0.00062286 </v>
   <v>       0.00062286 </v>
   <v>       0.00062286 </v>
   <v>       0.00031143 </v>
   <v>       0.00062286 </v>
   <v>       0.00124572 </v>
   <v>       0.00124572 </v>
   <v>       0.00124572 </v>
   <v>       0.00124572 </v>
   <v>       0.00124572 </v>
   <v>       0.00124572 </v>
   <v>       0.00124572 </v>
   <v>       0.00124572 </v>
   <v>       0.00124572 </v>
   <v>       0.00124572 </v>
   <v>       0.00124572 </v>
   <v>       0.00124572 </v>
   <v>       0.00062286 </v>
   <v>       0.00062286 </v>
   <v>       0.00124572 </v>
   <v>       0.00124572 </v>
   <v>       0.00124572 </v>
   <v>       0.00124572 </v>
   <v>       0.00124572 </v>
   <v>       0.00124572 </v>
   <v>       0.00124572 </v>
   <v>       0.00124572 </v>
   <v>       0.00124572 </v>
   <v>       0.00124572 </v>
   <v>       0.00124572 </v>
   <v>       0.00124572 </v>
   <v>       0.00062286 </v>
   <v>       0.00062286 </v>
   <v>       0.00124572 </v>
   <v>       0.00124572 </v>
   <v>       0.00124572 </v>
   <v>       0.00124572 </v>
   <v>       0.00124572 </v>
   <v>       0.00124572 </v>
   <v>       0.00124572 </v>
   <v>       0.00124572 </v>
   <v>       0.00124572 </v>
   <v>       0.00124572 </v>
   <v>       0.00124572 </v>
   <v>       0.00124572 </v>
   <v>       0.00062286 </v>
   <v>       0.00062286 </v>
   <v>       0.00124572 </v>
   <v>       0.00124572 </v>
   <v>       0.00124572 </v>
   <v>       0.00124572 </v>
   <v>       0.00124572 </v>
   <v>       0.00124572 </v>
   <v>       0.00124572 </v>
   <v>       0.00124572 </v>
   <v>       0.00124572 </v>
   <v>       0.00124572 </v>
   <v>       0.00124572 </v>
   <v>       0.00124572 </v>
   <v>       0.00062286 </v>
   <v>       0.00062286 </v>
   <v>       0.00124572 </v>
   <v>       0.00124572 </v>
   <v>       0.00124572 </v>
   <v>       0.00124572 </v>
   <v>       0.00124572 </v>
   <v>       0.00124572 </v>
   <v>       0.00124572 </v>
   <v>       0.00124572 </v>
   <v>       0.00124572 </v>
   <v>       0.00124572 </v>
   <v>       0.00124572 </v>
   <v>       0.00124572 </v>
   <v>       0.00062286 </v>
   <v>       0.00062286 </v>
   <v>       0.00124572 </v>
   <v>       0.00124572 </v>
   <v>       0.00124572 </v>
   <v>       0.00124572 </v>
   <v>       0.00124572 </v>
   <v>       0.00124572 </v>
   <v>       0.00124572 </v>
   <v>       0.00124572 </v>
   <v>       0.00124572 </v>
   <v>       0.00124572 </v>
   <v>       0.00124572 </v>
   <v>       0.00124572 </v>
   <v>       0.00062286 </v>
   <v>       0.00062286 </v>
   <v>       0.00124572 </v>
   <v>       0.00124572 </v>
   <v>       0.00124572 </v>
   <v>       0.00124572 </v>
   <v>       0.00124572 </v>
   <v>       0.00124572 </v>
   <v>       0.00124572 </v>
   <v>       0.00124572 </v>
   <v>       0.00124572 </v>
   <v>       0.00124572 </v>
   <v>       0.00124572 </v>
   <v>       0.00124572 </v>
   <v>       0.00062286 </v>
   <v>       0.00062286 </v>
   <v>       0.00124572 </v>
   <v>       0.00124572 </v>
   <v>       0.00124572 </v>
   <v>       0.00124572 </v>
   <v>       0.00124572 </v>
   <v>       0.00124572 </v>
   <v>       0.00124572 </v>
   <v>       0.00124572 </v>
   <v>       0.00124572 </v>
   <v>       0.00124572 </v>
   <v>       0.00124572 </v>
   <v>       0.00124572 </v>
   <v>       0.00062286 </v>
   <v>       0.00062286 </v>
   <v>       0.00124572 </v>
   <v>       0.00124572 </v>
   <v>       0.00124572 </v>
   <v>       0.00124572 </v>
   <v>       0.00124572 </v>
   <v>       0.00124572 </v>
   <v>       0.00124572 </v>
   <v>       0.00124572 </v>
   <v>       0.00124572 </v>
   <v>       0.00124572 </v>
   <v>       0.00124572 </v>
   <v>       0.00124572 </v>
   <v>       0.00062286 </v>
   <v>       0.00031143 </v>
   <v>       0.00062286 </v>
   <v>       0.00062286 </v>
   <v>       0.00062286 </v>
   <v>       0.00062286 </v>
   <v>       0.00062286 </v>
   <v>       0.00062286 </v>
   <v>       0.00062286 </v>
   <v>       0.00062286 </v>
   <v>       0.00062286 </v>
   <v>       0.00062286 </v>
   <v>       0.00062286 </v>
   <v>       0.00062286 </v>
   <v>       0.00031143 </v>
   <v>       0.00062286 </v>
   <v>       0.00124572 </v>
   <v>       0.00124572 </v>
   <v>       0.00124572 </v>
   <v>       0.00124572 </v>
   <v>       0.00124572 </v>
   <v>       0.00124572 </v>
   <v>       0.00124572 </v>
   <v>       0.00124572 </v>
   <v>       0.00124572 </v>
   <v>       0.00124572 </v>
   <v>       0.00124572 </v>
   <v>       0.00124572 </v>
   <v>       0.00062286 </v>
   <v>       0.00062286 </v>
   <v>       0.00124572 </v>
   <v>       0.00124572 </v>
   <v>       0.00124572 </v>
   <v>       0.00124572 </v>
   <v>       0.00124572 </v>
   <v>       0.00124572 </v>
   <v>       0.00124572 </v>
   <v>       0.00124572 </v>
   <v>       0.00124572 </v>
   <v>       0.00124572 </v>
   <v>       0.00124572 </v>
   <v>       0.00124572 </v>
   <v>       0.00062286 </v>
   <v>       0.00062286 </v>
   <v>       0.00124572 </v>
   <v>       0.00124572 </v>
   <v>       0.00124572 </v>
   <v>       0.00124572 </v>
   <v>       0.00124572 </v>
   <v>       0.00124572 </v>
   <v>       0.00124572 </v>
   <v>       0.00124572 </v>
   <v>       0.00124572 </v>
   <v>       0.00124572 </v>
   <v>       0.00124572 </v>
   <v>       0.00124572 </v>
   <v>       0.00062286 </v>
   <v>       0.00062286 </v>
   <v>       0.00124572 </v>
   <v>       0.00124572 </v>
   <v>       0.00124572 </v>
   <v>       0.00124572 </v>
   <v>       0.00124572 </v>
   <v>       0.00124572 </v>
   <v>       0.00124572 </v>
   <v>       0.00124572 </v>
   <v>       0.00124572 </v>
   <v>       0.00124572 </v>
   <v>       0.00124572 </v>
   <v>       0.00124572 </v>
   <v>       0.00062286 </v>
   <v>       0.00062286 </v>
   <v>       0.00124572 </v>
   <v>       0.00124572 </v>
   <v>       0.00124572 </v>
   <v>       0.00124572 </v>
   <v>       0.00124572 </v>
   <v>       0.00124572 </v>
   <v>       0.00124572 </v>
   <v>       0.00124572 </v>
   <v>       0.00124572 </v>
   <v>       0.00124572 </v>
   <v>       0.00124572 </v>
   <v>       0.00124572 </v>
   <v>       0.00062286 </v>
   <v>       0.00062286 </v>
   <v>       0.00124572 </v>
   <v>       0.00124572 </v>
   <v>       0.00124572 </v>
   <v>       0.00124572 </v>
   <v>       0.00124572 </v>
   <v>       0.00124572 </v>
   <v>       0.00124572 </v>
   <v>       0.00124572 </v>
   <v>       0.00124572 </v>
   <v>       0.00124572 </v>
   <v>       0.00124572 </v>
   <v>       0.00124572 </v>
   <v>       0.00062286 </v>
   <v>       0.00062286 </v>
   <v>       0.00124572 </v>
   <v>       0.00124572 </v>
   <v>       0.00124572 </v>
   <v>       0.00124572 </v>
   <v>       0.00124572 </v>
   <v>       0.00124572 </v>
   <v>       0.00124572 </v>
   <v>       0.00124572 </v>
   <v>       0.00124572 </v>
   <v>       0.00124572 </v>
   <v>       0.00124572 </v>
   <v>       0.00124572 </v>
   <v>       0.00062286 </v>
   <v>       0.00062286 </v>
   <v>       0.00124572 </v>
   <v>       0.00124572 </v>
   <v>       0.00124572 </v>
   <v>       0.00124572 </v>
   <v>       0.00124572 </v>
   <v>       0.00124572 </v>
   <v>       0.00124572 </v>
   <v>       0.00124572 </v>
   <v>       0.00124572 </v>
   <v>       0.00124572 </v>
   <v>       0.00124572 </v>
   <v>       0.00124572 </v>
   <v>       0.00062286 </v>
   <v>       0.00062286 </v>
   <v>       0.00124572 </v>
   <v>       0.00124572 </v>
   <v>       0.00124572 </v>
   <v>       0.00124572 </v>
   <v>       0.00124572 </v>
   <v>       0.00124572 </v>
   <v>       0.00124572 </v>
   <v>       0.00124572 </v>
   <v>       0.00124572 </v>
   <v>       0.00124572 </v>
   <v>       0.00124572 </v>
   <v>       0.00124572 </v>
   <v>       0.00062286 </v>
   <v>       0.00031143 </v>
   <v>       0.00062286 </v>
   <v>       0.00062286 </v>
   <v>       0.00062286 </v>
   <v>       0.00062286 </v>
   <v>       0.00062286 </v>
   <v>       0.00062286 </v>
   <v>       0.00062286 </v>
   <v>       0.00062286 </v>
   <v>       0.00062286 </v>
   <v>       0.00062286 </v>
   <v>       0.00062286 </v>
   <v>       0.00062286 </v>
   <v>       0.00031143 </v>
   <v>       0.00062286 </v>
   <v>       0.00124572 </v>
   <v>       0.00124572 </v>
   <v>       0.00124572 </v>
   <v>       0.00124572 </v>
   <v>       0.00124572 </v>
   <v>       0.00124572 </v>
   <v>       0.00124572 </v>
   <v>       0.00124572 </v>
   <v>       0.00124572 </v>
   <v>       0.00124572 </v>
   <v>       0.00124572 </v>
   <v>       0.00124572 </v>
   <v>       0.00062286 </v>
   <v>       0.00062286 </v>
   <v>       0.00124572 </v>
   <v>       0.00124572 </v>
   <v>       0.00124572 </v>
   <v>       0.00124572 </v>
   <v>       0.00124572 </v>
   <v>       0.00124572 </v>
   <v>       0.00124572 </v>
   <v>       0.00124572 </v>
   <v>       0.00124572 </v>
   <v>       0.00124572 </v>
   <v>       0.00124572 </v>
   <v>       0.00124572 </v>
   <v>       0.00062286 </v>
   <v>       0.00062286 </v>
   <v>       0.00124572 </v>
   <v>       0.00124572 </v>
   <v>       0.00124572 </v>
   <v>       0.00124572 </v>
   <v>       0.00124572 </v>
   <v>       0.00124572 </v>
   <v>       0.00124572 </v>
   <v>       0.00124572 </v>
   <v>       0.00124572 </v>
   <v>       0.00124572 </v>
   <v>       0.00124572 </v>
   <v>       0.00124572 </v>
   <v>       0.00062286 </v>
   <v>       0.00062286 </v>
   <v>       0.00124572 </v>
   <v>       0.00124572 </v>
   <v>       0.00124572 </v>
   <v>       0.00124572 </v>
   <v>       0.00124572 </v>
   <v>       0.00124572 </v>
   <v>       0.00124572 </v>
   <v>       0.00124572 </v>
   <v>       0.00124572 </v>
   <v>       0.00124572 </v>
   <v>       0.00124572 </v>
   <v>       0.00124572 </v>
   <v>       0.00062286 </v>
   <v>       0.00062286 </v>
   <v>       0.00124572 </v>
   <v>       0.00124572 </v>
   <v>       0.00124572 </v>
   <v>       0.00124572 </v>
   <v>       0.00124572 </v>
   <v>       0.00124572 </v>
   <v>       0.00124572 </v>
   <v>       0.00124572 </v>
   <v>       0.00124572 </v>
   <v>       0.00124572 </v>
   <v>       0.00124572 </v>
   <v>       0.00124572 </v>
   <v>       0.00062286 </v>
   <v>       0.00062286 </v>
   <v>       0.00124572 </v>
   <v>       0.00124572 </v>
   <v>       0.00124572 </v>
   <v>       0.00124572 </v>
   <v>       0.00124572 </v>
   <v>       0.00124572 </v>
   <v>       0.00124572 </v>
   <v>       0.00124572 </v>
   <v>       0.00124572 </v>
   <v>       0.00124572 </v>
   <v>       0.00124572 </v>
   <v>       0.00124572 </v>
   <v>       0.00062286 </v>
   <v>       0.00062286 </v>
   <v>       0.00124572 </v>
   <v>       0.00124572 </v>
   <v>       0.00124572 </v>
   <v>       0.00124572 </v>
   <v>       0.00124572 </v>
   <v>       0.00124572 </v>
   <v>       0.00124572 </v>
   <v>       0.00124572 </v>
   <v>       0.00124572 </v>
   <v>       0.00124572 </v>
   <v>       0.00124572 </v>
   <v>       0.00124572 </v>
   <v>       0.00062286 </v>
   <v>       0.00062286 </v>
   <v>       0.00124572 </v>
   <v>       0.00124572 </v>
   <v>       0.00124572 </v>
   <v>       0.00124572 </v>
   <v>       0.00124572 </v>
   <v>       0.00124572 </v>
   <v>       0.00124572 </v>
   <v>       0.00124572 </v>
   <v>       0.00124572 </v>
   <v>       0.00124572 </v>
   <v>       0.00124572 </v>
   <v>       0.00124572 </v>
   <v>       0.00062286 </v>
   <v>       0.00062286 </v>
   <v>       0.00124572 </v>
   <v>       0.00124572 </v>
   <v>       0.00124572 </v>
   <v>       0.00124572 </v>
   <v>       0.00124572 </v>
   <v>       0.00124572 </v>
   <v>       0.00124572 </v>
   <v>       0.00124572 </v>
   <v>       0.00124572 </v>
   <v>       0.00124572 </v>
   <v>       0.00124572 </v>
   <v>       0.00124572 </v>
   <v>       0.00062286 </v>
   <v>       0.00031143 </v>
   <v>       0.00062286 </v>
   <v>       0.00062286 </v>
   <v>       0.00062286 </v>
   <v>       0.00062286 </v>
   <v>       0.00062286 </v>
   <v>       0.00062286 </v>
   <v>       0.00062286 </v>
[...]
       <r>    4.8080    1.0000 </r>
       <r>    4.8732    1.0000 </r>
       <r>    5.3012    1.0000 </r>
       <r>    5.3976    1.0000 </r>
       <r>    5.6386    1.0000 </r>
       <r>    5.8041    1.0000 </r>
       <r>    5.9648    1.0000 </r>
       <r>    5.9825    1.0000 </r>
       <r>    6.0857    1.0000 </r>
       <r>    8.1906   -0.0323 </r>
       <r>    8.6872   -0.0004 </r>
       <r>    9.0128    0.0000 </r>
       <r>    9.3907    0.0000 </r>
       <r>   12.8120    0.0000 </r>
       <r>   13.3996    0.0000 </r>
       <r>   13.7900    0.0000 </r>
       <r>   14.6347    0.0000 </r>
      </set>
      <set comment="kpoint 978">
       <r>    1.5053    1.0000 </r>
       <r>    2.1112    1.0000 </r>
       <r>    2.8040    1.0000 </r>
       <r>    2.9105    1.0000 </r>
       <r>    3.7994    1.0000 </r>
       <r>    3.8695    1.0000 </r>
       <r>    4.2384    1.0000 </r>
       <r>    4.4948    1.0000 </r>
       <r>    4.5897    1.0000 </r>
       <r>    4.7385    1.0000 </r>
       <r>    4.8165    1.0000 </r>
       <r>    4.8587    1.0000 </r>
       <r>    4.9587    1.0000 </r>
       <r>    5.2954    1.0000 </r>
       <r>    5.3935    1.0000 </r>
       <r>    5.6359    1.0000 </r>
       <r>    5.9266    1.0000 </r>
       <r>    6.0422    1.0000 </r>
       <r>    6.0471    1.0000 </r>
       <r>    6.1453    1.0000 </r>
       <r>    8.6863   -0.0004 </r>
       <r>    9.1514    0.0000 </r>
       <r>    9.4295    0.0000 </r>
       <r>    9.8298    0.0000 </r>
       <r>   12.0093    0.0000 </r>
       <r>   12.5351    0.0000 </r>
       <r>   12.8067    0.0000 </r>
       <r>   13.8848    0.0000 </r>
      </set>
      <set comment="kpoint 979">
       <r>    1.4445    1.0000 </r>
       <r>    2.0512    1.0000 </r>
       <r>    2.8710    1.0000 </r>
       <r>    2.9216    1.0000 </r>
       <r>    3.7831    1.0000 </r>
       <r>    3.8564    1.0000 </r>
       <r>    4.2691    1.0000 </r>
       <r>    4.4926    1.0000 </r>
       <r>    4.5741    1.0000 </r>
       <r>    4.7884    1.0000 </r>
       <r>    4.8193    1.0000 </r>
       <r>    4.9040    1.0000 </r>
       <r>    5.0793    1.0000 </r>
       <r>    5.2925    1.0000 </r>
       <r>    5.3884    1.0000 </r>
       <r>    5.6323    1.0000 </r>
       <r>    6.0281    1.0000 </r>
       <r>    6.0901    1.0000 </r>
       <r>    6.0914    1.0000 </r>
       <r>    6.1862    1.0000 </r>
       <r>    9.2461    0.0000 </r>
       <r>    9.6152    0.0000 </r>
       <r>    9.8373    0.0000 </r>
       <r>   10.2486    0.0000 </r>
       <r>   11.3708    0.0000 </r>
       <r>   11.7416    0.0000 </r>
       <r>   11.9645    0.0000 </r>
       <r>   13.3429    0.0000 </r>
      </set>
      <set comment="kpoint 980">
       <r>    1.4240    1.0000 </r>
       <r>    2.0310    1.0000 </r>
       <r>    2.8937    1.0000 </r>
       <r>    2.9254    1.0000 </r>
       <r>    3.7765    1.0000 </r>
       <r>    3.8523    1.0000 </r>
       <r>    4.2812    1.0000 </r>
       <r>    4.4923    1.0000 </r>
       <r>    4.5620    1.0000 </r>
       <r>    4.8072    1.0000 </r>
       <r>    4.8161    1.0000 </r>
       <r>    4.9228    1.0000 </r>
       <r>    5.1182    1.0000 </r>
       <r>    5.2916    1.0000 </r>
       <r>    5.3861    1.0000 </r>
       <r>    5.6307    1.0000 </r>
       <r>    6.0664    1.0000 </r>
       <r>    6.1056    1.0000 </r>
       <r>    6.1078    1.0000 </r>
       <r>    6.2008    1.0000 </r>
       <r>    9.6650    0.0000 </r>
       <r>    9.6745    0.0000 </r>
       <r>   10.2842    0.0000 </r>
       <r>   10.3102    0.0000 </r>
       <r>   11.1788    0.0000 </r>
       <r>   11.3024    0.0000 </r>
       <r>   11.4941    0.0000 </r>
       <r>   13.1347    0.0000 </r>
      </set>
     </set>
    </set>
   </array>
  </eigenvalues>
  <separator name="orbital magnetization" >
   <v name="MAGDIPOLOUT">      0.00000000      0.00000000      0.00000000</v>
  </separator>
  <dos>
   <i name="efermi">      7.86251923 </i>
   <total>
    <array>
     <dimension dim="1">gridpoints</dimension>
     <dimension dim="2">spin</dimension>
     <field>energy</field>
     <field>total</field>
     <field>integrated</field>
     <set>
      <set comment="spin 1">
       <r>    -4.5407     0.0000     0.0000 </r>
       <r>    -4.4476     0.0000     0.0000 </r>
       <r>    -4.3546     0.0000     0.0000 </r>
       <r>    -4.2616     0.0000     0.0000 </r>
       <r>    -4.1686     0.0000     0.0000 </r>
       <r>    -4.0756     0.0000     0.0000 </r>
       <r>    -3.9826     0.0000     0.0000 </r>
       <r>    -3.8896     0.0000     0.0000 </r>
       <r>    -3.7966     0.0000     0.0000 </r>
       <r>    -3.7036     0.0000     0.0000 </r>
       <r>    -3.6106     0.0000     0.0000 </r>
       <r>    -3.5176     0.0000     0.0000 </r>
       <r>    -3.4246     0.0000     0.0000 </r>
       <r>    -3.3315     0.0000     0.0000 </r>
       <r>    -3.2385     0.0000     0.0000 </r>
       <r>    -3.1455     0.0000     0.0000 </r>
       <r>    -3.0525     0.0000     0.0000 </r>
       <r>    -2.9595     0.0000     0.0000 </r>
       <r>    -2.8665     0.0000     0.0000 </r>
       <r>    -2.7735     0.0000     0.0000 </r>
       <r>    -2.6805     0.0000     0.0000 </r>
       <r>    -2.5875     0.0000     0.0000 </r>
       <r>    -2.4945     0.0000     0.0000 </r>
       <r>    -2.4015     0.0000     0.0000 </r>
       <r>    -2.3085     0.0000     0.0000 </r>
       <r>    -2.2154    -0.0001     0.0000 </r>
       <r>    -2.1224    -0.0005    -0.0001 </r>
       <r>    -2.0294    -0.0013    -0.0002 </r>
       <r>    -1.9364    -0.0029    -0.0005 </r>
       <r>    -1.8434    -0.0046    -0.0009 </r>
       <r>    -1.7504    -0.0039    -0.0012 </r>
       <r>    -1.6574     0.0035    -0.0009 </r>
       <r>    -1.5644     0.0223     0.0012 </r>
       <r>    -1.4714     0.0536     0.0062 </r>
       <r>    -1.3784     0.0935     0.0148 </r>
       <r>    -1.2854     0.1350     0.0274 </r>
       <r>    -1.1924     0.1726     0.0435 </r>
       <r>    -1.0993     0.2048     0.0625 </r>
       <r>    -1.0063     0.2327     0.0841 </r>
       <r>    -0.9133     0.2591     0.1082 </r>
       <r>    -0.8203     0.2862     0.1349 </r>
       <r>    -0.7273     0.3147     0.1641 </r>
       <r>    -0.6343     0.3432     0.1961 </r>
       <r>    -0.5413     0.3684     0.2303 </r>
       <r>    -0.4483     0.3879     0.2664 </r>
       <r>    -0.3553     0.4017     0.3038 </r>
       <r>    -0.2623     0.4107     0.3420 </r>
       <r>    -0.1693     0.4167     0.3807 </r>
       <r>    -0.0763     0.4223     0.4200 </r>
       <r>     0.0168     0.4310     0.4601 </r>
       <r>     0.1098     0.4466     0.5016 </r>
       <r>     0.2028     0.4731     0.5456 </r>
       <r>     0.2958     0.5145     0.5935 </r>
       <r>     0.3888     0.5710     0.6466 </r>
       <r>     0.4818     0.6344     0.7056 </r>
       <r>     0.5748     0.6893     0.7697 </r>
       <r>     0.6678     0.7230     0.8369 </r>
       <r>     0.7608     0.7363     0.9054 </r>
       <r>     0.8538     0.7459     0.9748 </r>
       <r>     0.9468     0.7795     1.0473 </r>
       <r>     1.0398     0.8703     1.1282 </r>
       <r>     1.1329     1.0532     1.2262 </r>
       <r>     1.2259     1.3544     1.3522 </r>
       <r>     1.3189     1.7668     1.5165 </r>
       <r>     1.4119     2.2307     1.7240 </r>
       <r>     1.5049     2.6537     1.9708 </r>
       <r>     1.5979     2.9754     2.2475 </r>
       <r>     1.6909     3.2187     2.5469 </r>
       <r>     1.7839     3.4625     2.8689 </r>
       <r>     1.8769     3.7546     3.2181 </r>
       <r>     1.9699     4.0675     3.5964 </r>
       <r>     2.0629     4.3412     4.0002 </r>
       <r>     2.1559     4.5399     4.4224 </r>
       <r>     2.2490     4.6576     4.8556 </r>
       <r>     2.3420     4.7064     5.2934 </r>
       <r>     2.4350     4.7387     5.7341 </r>
       <r>     2.5280     4.8584     6.1860 </r>
       <r>     2.6210     5.1500     6.6650 </r>
       <r>     2.7140     5.5561     7.1817 </r>
       <r>     2.8070     5.8380     7.7247 </r>
       <r>     2.9000     5.7137     8.2561 </r>
       <r>     2.9930     5.0895     8.7295 </r>
       <r>     3.0860     4.1753     9.1179 </r>
       <r>     3.1790     3.3648     9.4308 </r>
       <r>     3.2720     2.9775     9.7077 </r>
       <r>     3.3651     3.0774     9.9940 </r>
       <r>     3.4581     3.4969    10.3192 </r>
       <r>     3.5511     4.0074    10.6919 </r>
       <r>     3.6441     4.4691    11.1076 </r>
       <r>     3.7371     4.8550    11.5591 </r>
       <r>     3.8301     5.1966    12.0425 </r>
       <r>     3.9231     5.5520    12.5588 </r>
       <r>     4.0161     5.9980    13.1167 </r>
       <r>     4.1091     6.5823    13.7289 </r>
       <r>     4.2021     7.2634    14.4045 </r>
       <r>     4.2951     7.9398    15.1430 </r>
       <r>     4.3881     8.5465    15.9378 </r>
       <r>     4.4811     9.0861    16.7829 </r>
       <r>     4.5742     9.5710    17.6731 </r>
       <r>     4.6672     9.9942    18.6027 </r>
       <r>     4.7602    10.3849    19.5685 </r>
       <r>     4.8532    10.8543    20.5781 </r>
       <r>     4.9462    11.5245    21.6500 </r>
       <r>     5.0392    12.3777    22.8012 </r>
       <r>     5.1322    13.1852    24.0275 </r>
       <r>     5.2252    13.6311    25.2953 </r>
       <r>     5.3182    13.5411    26.5548 </r>
       <r>     5.4112    13.0242    27.7661 </r>
       <r>     5.5042    12.4220    28.9215 </r>
       <r>     5.5972    12.1102    30.0478 </r>
       <r>     5.6903    12.2920    31.1911 </r>
       <r>     5.7833    12.9559    32.3961 </r>
       <r>     5.8763    14.0210    33.7001 </r>
       <r>     5.9693    15.4049    35.1329 </r>
       <r>     6.0623    16.7845    36.6940 </r>
       <r>     6.1553    17.3524    38.3079 </r>
       <r>     6.2483    16.1559    39.8106 </r>
       <r>     6.3413    12.9504    41.0151 </r>
       <r>     6.4343     8.6501    41.8196 </r>
       <r>     6.5273     4.7441    42.2608 </r>
       <r>     6.6203     2.2414    42.4693 </r>
       <r>     6.7133     1.1901    42.5800 </r>
       <r>     6.8064     1.0295    42.6757 </r>
       <r>     6.8994     1.1795    42.7854 </r>
       <r>     6.9924     1.3251    42.9087 </r>
       <r>     7.0854     1.3799    43.0370 </r>
       <r>     7.1784     1.3606    43.1636 </r>
       <r>     7.2714     1.3072    43.2852 </r>
       <r>     7.3644     1.2561    43.4020 </r>
       <r>     7.4574     1.2271    43.5161 </r>
       <r>     7.5504     1.2154    43.6292 </r>
       <r>     7.6434     1.2030    43.7411 </r>
       <r>     7.7364     1.1859    43.8514 </r>
       <r>     7.8294     1.1780    43.9609 </r>
       <r>     7.9225     1.1859    44.0712 </r>
       <r>     8.0155     1.1953    44.1824 </r>
       <r>     8.1085     1.1895    44.2930 </r>
       <r>     8.2015     1.1668    44.4015 </r>
       <r>     8.2945     1.1360    44.5072 </r>
       <r>     8.3875     1.1063    44.6101 </r>
       <r>     8.4805     1.0886    44.7113 </r>
       <r>     8.5735     1.0925    44.8130 </r>
       <r>     8.6665     1.1144    44.9166 </r>
       <r>     8.7595     1.1328    45.0220 </r>
       <r>     8.8525     1.1258    45.1267 </r>
       <r>     8.9455     1.0920    45.2282 </r>
       <r>     9.0386     1.0536    45.3262 </r>
       <r>     9.1316     1.0366    45.4227 </r>
       <r>     9.2246     1.0451    45.5199 </r>
       <r>     9.3176     1.0573    45.6182 </r>
       <r>     9.4106     1.0518    45.7160 </r>
       <r>     9.5036     1.0320    45.8120 </r>
       <r>     9.5966     1.0157    45.9065 </r>
       <r>     9.6896     1.0065    46.0001 </r>
       <r>     9.7826     0.9898    46.0922 </r>
       <r>     9.8756     0.9577    46.1812 </r>
       <r>     9.9686     0.9238    46.2672 </r>
       <r>    10.0616     0.9082    46.3516 </r>
       <r>    10.1547     0.9150    46.4367 </r>
       <r>    10.2477     0.9282    46.5231 </r>
       <r>    10.3407     0.9250    46.6091 </r>
       <r>    10.4337     0.8931    46.6922 </r>
       <r>    10.5267     0.8412    46.7704 </r>
       <r>    10.6197     0.7951    46.8444 </r>
       <r>    10.7127     0.7773    46.9167 </r>
       <r>    10.8057     0.7883    46.9900 </r>
       <r>    10.8987     0.8117    47.0655 </r>
       <r>    10.9917     0.8374    47.1434 </r>
       <r>    11.0847     0.8735    47.2246 </r>
       <r>    11.1777     0.9289    47.3110 </r>
       <r>    11.2708     0.9910    47.4032 </r>
       <r>    11.3638     1.0323    47.4992 </r>
       <r>    11.4568     1.0408    47.5960 </r>
       <r>    11.5498     1.0321    47.6920 </r>
       <r>    11.6428     1.0298    47.7878 </r>
       <r>    11.7358     1.0423    47.8847 </r>
       <r>    11.8288     1.0656    47.9838 </r>
       <r>    11.9218     1.0988    48.0860 </r>
       <r>    12.0148     1.1427    48.1923 </r>
       <r>    12.1078     1.1880    48.3028 </r>
       <r>    12.2008     1.2168    48.4160 </r>
       <r>    12.2938     1.2214    48.5296 </r>
       <r>    12.3869     1.2114    48.6422 </r>
       <r>    12.4799     1.2000    48.7539 </r>
       <r>    12.5729     1.1900    48.8645 </r>
       <r>    12.6659     1.1759    48.9739 </r>
       <r>    12.7589     1.1525    49.0811 </r>
       <r>    12.8519     1.1173    49.1850 </r>
       <r>    12.9449     1.0745    49.2850 </r>
       <r>    13.0379     1.0359    49.3813 </r>
       <r>    13.1309     1.0150    49.4757 </r>
       <r>    13.2239     1.0248    49.5710 </r>
       <r>    13.3169     1.0894    49.6723 </r>
       <r>    13.4099     1.2490    49.7885 </r>
       <r>    13.5030     1.5336    49.9311 </r>
       <r>    13.5960     1.9187    50.1096 </r>
       <r>    13.6890     2.3116    50.3246 </r>
       <r>    13.7820     2.5924    50.5657 </r>
       <r>    13.8750     2.6851    50.8155 </r>
       <r>    13.9680     2.6062    51.0579 </r>
       <r>    14.0610     2.4481    51.2856 </r>
       <r>    14.1540     2.3097    51.5004 </r>
       <r>    14.2470     2.2288    51.7077 </r>
       <r>    14.3400     2.1776    51.9102 </r>
       <r>    14.4330     2.1157    52.1070 </r>
       <r>    14.5260     2.0377    52.2965 </r>
       <r>    14.6191     1.9714    52.4799 </r>
       <r>    14.7121     1.9408    52.6604 </r>
       <r>    14.8051     1.9380    52.8406 </r>
       <r>    14.8981     1.9333    53.0204 </r>
       <r>    14.9911     1.9122    53.1983 </r>
       <r>    15.0841     1.8957    53.3746 </r>
       <r>    15.1771     1.9116    53.5524 </r>
       <r>    15.2701     1.9514    53.7339 </r>
       <r>    15.3631     1.9736    53.9175 </r>
       <r>    15.4561     1.9592    54.0997 </r>
       <r>    15.5491     1.9511    54.2811 </r>
       <r>    15.6421     2.0310    54.4700 </r>
       <r>    15.7352     2.2455    54.6789 </r>
       <r>    15.8282     2.5328    54.9145 </r>
       <r>    15.9212     2.7118    55.1667 </r>
       <r>    16.0142     2.5792    55.4066 </r>
       <r>    16.1072     2.0708    55.5992 </r>
       <r>    16.2002     1.3398    55.7238 </r>
       <r>    16.2932     0.6557    55.7848 </r>
       <r>    16.3862     0.2133    55.8046 </r>
       <r>    16.4792     0.0327    55.8077 </r>
       <r>    16.5722     0.0149    55.8090 </r>
       <r>    16.6652     0.0520    55.8139 </r>
       <r>    16.7582     0.0882    55.8221 </r>
       <r>    16.8512     0.1123    55.8325 </r>
       <r>    16.9443     0.1283    55.8445 </r>
       <r>    17.0373     0.1381    55.8573 </r>
       <r>    17.1303     0.1404    55.8704 </r>
       <r>    17.2233     0.1349    55.8829 </r>
       <r>    17.3163     0.1242    55.8945 </r>
       <r>    17.4093     0.1118    55.9049 </r>
       <r>    17.5023     0.0993    55.9141 </r>
       <r>    17.5953     0.0862    55.9221 </r>
       <r>    17.6883     0.0727    55.9289 </r>
       <r>    17.7813     0.0614    55.9346 </r>
       <r>    17.8743     0.0554    55.9397 </r>
       <r>    17.9673     0.0555    55.9449 </r>
       <r>    18.0604     0.0593    55.9504 </r>
       <r>    18.1534     0.0622    55.9562 </r>
       <r>    18.2464     0.0608    55.9618 </r>
       <r>    18.3394     0.0546    55.9669 </r>
       <r>    18.4324     0.0458    55.9712 </r>
       <r>    18.5254     0.0368    55.9746 </r>
       <r>    18.6184     0.0290    55.9773 </r>
       <r>    18.7114     0.0232    55.9795 </r>
       <r>    18.8044     0.0196    55.9813 </r>
       <r>    18.8974     0.0171    55.9829 </r>
       <r>    18.9904     0.0141    55.9842 </r>
       <r>    19.0834     0.0105    55.9852 </r>
       <r>    19.1765     0.0079    55.9859 </r>
       <r>    19.2695     0.0082    55.9867 </r>
       <r>    19.3625     0.0114    55.9877 </r>
       <r>    19.4555     0.0152    55.9891 </r>
       <r>    19.5485     0.0169    55.9907 </r>
       <r>    19.6415     0.0160    55.9922 </r>
       <r>    19.7345     0.0140    55.9935 </r>
       <r>    19.8275     0.0126    55.9947 </r>
       <r>    19.9205     0.0120    55.9958 </r>
       <r>    20.0135     0.0115    55.9969 </r>
       <r>    20.1065     0.0105    55.9978 </r>
       <r>    20.1995     0.0089    55.9987 </r>
       <r>    20.2926     0.0068    55.9993 </r>
       <r>    20.3856     0.0046    55.9997 </r>
       <r>    20.4786     0.0026    56.0000 </r>
       <r>    20.5716     0.0010    56.0001 </r>
       <r>    20.6646     0.0001    56.0001 </r>
       <r>    20.7576    -0.0002    56.0000 </r>
       <r>    20.8506    -0.0002    56.0000 </r>
       <r>    20.9436    -0.0001    56.0000 </r>
       <r>    21.0366    -0.0001    56.0000 </r>
       <r>    21.1296     0.0000    56.0000 </r>
       <r>    21.2226     0.0000    56.0000 </r>
       <r>    21.3156     0.0000    56.0000 </r>
       <r>    21.4087     0.0000    56.0000 </r>
       <r>    21.5017     0.0000    56.0000 </r>
       <r>    21.5947     0.0000    56.0000 </r>
       <r>    21.6877     0.0000    56.0000 </r>
       <r>    21.7807     0.0000    56.0000 </r>
       <r>    21.8737     0.0000    56.0000 </r>
       <r>    21.9667     0.0000    56.0000 </r>
       <r>    22.0597     0.0000    56.0000 </r>
       <r>    22.1527     0.0000    56.0000 </r>
       <r>    22.2457     0.0000    56.0000 </r>
       <r>    22.3387     0.0000    56.0000 </r>
       <r>    22.4317     0.0000    56.0000 </r>
       <r>    22.5248     0.0000    56.0000 </r>
       <r>    22.6178     0.0000    56.0000 </r>
       <r>    22.7108     0.0000    56.0000 </r>
       <r>    22.8038     0.0000    56.0000 </r>
       <r>    22.8968     0.0000    56.0000 </r>
       <r>    22.9898     0.0000    56.0000 </r>
       <r>    23.0828     0.0000    56.0000 </r>
       <r>    23.1758     0.0000    56.0000 </r>
       <r>    23.2688     0.0000    56.0000 </r>
       <r>    23.3618     0.0000    56.0000 </r>
      </set>
     </set>
    </array>
   </total>
  </dos>
 </calculation>
 <structure name="finalpos" >
  <crystal>
   <varray name="basis" >
    <v>       0.00000000      -1.93610824      -1.93610824 </v>
    <v>      -3.63766468       0.00000000       0.00000000 </v>
    <v>       0.00000000       3.85299101      -3.85299101 </v>
   </varray>
   <i name="volume">     54.27255743 </i>
   <varray name="rec_basis" >
    <v>       0.00000000      -0.25825002      -0.25825002 </v>
    <v>      -0.27490164       0.00000000       0.00000000 </v>
    <v>       0.00000000       0.12976931      -0.12976931 </v>
   </varray>
  </crystal>
  <varray name="positions" >
   <v>       0.50000000       0.50000000       0.27036781 </v>
   <v>       0.00000000       0.00000000       0.50000000 </v>
   <v>       0.50000000       0.50000000       0.72963219 </v>
   <v>       0.00000000       0.00000000       0.00000000 </v>
  </varray>
 </structure>
</modeling>
