<?xml version="1.0" encoding="ISO-8859-1"?>
<modeling>
 <generator>
  <i name="program" type="string">vasp </i>
  <i name="version" type="string">5.3.5  </i>
  <i name="subversion" type="string">31Mar14 (build Jun 20 2014 13:15:13) complex                          parallel </i>
  <i name="platform" type="string">LinuxIFC </i>
  <i name="date" type="string">2025 11 28 </i>
  <i name="time" type="string">11:41:36 </i>
 </generator>
 <incar>
  <i type="string" name="PREC">accurate</i>
  <i type="int" name="IALGO">    68</i>
  <i type="logical" name="ADDGRID"> T  </i>
  <i type="int" name="NELM">   200</i>
  <i type="int" name="NELMIN">     4</i>
  <i type="int" name="IBRION">     2</i>
  <i name="EDIFF">      0.00000100</i>
  <i name="EDIFFG">     -0.02000000</i>
  <i type="int" name="NSW">    30</i>
  <i type="int" name="ISIF">     3</i>
  <i name="ENCUT">    500.00000000</i>
  <i type="logical" name="LREAL"> F  </i>
  <i type="int" name="ISMEAR">     1</i>
  <i name="SIGMA">      0.30000000</i>
  <i type="logical" name="LWAVE"> F  </i>
  <i type="logical" name="LCHARG"> F  </i>
  <i type="int" name="NELM">   200</i>
 </incar>
 <kpoints>
  <generation param="Auto">
   <i name="subdivisionlength">     70.00000000 </i>
   <v type="int" name="divisions">      25       25        6 </v>
   <v name="usershift">      0.00000000       0.00000000       0.00000000 </v>
   <v name="genvec1">      0.04000000       0.00000000       0.00000000 </v>
   <v name="genvec2">      0.00000000       0.04000000       0.00000000 </v>
   <v name="genvec3">      0.00000000       0.00000000       0.16666667 </v>
   <v name="shift">      0.00000000       0.00000000       0.00000000 </v>
  </generation>
  <varray name="kpointlist" >
   <v>       0.00000000       0.00000000       0.00000000 </v>
   <v>       0.04000000       0.00000000       0.00000000 </v>
   <v>       0.08000000       0.00000000       0.00000000 </v>
   <v>       0.12000000       0.00000000       0.00000000 </v>
   <v>       0.16000000       0.00000000       0.00000000 </v>
   <v>       0.20000000       0.00000000       0.00000000 </v>
   <v>       0.24000000       0.00000000       0.00000000 </v>
   <v>       0.28000000       0.00000000       0.00000000 </v>
   <v>       0.32000000       0.00000000       0.00000000 </v>
   <v>       0.36000000       0.00000000       0.00000000 </v>
   <v>       0.40000000       0.00000000       0.00000000 </v>
   <v>       0.44000000       0.00000000       0.00000000 </v>
   <v>       0.48000000       0.00000000       0.00000000 </v>
   <v>       0.04000000       0.04000000       0.00000000 </v>
   <v>       0.08000000       0.04000000       0.00000000 </v>
   <v>       0.12000000       0.04000000       0.00000000 </v>
   <v>       0.16000000       0.04000000       0.00000000 </v>
   <v>       0.20000000       0.04000000       0.00000000 </v>
   <v>       0.24000000       0.04000000       0.00000000 </v>
   <v>       0.28000000       0.04000000       0.00000000 </v>
   <v>       0.32000000       0.04000000       0.00000000 </v>
   <v>       0.36000000       0.04000000       0.00000000 </v>
   <v>       0.40000000       0.04000000       0.00000000 </v>
   <v>       0.44000000       0.04000000       0.00000000 </v>
   <v>       0.48000000       0.04000000       0.00000000 </v>
   <v>       0.08000000       0.08000000       0.00000000 </v>
   <v>       0.12000000       0.08000000       0.00000000 </v>
   <v>       0.16000000       0.08000000       0.00000000 </v>
   <v>       0.20000000       0.08000000       0.00000000 </v>
   <v>       0.24000000       0.08000000       0.00000000 </v>
   <v>       0.28000000       0.08000000       0.00000000 </v>
   <v>       0.32000000       0.08000000       0.00000000 </v>
   <v>       0.36000000       0.08000000       0.00000000 </v>
   <v>       0.40000000       0.08000000       0.00000000 </v>
   <v>       0.44000000       0.08000000       0.00000000 </v>
   <v>       0.48000000       0.08000000       0.00000000 </v>
   <v>       0.12000000       0.12000000       0.00000000 </v>
   <v>       0.16000000       0.12000000       0.00000000 </v>
   <v>       0.20000000       0.12000000       0.00000000 </v>
   <v>       0.24000000       0.12000000       0.00000000 </v>
   <v>       0.28000000       0.12000000       0.00000000 </v>
   <v>       0.32000000       0.12000000       0.00000000 </v>
   <v>       0.36000000       0.12000000       0.00000000 </v>
   <v>       0.40000000       0.12000000       0.00000000 </v>
   <v>       0.44000000       0.12000000       0.00000000 </v>
   <v>       0.48000000       0.12000000       0.00000000 </v>
   <v>       0.16000000       0.16000000       0.00000000 </v>
   <v>       0.20000000       0.16000000       0.00000000 </v>
   <v>       0.24000000       0.16000000       0.00000000 </v>
   <v>       0.28000000       0.16000000       0.00000000 </v>
   <v>       0.32000000       0.16000000       0.00000000 </v>
   <v>       0.36000000       0.16000000       0.00000000 </v>
   <v>       0.40000000       0.16000000       0.00000000 </v>
   <v>       0.44000000       0.16000000       0.00000000 </v>
   <v>       0.48000000       0.16000000       0.00000000 </v>
   <v>       0.20000000       0.20000000       0.00000000 </v>
   <v>       0.24000000       0.20000000       0.00000000 </v>
   <v>       0.28000000       0.20000000       0.00000000 </v>
   <v>       0.32000000       0.20000000       0.00000000 </v>
   <v>       0.36000000       0.20000000       0.00000000 </v>
   <v>       0.40000000       0.20000000       0.00000000 </v>
   <v>       0.44000000       0.20000000       0.00000000 </v>
   <v>       0.48000000       0.20000000       0.00000000 </v>
   <v>       0.24000000       0.24000000       0.00000000 </v>
   <v>       0.28000000       0.24000000       0.00000000 </v>
   <v>       0.32000000       0.24000000       0.00000000 </v>
   <v>       0.36000000       0.24000000       0.00000000 </v>
   <v>       0.40000000       0.24000000       0.00000000 </v>
   <v>       0.44000000       0.24000000       0.00000000 </v>
   <v>       0.48000000       0.24000000       0.00000000 </v>
   <v>       0.28000000       0.28000000       0.00000000 </v>
   <v>       0.32000000       0.28000000       0.00000000 </v>
   <v>       0.36000000       0.28000000       0.00000000 </v>
   <v>       0.40000000       0.28000000       0.00000000 </v>
   <v>       0.44000000       0.28000000       0.00000000 </v>
   <v>       0.48000000       0.28000000       0.00000000 </v>
   <v>       0.32000000       0.32000000       0.00000000 </v>
   <v>       0.36000000       0.32000000       0.00000000 </v>
   <v>       0.40000000       0.32000000       0.00000000 </v>
   <v>       0.44000000       0.32000000       0.00000000 </v>
   <v>       0.48000000       0.32000000       0.00000000 </v>
   <v>       0.36000000       0.36000000       0.00000000 </v>
   <v>       0.40000000       0.36000000       0.00000000 </v>
   <v>       0.44000000       0.36000000       0.00000000 </v>
   <v>       0.48000000       0.36000000       0.00000000 </v>
   <v>       0.40000000       0.40000000       0.00000000 </v>
   <v>       0.44000000       0.40000000       0.00000000 </v>
   <v>       0.48000000       0.40000000       0.00000000 </v>
   <v>       0.44000000       0.44000000       0.00000000 </v>
   <v>       0.48000000       0.44000000       0.00000000 </v>
   <v>       0.48000000       0.48000000       0.00000000 </v>
   <v>       0.00000000       0.00000000       0.16666667 </v>
   <v>       0.04000000       0.00000000       0.16666667 </v>
   <v>       0.08000000       0.00000000       0.16666667 </v>
   <v>       0.12000000       0.00000000       0.16666667 </v>
   <v>       0.16000000       0.00000000       0.16666667 </v>
   <v>       0.20000000       0.00000000       0.16666667 </v>
   <v>       0.24000000       0.00000000       0.16666667 </v>
   <v>       0.28000000       0.00000000       0.16666667 </v>
   <v>       0.32000000       0.00000000       0.16666667 </v>
   <v>       0.36000000       0.00000000       0.16666667 </v>
   <v>       0.40000000       0.00000000       0.16666667 </v>
   <v>       0.44000000       0.00000000       0.16666667 </v>
   <v>       0.48000000       0.00000000       0.16666667 </v>
   <v>       0.04000000       0.04000000       0.16666667 </v>
   <v>       0.08000000       0.04000000       0.16666667 </v>
   <v>       0.12000000       0.04000000       0.16666667 </v>
   <v>       0.16000000       0.04000000       0.16666667 </v>
   <v>       0.20000000       0.04000000       0.16666667 </v>
   <v>       0.24000000       0.04000000       0.16666667 </v>
   <v>       0.28000000       0.04000000       0.16666667 </v>
   <v>       0.32000000       0.04000000       0.16666667 </v>
   <v>       0.36000000       0.04000000       0.16666667 </v>
   <v>       0.40000000       0.04000000       0.16666667 </v>
   <v>       0.44000000       0.04000000       0.16666667 </v>
   <v>       0.48000000       0.04000000       0.16666667 </v>
   <v>       0.08000000       0.08000000       0.16666667 </v>
   <v>       0.12000000       0.08000000       0.16666667 </v>
   <v>       0.16000000       0.08000000       0.16666667 </v>
   <v>       0.20000000       0.08000000       0.16666667 </v>
   <v>       0.24000000       0.08000000       0.16666667 </v>
   <v>       0.28000000       0.08000000       0.16666667 </v>
   <v>       0.32000000       0.08000000       0.16666667 </v>
   <v>       0.36000000       0.08000000       0.16666667 </v>
   <v>       0.40000000       0.08000000       0.16666667 </v>
   <v>       0.44000000       0.08000000       0.16666667 </v>
   <v>       0.48000000       0.08000000       0.16666667 </v>
   <v>       0.12000000       0.12000000       0.16666667 </v>
   <v>       0.16000000       0.12000000       0.16666667 </v>
   <v>       0.20000000       0.12000000       0.16666667 </v>
   <v>       0.24000000       0.12000000       0.16666667 </v>
   <v>       0.28000000       0.12000000       0.16666667 </v>
   <v>       0.32000000       0.12000000       0.16666667 </v>
   <v>       0.36000000       0.12000000       0.16666667 </v>
   <v>       0.40000000       0.12000000       0.16666667 </v>
   <v>       0.44000000       0.12000000       0.16666667 </v>
   <v>       0.48000000       0.12000000       0.16666667 </v>
   <v>       0.16000000       0.16000000       0.16666667 </v>
   <v>       0.20000000       0.16000000       0.16666667 </v>
   <v>       0.24000000       0.16000000       0.16666667 </v>
   <v>       0.28000000       0.16000000       0.16666667 </v>
   <v>       0.32000000       0.16000000       0.16666667 </v>
   <v>       0.36000000       0.16000000       0.16666667 </v>
   <v>       0.40000000       0.16000000       0.16666667 </v>
   <v>       0.44000000       0.16000000       0.16666667 </v>
   <v>       0.48000000       0.16000000       0.16666667 </v>
   <v>       0.20000000       0.20000000       0.16666667 </v>
   <v>       0.24000000       0.20000000       0.16666667 </v>
   <v>       0.28000000       0.20000000       0.16666667 </v>
   <v>       0.32000000       0.20000000       0.16666667 </v>
   <v>       0.36000000       0.20000000       0.16666667 </v>
   <v>       0.40000000       0.20000000       0.16666667 </v>
   <v>       0.44000000       0.20000000       0.16666667 </v>
   <v>       0.48000000       0.20000000       0.16666667 </v>
   <v>       0.24000000       0.24000000       0.16666667 </v>
   <v>       0.28000000       0.24000000       0.16666667 </v>
   <v>       0.32000000       0.24000000       0.16666667 </v>
   <v>       0.36000000       0.24000000       0.16666667 </v>
   <v>       0.40000000       0.24000000       0.16666667 </v>
   <v>       0.44000000       0.24000000       0.16666667 </v>
   <v>       0.48000000       0.24000000       0.16666667 </v>
   <v>       0.28000000       0.28000000       0.16666667 </v>
   <v>       0.32000000       0.28000000       0.16666667 </v>
   <v>       0.36000000       0.28000000       0.16666667 </v>
   <v>       0.40000000       0.28000000       0.16666667 </v>
   <v>       0.44000000       0.28000000       0.16666667 </v>
   <v>       0.48000000       0.28000000       0.16666667 </v>
   <v>       0.32000000       0.32000000       0.16666667 </v>
   <v>       0.36000000       0.32000000       0.16666667 </v>
   <v>       0.40000000       0.32000000       0.16666667 </v>
   <v>       0.44000000       0.32000000       0.16666667 </v>
   <v>       0.48000000       0.32000000       0.16666667 </v>
   <v>       0.36000000       0.36000000       0.16666667 </v>
   <v>       0.40000000       0.36000000       0.16666667 </v>
   <v>       0.44000000       0.36000000       0.16666667 </v>
   <v>       0.48000000       0.36000000       0.16666667 </v>
   <v>       0.40000000       0.40000000       0.16666667 </v>
   <v>       0.44000000       0.40000000       0.16666667 </v>
   <v>       0.48000000       0.40000000       0.16666667 </v>
   <v>       0.44000000       0.44000000       0.16666667 </v>
   <v>       0.48000000       0.44000000       0.16666667 </v>
   <v>       0.48000000       0.48000000       0.16666667 </v>
   <v>       0.00000000       0.00000000       0.33333333 </v>
   <v>       0.04000000       0.00000000       0.33333333 </v>
   <v>       0.08000000       0.00000000       0.33333333 </v>
   <v>       0.12000000       0.00000000       0.33333333 </v>
   <v>       0.16000000       0.00000000       0.33333333 </v>
   <v>       0.20000000       0.00000000       0.33333333 </v>
   <v>       0.24000000       0.00000000       0.33333333 </v>
   <v>       0.28000000       0.00000000       0.33333333 </v>
   <v>       0.32000000       0.00000000       0.33333333 </v>
   <v>       0.36000000       0.00000000       0.33333333 </v>
   <v>       0.40000000       0.00000000       0.33333333 </v>
   <v>       0.44000000       0.00000000       0.33333333 </v>
   <v>       0.48000000       0.00000000       0.33333333 </v>
   <v>       0.04000000       0.04000000       0.33333333 </v>
   <v>       0.08000000       0.04000000       0.33333333 </v>
   <v>       0.12000000       0.04000000       0.33333333 </v>
   <v>       0.16000000       0.04000000       0.33333333 </v>
   <v>       0.20000000       0.04000000       0.33333333 </v>
   <v>       0.24000000       0.04000000       0.33333333 </v>
   <v>       0.28000000       0.04000000       0.33333333 </v>
   <v>       0.32000000       0.04000000       0.33333333 </v>
   <v>       0.36000000       0.04000000       0.33333333 </v>
   <v>       0.40000000       0.04000000       0.33333333 </v>
   <v>       0.44000000       0.04000000       0.33333333 </v>
   <v>       0.48000000       0.04000000       0.33333333 </v>
   <v>       0.08000000       0.08000000       0.33333333 </v>
   <v>       0.12000000       0.08000000       0.33333333 </v>
   <v>       0.16000000       0.08000000       0.33333333 </v>
   <v>       0.20000000       0.08000000       0.33333333 </v>
   <v>       0.24000000       0.08000000       0.33333333 </v>
   <v>       0.28000000       0.08000000       0.33333333 </v>
   <v>       0.32000000       0.08000000       0.33333333 </v>
   <v>       0.36000000       0.08000000       0.33333333 </v>
   <v>       0.40000000       0.08000000       0.33333333 </v>
   <v>       0.44000000       0.08000000       0.33333333 </v>
   <v>       0.48000000       0.08000000       0.33333333 </v>
   <v>       0.12000000       0.12000000       0.33333333 </v>
   <v>       0.16000000       0.12000000       0.33333333 </v>
   <v>       0.20000000       0.12000000       0.33333333 </v>
   <v>       0.24000000       0.12000000       0.33333333 </v>
   <v>       0.28000000       0.12000000       0.33333333 </v>
   <v>       0.32000000       0.12000000       0.33333333 </v>
   <v>       0.36000000       0.12000000       0.33333333 </v>
   <v>       0.40000000       0.12000000       0.33333333 </v>
   <v>       0.44000000       0.12000000       0.33333333 </v>
   <v>       0.48000000       0.12000000       0.33333333 </v>
   <v>       0.16000000       0.16000000       0.33333333 </v>
   <v>       0.20000000       0.16000000       0.33333333 </v>
   <v>       0.24000000       0.16000000       0.33333333 </v>
   <v>       0.28000000       0.16000000       0.33333333 </v>
   <v>       0.32000000       0.16000000       0.33333333 </v>
   <v>       0.36000000       0.16000000       0.33333333 </v>
   <v>       0.40000000       0.16000000       0.33333333 </v>
   <v>       0.44000000       0.16000000       0.33333333 </v>
   <v>       0.48000000       0.16000000       0.33333333 </v>
   <v>       0.20000000       0.20000000       0.33333333 </v>
   <v>       0.24000000       0.20000000       0.33333333 </v>
   <v>       0.28000000       0.20000000       0.33333333 </v>
   <v>       0.32000000       0.20000000       0.33333333 </v>
   <v>       0.36000000       0.20000000       0.33333333 </v>
   <v>       0.40000000       0.20000000       0.33333333 </v>
   <v>       0.44000000       0.20000000       0.33333333 </v>
   <v>       0.48000000       0.20000000       0.33333333 </v>
   <v>       0.24000000       0.24000000       0.33333333 </v>
   <v>       0.28000000       0.24000000       0.33333333 </v>
   <v>       0.32000000       0.24000000       0.33333333 </v>
   <v>       0.36000000       0.24000000       0.33333333 </v>
   <v>       0.40000000       0.24000000       0.33333333 </v>
   <v>       0.44000000       0.24000000       0.33333333 </v>
   <v>       0.48000000       0.24000000       0.33333333 </v>
   <v>       0.28000000       0.28000000       0.33333333 </v>
   <v>       0.32000000       0.28000000       0.33333333 </v>
   <v>       0.36000000       0.28000000       0.33333333 </v>
   <v>       0.40000000       0.28000000       0.33333333 </v>
   <v>       0.44000000       0.28000000       0.33333333 </v>
   <v>       0.48000000       0.28000000       0.33333333 </v>
   <v>       0.32000000       0.32000000       0.33333333 </v>
   <v>       0.36000000       0.32000000       0.33333333 </v>
   <v>       0.40000000       0.32000000       0.33333333 </v>
   <v>       0.44000000       0.32000000       0.33333333 </v>
   <v>       0.48000000       0.32000000       0.33333333 </v>
   <v>       0.36000000       0.36000000       0.33333333 </v>
   <v>       0.40000000       0.36000000       0.33333333 </v>
   <v>       0.44000000       0.36000000       0.33333333 </v>
   <v>       0.48000000       0.36000000       0.33333333 </v>
   <v>       0.40000000       0.40000000       0.33333333 </v>
   <v>       0.44000000       0.40000000       0.33333333 </v>
   <v>       0.48000000       0.40000000       0.33333333 </v>
   <v>       0.44000000       0.44000000       0.33333333 </v>
   <v>       0.48000000       0.44000000       0.33333333 </v>
   <v>       0.48000000       0.48000000       0.33333333 </v>
   <v>       0.00000000       0.00000000       0.50000000 </v>
   <v>       0.04000000       0.00000000       0.50000000 </v>
   <v>       0.08000000       0.00000000       0.50000000 </v>
   <v>       0.12000000       0.00000000       0.50000000 </v>
   <v>       0.16000000       0.00000000       0.50000000 </v>
   <v>       0.20000000       0.00000000       0.50000000 </v>
   <v>       0.24000000       0.00000000       0.50000000 </v>
   <v>       0.28000000       0.00000000       0.50000000 </v>
   <v>       0.32000000       0.00000000       0.50000000 </v>
   <v>       0.36000000       0.00000000       0.50000000 </v>
   <v>       0.40000000       0.00000000       0.50000000 </v>
   <v>       0.44000000       0.00000000       0.50000000 </v>
   <v>       0.48000000       0.00000000       0.50000000 </v>
   <v>       0.04000000       0.04000000       0.50000000 </v>
   <v>       0.08000000       0.04000000       0.50000000 </v>
   <v>       0.12000000       0.04000000       0.50000000 </v>
   <v>       0.16000000       0.04000000       0.50000000 </v>
   <v>       0.20000000       0.04000000       0.50000000 </v>
   <v>       0.24000000       0.04000000       0.50000000 </v>
   <v>       0.28000000       0.04000000       0.50000000 </v>
   <v>       0.32000000       0.04000000       0.50000000 </v>
   <v>       0.36000000       0.04000000       0.50000000 </v>
   <v>       0.40000000       0.04000000       0.50000000 </v>
   <v>       0.44000000       0.04000000       0.50000000 </v>
   <v>       0.48000000       0.04000000       0.50000000 </v>
   <v>       0.08000000       0.08000000       0.50000000 </v>
   <v>       0.12000000       0.08000000       0.50000000 </v>
   <v>       0.16000000       0.08000000       0.50000000 </v>
   <v>       0.20000000       0.08000000       0.50000000 </v>
   <v>       0.24000000       0.08000000       0.50000000 </v>
   <v>       0.28000000       0.08000000       0.50000000 </v>
   <v>       0.32000000       0.08000000       0.50000000 </v>
   <v>       0.36000000       0.08000000       0.50000000 </v>
   <v>       0.40000000       0.08000000       0.50000000 </v>
   <v>       0.44000000       0.08000000       0.50000000 </v>
   <v>       0.48000000       0.08000000       0.50000000 </v>
   <v>       0.12000000       0.12000000       0.50000000 </v>
   <v>       0.16000000       0.12000000       0.50000000 </v>
   <v>       0.20000000       0.12000000       0.50000000 </v>
   <v>       0.24000000       0.12000000       0.50000000 </v>
   <v>       0.28000000       0.12000000       0.50000000 </v>
   <v>       0.32000000       0.12000000       0.50000000 </v>
   <v>       0.36000000       0.12000000       0.50000000 </v>
   <v>       0.40000000       0.12000000       0.50000000 </v>
   <v>       0.44000000       0.12000000       0.50000000 </v>
   <v>       0.48000000       0.12000000       0.50000000 </v>
   <v>       0.16000000       0.16000000       0.50000000 </v>
   <v>       0.20000000       0.16000000       0.50000000 </v>
   <v>       0.24000000       0.16000000       0.50000000 </v>
   <v>       0.28000000       0.16000000       0.50000000 </v>
   <v>       0.32000000       0.16000000       0.50000000 </v>
   <v>       0.36000000       0.16000000       0.50000000 </v>
   <v>       0.40000000       0.16000000       0.50000000 </v>
   <v>       0.44000000       0.16000000       0.50000000 </v>
   <v>       0.48000000       0.16000000       0.50000000 </v>
   <v>       0.20000000       0.20000000       0.50000000 </v>
   <v>       0.24000000       0.20000000       0.50000000 </v>
   <v>       0.28000000       0.20000000       0.50000000 </v>
   <v>       0.32000000       0.20000000       0.50000000 </v>
   <v>       0.36000000       0.20000000       0.50000000 </v>
   <v>       0.40000000       0.20000000       0.50000000 </v>
   <v>       0.44000000       0.20000000       0.50000000 </v>
   <v>       0.48000000       0.20000000       0.50000000 </v>
   <v>       0.24000000       0.24000000       0.50000000 </v>
   <v>       0.28000000       0.24000000       0.50000000 </v>
   <v>       0.32000000       0.24000000       0.50000000 </v>
   <v>       0.36000000       0.24000000       0.50000000 </v>
   <v>       0.40000000       0.24000000       0.50000000 </v>
   <v>       0.44000000       0.24000000       0.50000000 </v>
   <v>       0.48000000       0.24000000       0.50000000 </v>
   <v>       0.28000000       0.28000000       0.50000000 </v>
   <v>       0.32000000       0.28000000       0.50000000 </v>
   <v>       0.36000000       0.28000000       0.50000000 </v>
   <v>       0.40000000       0.28000000       0.50000000 </v>
   <v>       0.44000000       0.28000000       0.50000000 </v>
   <v>       0.48000000       0.28000000       0.50000000 </v>
   <v>       0.32000000       0.32000000       0.50000000 </v>
   <v>       0.36000000       0.32000000       0.50000000 </v>
   <v>       0.40000000       0.32000000       0.50000000 </v>
   <v>       0.44000000       0.32000000       0.50000000 </v>
   <v>       0.48000000       0.32000000       0.50000000 </v>
   <v>       0.36000000       0.36000000       0.50000000 </v>
   <v>       0.40000000       0.36000000       0.50000000 </v>
   <v>       0.44000000       0.36000000       0.50000000 </v>
   <v>       0.48000000       0.36000000       0.50000000 </v>
   <v>       0.40000000       0.40000000       0.50000000 </v>
   <v>       0.44000000       0.40000000       0.50000000 </v>
   <v>       0.48000000       0.40000000       0.50000000 </v>
   <v>       0.44000000       0.44000000       0.50000000 </v>
   <v>       0.48000000       0.44000000       0.50000000 </v>
   <v>       0.48000000       0.48000000       0.50000000 </v>
  </varray>
  <varray name="weights" >
   <v>       0.00026667 </v>
   <v>       0.00106667 </v>
   <v>       0.00106667 </v>
   <v>       0.00106667 </v>
   <v>       0.00106667 </v>
   <v>       0.00106667 </v>
   <v>       0.00106667 </v>
   <v>       0.00106667 </v>
   <v>       0.00106667 </v>
   <v>       0.00106667 </v>
   <v>       0.00106667 </v>
   <v>       0.00106667 </v>
   <v>       0.00106667 </v>
   <v>       0.00106667 </v>
   <v>       0.00213333 </v>
   <v>       0.00213333 </v>
   <v>       0.00213333 </v>
   <v>       0.00213333 </v>
   <v>       0.00213333 </v>
   <v>       0.00213333 </v>
   <v>       0.00213333 </v>
   <v>       0.00213333 </v>
   <v>       0.00213333 </v>
   <v>       0.00213333 </v>
   <v>       0.00213333 </v>
   <v>       0.00106667 </v>
   <v>       0.00213333 </v>
   <v>       0.00213333 </v>
   <v>       0.00213333 </v>
   <v>       0.00213333 </v>
   <v>       0.00213333 </v>
   <v>       0.00213333 </v>
   <v>       0.00213333 </v>
   <v>       0.00213333 </v>
   <v>       0.00213333 </v>
   <v>       0.00213333 </v>
   <v>       0.00106667 </v>
   <v>       0.00213333 </v>
   <v>       0.00213333 </v>
   <v>       0.00213333 </v>
   <v>       0.00213333 </v>
   <v>       0.00213333 </v>
   <v>       0.00213333 </v>
   <v>       0.00213333 </v>
   <v>       0.00213333 </v>
   <v>       0.00213333 </v>
   <v>       0.00106667 </v>
   <v>       0.00213333 </v>
   <v>       0.00213333 </v>
   <v>       0.00213333 </v>
   <v>       0.00213333 </v>
   <v>       0.00213333 </v>
   <v>       0.00213333 </v>
   <v>       0.00213333 </v>
   <v>       0.00213333 </v>
   <v>       0.00106667 </v>
   <v>       0.00213333 </v>
   <v>       0.00213333 </v>
   <v>       0.00213333 </v>
   <v>       0.00213333 </v>
   <v>       0.00213333 </v>
   <v>       0.00213333 </v>
   <v>       0.00213333 </v>
   <v>       0.00106667 </v>
   <v>       0.00213333 </v>
   <v>       0.00213333 </v>
   <v>       0.00213333 </v>
   <v>       0.00213333 </v>
   <v>       0.00213333 </v>
   <v>       0.00213333 </v>
   <v>       0.00106667 </v>
   <v>       0.00213333 </v>
   <v>       0.00213333 </v>
   <v>       0.00213333 </v>
   <v>       0.00213333 </v>
   <v>       0.00213333 </v>
   <v>       0.00106667 </v>
   <v>       0.00213333 </v>
   <v>       0.00213333 </v>
   <v>       0.00213333 </v>
   <v>       0.00213333 </v>
   <v>       0.00106667 </v>
   <v>       0.00213333 </v>
   <v>       0.00213333 </v>
   <v>       0.00213333 </v>
   <v>       0.00106667 </v>
   <v>       0.00213333 </v>
   <v>       0.00213333 </v>
   <v>       0.00106667 </v>
   <v>       0.00213333 </v>
   <v>       0.00106667 </v>
   <v>       0.00053333 </v>
   <v>       0.00213333 </v>
   <v>       0.00213333 </v>
   <v>       0.00213333 </v>
   <v>       0.00213333 </v>
   <v>       0.00213333 </v>
   <v>       0.00213333 </v>
   <v>       0.00213333 </v>
   <v>       0.00213333 </v>
   <v>       0.00213333 </v>
   <v>       0.00213333 </v>
   <v>       0.00213333 </v>
   <v>       0.00213333 </v>
   <v>       0.00213333 </v>
   <v>       0.00426667 </v>
   <v>       0.00426667 </v>
   <v>       0.00426667 </v>
   <v>       0.00426667 </v>
   <v>       0.00426667 </v>
   <v>       0.00426667 </v>
   <v>       0.00426667 </v>
   <v>       0.00426667 </v>
   <v>       0.00426667 </v>
   <v>       0.00426667 </v>
   <v>       0.00426667 </v>
   <v>       0.00213333 </v>
   <v>       0.00426667 </v>
   <v>       0.00426667 </v>
   <v>       0.00426667 </v>
   <v>       0.00426667 </v>
   <v>       0.00426667 </v>
   <v>       0.00426667 </v>
   <v>       0.00426667 </v>
   <v>       0.00426667 </v>
   <v>       0.00426667 </v>
   <v>       0.00426667 </v>
   <v>       0.00213333 </v>
   <v>       0.00426667 </v>
   <v>       0.00426667 </v>
   <v>       0.00426667 </v>
   <v>       0.00426667 </v>
   <v>       0.00426667 </v>
   <v>       0.00426667 </v>
   <v>       0.00426667 </v>
   <v>       0.00426667 </v>
   <v>       0.00426667 </v>
   <v>       0.00213333 </v>
   <v>       0.00426667 </v>
   <v>       0.00426667 </v>
   <v>       0.00426667 </v>
   <v>       0.00426667 </v>
   <v>       0.00426667 </v>
   <v>       0.00426667 </v>
   <v>       0.00426667 </v>
   <v>       0.00426667 </v>
   <v>       0.00213333 </v>
   <v>       0.00426667 </v>
   <v>       0.00426667 </v>
   <v>       0.00426667 </v>
   <v>       0.00426667 </v>
   <v>       0.00426667 </v>
   <v>       0.00426667 </v>
   <v>       0.00426667 </v>
   <v>       0.00213333 </v>
   <v>       0.00426667 </v>
   <v>       0.00426667 </v>
   <v>       0.00426667 </v>
   <v>       0.00426667 </v>
   <v>       0.00426667 </v>
   <v>       0.00426667 </v>
   <v>       0.00213333 </v>
   <v>       0.00426667 </v>
   <v>       0.00426667 </v>
   <v>       0.00426667 </v>
   <v>       0.00426667 </v>
   <v>       0.00426667 </v>
   <v>       0.00213333 </v>
   <v>       0.00426667 </v>
   <v>       0.00426667 </v>
   <v>       0.00426667 </v>
   <v>       0.00426667 </v>
   <v>       0.00213333 </v>
   <v>       0.00426667 </v>
   <v>       0.00426667 </v>
   <v>       0.00426667 </v>
   <v>       0.00213333 </v>
   <v>       0.00426667 </v>
   <v>       0.00426667 </v>
   <v>       0.00213333 </v>
   <v>       0.00426667 </v>
   <v>       0.00213333 </v>
   <v>       0.00053333 </v>
   <v>       0.00213333 </v>
   <v>       0.00213333 </v>
   <v>       0.00213333 </v>
   <v>       0.00213333 </v>
   <v>       0.00213333 </v>
   <v>       0.00213333 </v>
   <v>       0.00213333 </v>
   <v>       0.00213333 </v>
   <v>       0.00213333 </v>
   <v>       0.00213333 </v>
   <v>       0.00213333 </v>
   <v>       0.00213333 </v>
   <v>       0.00213333 </v>
   <v>       0.00426667 </v>
   <v>       0.00426667 </v>
   <v>       0.00426667 </v>
   <v>       0.00426667 </v>
   <v>       0.00426667 </v>
   <v>       0.00426667 </v>
   <v>       0.00426667 </v>
   <v>       0.00426667 </v>
   <v>       0.00426667 </v>
   <v>       0.00426667 </v>
   <v>       0.00426667 </v>
   <v>       0.00213333 </v>
   <v>       0.00426667 </v>
   <v>       0.00426667 </v>
   <v>       0.00426667 </v>
   <v>       0.00426667 </v>
   <v>       0.00426667 </v>
   <v>       0.00426667 </v>
   <v>       0.00426667 </v>
   <v>       0.00426667 </v>
   <v>       0.00426667 </v>
   <v>       0.00426667 </v>
   <v>       0.00213333 </v>
   <v>       0.00426667 </v>
   <v>       0.00426667 </v>
   <v>       0.00426667 </v>
   <v>       0.00426667 </v>
   <v>       0.00426667 </v>
   <v>       0.00426667 </v>
   <v>       0.00426667 </v>
   <v>       0.00426667 </v>
   <v>       0.00426667 </v>
   <v>       0.00213333 </v>
   <v>       0.00426667 </v>
   <v>       0.00426667 </v>
   <v>       0.00426667 </v>
   <v>       0.00426667 </v>
   <v>       0.00426667 </v>
   <v>       0.00426667 </v>
   <v>       0.00426667 </v>
   <v>       0.00426667 </v>
   <v>       0.00213333 </v>
   <v>       0.00426667 </v>
   <v>       0.00426667 </v>
   <v>       0.00426667 </v>
   <v>       0.00426667 </v>
   <v>       0.00426667 </v>
   <v>       0.00426667 </v>
   <v>       0.00426667 </v>
   <v>       0.00213333 </v>
   <v>       0.00426667 </v>
   <v>       0.00426667 </v>
   <v>       0.00426667 </v>
   <v>       0.00426667 </v>
   <v>       0.00426667 </v>
   <v>       0.00426667 </v>
   <v>       0.00213333 </v>
   <v>       0.00426667 </v>
   <v>       0.00426667 </v>
   <v>       0.00426667 </v>
   <v>       0.00426667 </v>
   <v>       0.00426667 </v>
   <v>       0.00213333 </v>
   <v>       0.00426667 </v>
   <v>       0.00426667 </v>
   <v>       0.00426667 </v>
   <v>       0.00426667 </v>
   <v>       0.00213333 </v>
   <v>       0.00426667 </v>
   <v>       0.00426667 </v>
   <v>       0.00426667 </v>
   <v>       0.00213333 </v>
   <v>       0.00426667 </v>
   <v>       0.00426667 </v>
   <v>       0.00213333 </v>
   <v>       0.00426667 </v>
   <v>       0.00213333 </v>
   <v>       0.00026667 </v>
   <v>       0.00106667 </v>
   <v>       0.00106667 </v>
   <v>       0.00106667 </v>
   <v>       0.00106667 </v>
   <v>       0.00106667 </v>
   <v>       0.00106667 </v>
   <v>       0.00106667 </v>
   <v>       0.00106667 </v>
   <v>       0.00106667 </v>
   <v>       0.00106667 </v>
   <v>       0.00106667 </v>
   <v>       0.00106667 </v>
   <v>       0.00106667 </v>
   <v>       0.00213333 </v>
   <v>       0.00213333 </v>
   <v>       0.00213333 </v>
   <v>       0.00213333 </v>
   <v>       0.00213333 </v>
   <v>       0.00213333 </v>
   <v>       0.00213333 </v>
   <v>       0.00213333 </v>
   <v>       0.00213333 </v>
   <v>       0.00213333 </v>
   <v>       0.00213333 </v>
   <v>       0.00106667 </v>
   <v>       0.00213333 </v>
   <v>       0.00213333 </v>
   <v>       0.00213333 </v>
   <v>       0.00213333 </v>
   <v>       0.00213333 </v>
   <v>       0.00213333 </v>
   <v>       0.00213333 </v>
   <v>       0.00213333 </v>
   <v>       0.00213333 </v>
   <v>       0.00213333 </v>
   <v>       0.00106667 </v>
   <v>       0.00213333 </v>
   <v>       0.00213333 </v>
   <v>       0.00213333 </v>
   <v>       0.00213333 </v>
   <v>       0.00213333 </v>
   <v>       0.00213333 </v>
   <v>       0.00213333 </v>
   <v>       0.00213333 </v>
   <v>       0.00213333 </v>
   <v>       0.00106667 </v>
   <v>       0.00213333 </v>
   <v>       0.00213333 </v>
   <v>       0.00213333 </v>
   <v>       0.00213333 </v>
   <v>       0.00213333 </v>
   <v>       0.00213333 </v>
   <v>       0.00213333 </v>
   <v>       0.00213333 </v>
   <v>       0.00106667 </v>
   <v>       0.00213333 </v>
   <v>       0.00213333 </v>
   <v>       0.00213333 </v>
   <v>       0.00213333 </v>
   <v>       0.00213333 </v>
   <v>       0.00213333 </v>
   <v>       0.00213333 </v>
   <v>       0.00106667 </v>
   <v>       0.00213333 </v>
   <v>       0.00213333 </v>
   <v>       0.00213333 </v>
   <v>       0.00213333 </v>
   <v>       0.00213333 </v>
   <v>       0.00213333 </v>
   <v>       0.00106667 </v>
   <v>       0.00213333 </v>
   <v>       0.00213333 </v>
   <v>       0.00213333 </v>
   <v>       0.00213333 </v>
   <v>       0.00213333 </v>
   <v>       0.00106667 </v>
   <v>       0.00213333 </v>
   <v>       0.00213333 </v>
   <v>       0.00213333 </v>
   <v>       0.00213333 </v>
   <v>       0.00106667 </v>
   <v>       0.00213333 </v>
   <v>       0.00213333 </v>
   <v>       0.00213333 </v>
   <v>       0.00106667 </v>
   <v>       0.00213333 </v>
   <v>       0.00213333 </v>
   <v>       0.00106667 </v>
   <v>       0.00213333 </v>
   <v>       0.00106667 </v>
  </varray>
 </kpoints>
 <parameters>
  <separator name="general" >
   <i type="string" name="SYSTEM">unknown system</i>
   <i type="logical" name="LCOMPAT"> F  </i>
  </separator>
  <separator name="electronic" >
   <i type="string" name="PREC">accura</i>
   <i name="ENMAX">    500.00000000</i>
   <i name="ENAUG">    586.98000000</i>
   <i name="EDIFF">      0.00000100</i>
   <i type="int" name="IALGO">    68</i>
   <i type="int" name="IWAVPR">    11</i>
   <i type="int" name="NBANDS">    40</i>
   <i name="NELECT">     66.00000000</i>
   <i type="int" name="TURBO">     0</i>
   <i type="int" name="IRESTART">     0</i>
   <i type="int" name="NREBOOT">     0</i>
   <i type="int" name="NMIN">     0</i>
   <i name="EREF">      0.00000000</i>
   <separator name="electronic smearing" >
    <i type="int" name="ISMEAR">     1</i>
    <i name="SIGMA">      0.30000000</i>
    <i name="KSPACING">      0.50000000</i>
    <i type="logical" name="KGAMMA"> T  </i>
   </separator>
   <separator name="electronic projectors" >
    <i type="logical" name="LREAL"> F  </i>
    <v name="ROPT">      0.00000000      0.00000000      0.00000000</v>
    <i type="int" name="LMAXPAW">  -100</i>
    <i type="int" name="LMAXMIX">     2</i>
    <i type="logical" name="NLSPLINE"> F  </i>
   </separator>
   <separator name="electronic startup" >
    <i type="int" name="ISTART">     0</i>
    <i type="int" name="ICHARG">     2</i>
    <i type="int" name="INIWAV">     1</i>
   </separator>
   <separator name="electronic spin" >
    <i type="int" name="ISPIN">     1</i>
    <i type="logical" name="LNONCOLLINEAR"> F  </i>
    <v name="MAGMOM">      1.00000000      1.00000000      1.00000000      1.00000000      1.00000000      1.00000000</v>
    <i name="NUPDOWN">     -1.00000000</i>
    <i type="logical" name="LSORBIT"> F  </i>
    <v name="SAXIS">      0.00000000      0.00000000      1.00000000</v>
    <i type="logical" name="LSPIRAL"> F  </i>
    <v name="QSPIRAL">      0.00000000      0.00000000      0.00000000</v>
    <i type="logical" name="LZEROZ"> F  </i>
   </separator>
   <separator name="electronic exchange-correlation" >
    <i type="logical" name="LASPH"> F  </i>
    <i type="logical" name="LMETAGGA"> F  </i>
   </separator>
   <separator name="electronic convergence" >
    <i type="int" name="NELM">   200</i>
    <i type="int" name="NELMDL">     0</i>
    <i type="int" name="NELMIN">     4</i>
    <i name="ENINI">    500.00000000</i>
    <separator name="electronic convergence detail" >
     <i type="logical" name="LDIAG"> T  </i>
     <i type="logical" name="LSUBROT"> F  </i>
     <i name="WEIMIN">      0.00100000</i>
     <i name="EBREAK">      0.00000001</i>
     <i name="DEPER">      0.30000000</i>
     <i type="int" name="NRMM">     4</i>
     <i name="TIME">      0.40000000</i>
    </separator>
   </separator>
   <separator name="electronic mixer" >
    <i name="AMIX">      0.40000000</i>
    <i name="BMIX">      1.00000000</i>
    <i name="AMIN">      0.10000000</i>
    <i name="AMIX_MAG">      1.60000000</i>
    <i name="BMIX_MAG">      1.00000000</i>
    <separator name="electronic mixer details" >
     <i type="int" name="IMIX">     4</i>
     <i type="int" name="MAXMIX">   -45</i>
     <i name="WC">    100.00000000</i>
     <i type="int" name="INIMIX">     1</i>
     <i type="int" name="MIXPRE">     1</i>
     <i type="int" name="MREMOVE">     5</i>
    </separator>
   </separator>
   <separator name="electronic dipolcorrection" >
    <i type="logical" name="LDIPOL"> F  </i>
    <i type="logical" name="LMONO"> F  </i>
    <i type="int" name="IDIPOL">     0</i>
    <i name="EPSILON">      1.00000000</i>
    <v name="DIPOL">   -100.00000000   -100.00000000   -100.00000000</v>
    <i name="EFIELD">      0.00000000</i>
   </separator>
  </separator>
  <separator name="grids" >
   <i type="int" name="NGX">    24</i>
   <i type="int" name="NGY">    24</i>
   <i type="int" name="NGZ">    84</i>
   <i type="int" name="NGXF">    48</i>
   <i type="int" name="NGYF">    48</i>
   <i type="int" name="NGZF">   168</i>
   <i type="logical" name="ADDGRID"> T  </i>
  </separator>
  <separator name="ionic" >
   <i type="int" name="NSW">    30</i>
   <i type="int" name="IBRION">     2</i>
   <i type="int" name="ISIF">     3</i>
   <i name="PSTRESS">      0.00000000</i>
   <i name="EDIFFG">     -0.02000000</i>
   <i type="int" name="NFREE">     1</i>
   <i name="POTIM">      0.50000000</i>
   <i name="SMASS">     -3.00000000</i>
   <i name="SCALEE">      1.00000000</i>
  </separator>
  <separator name="ionic md" >
   <i name="TEBEG">      0.00010000</i>
   <i name="TEEND">      0.00010000</i>
   <i type="int" name="NBLOCK">     1</i>
   <i type="int" name="KBLOCK">    30</i>
   <i type="int" name="NPACO">   256</i>
   <i name="APACO">     16.00000000</i>
  </separator>
  <separator name="symmetry" >
   <i type="int" name="ISYM">     2</i>
   <i name="SYMPREC">      0.00001000</i>
  </separator>
  <separator name="dos" >
   <i type="logical" name="LORBIT"> F  </i>
   <v name="RWIGS">     -1.00000000     -1.00000000     -1.00000000</v>
   <i type="int" name="NEDOS">   301</i>
   <i name="EMIN">     10.00000000</i>
   <i name="EMAX">    -10.00000000</i>
   <i name="EFERMI">      0.00000000</i>
  </separator>
  <separator name="writing" >
   <i type="int" name="NWRITE">     2</i>
   <i type="logical" name="LWAVE"> F  </i>
   <i type="logical" name="LCHARG"> F  </i>
   <i type="logical" name="LPARD"> F  </i>
   <i type="logical" name="LVTOT"> F  </i>
   <i type="logical" name="LVHAR"> F  </i>
   <i type="logical" name="LELF"> F  </i>
   <i type="logical" name="LOPTICS"> F  </i>
   <v name="STM">      0.00000000      0.00000000      0.00000000      0.00000000      0.00000000      0.00000000      0.00000000</v>
  </separator>
  <separator name="performance" >
   <i type="int" name="NPAR">     4</i>
   <i type="int" name="NSIM">     4</i>
   <i type="int" name="NBLK">    -1</i>
   <i type="logical" name="LPLANE"> T  </i>
   <i type="logical" name="LSCALAPACK"> T  </i>
   <i type="logical" name="LSCAAWARE"> F  </i>
   <i type="logical" name="LSCALU"> F  </i>
   <i type="logical" name="LASYNC"> F  </i>
   <i type="logical" name="LORBITALREAL"> F  </i>
  </separator>
  <separator name="miscellaneous" >
   <i type="int" name="IDIOT">     3</i>
   <i type="logical" name="LMUSIC"> F  </i>
   <v name="POMASS">     63.54600000    107.86800000    196.96600000</v>
   <v name="DARWINR">      0.00000000      0.00000000      0.00000000</v>
   <v name="DARWINV">      1.00000000      1.00000000      1.00000000</v>
   <i type="logical" name="LCORR"> T  </i>
  </separator>
  <i type="logical" name="GGA_COMPAT"> T  </i>
  <i type="logical" name="LBERRY"> F  </i>
  <i type="int" name="ICORELEVEL">     0</i>
  <i type="logical" name="LDAU"> F  </i>
  <i type="int" name="I_CONSTRAINED_M">     0</i>
  <separator name="electronic exchange-correlation" >
   <i type="string" name="GGA">--</i>
   <i type="int" name="VOSKOWN">     0</i>
   <i type="logical" name="LHFCALC"> F  </i>
   <i type="string" name="PRECFOCK"></i>
   <i type="logical" name="LSYMGRAD"> F  </i>
   <i type="logical" name="LHFONE"> F  </i>
   <i type="logical" name="LRHFCALC"> F  </i>
   <i type="logical" name="LTHOMAS"> F  </i>
   <i type="logical" name="LMODELHF"> F  </i>
   <i name="ENCUT4O">     -1.00000000</i>
   <i type="int" name="EXXOEP">     0</i>
   <i type="int" name="FOURORBIT">     0</i>
   <i name="AEXX">      0.00000000</i>
   <i name="HFALPHA">      0.00000000</i>
   <i name="MCALPHA">      0.00000000</i>
   <i name="ALDAX">      1.00000000</i>
   <i name="AGGAX">      1.00000000</i>
   <i name="ALDAC">      1.00000000</i>
   <i name="AGGAC">      1.00000000</i>
   <i type="int" name="NKREDX">     1</i>
   <i type="int" name="NKREDY">     1</i>
   <i type="int" name="NKREDZ">     1</i>
   <i type="logical" name="SHIFTRED"> F  </i>
   <i type="logical" name="ODDONLY"> F  </i>
   <i type="logical" name="EVENONLY"> F  </i>
   <i type="int" name="LMAXFOCK">     0</i>
   <i type="int" name="NMAXFOCKAE">     0</i>
   <i type="logical" name="LFOCKAEDFT"> F  </i>
   <i name="HFSCREEN">      0.00000000</i>
   <i name="HFSCREENC">      0.00000000</i>
   <i type="int" name="NBANDSGWLOW">     0</i>
  </separator>
  <separator name="vdW DFT" >
   <i type="logical" name="LUSE_VDW"> F  </i>
   <i name="Zab_VDW">     -0.84910000</i>
   <i name="PARAM1">      0.12340000</i>
   <i name="PARAM2">      1.00000000</i>
   <i name="PARAM3">      0.00000000</i>
  </separator>
  <separator name="model GW" >
   <i type="int" name="MODEL_GW">     0</i>
   <i name="MODEL_EPS0">      8.98148673</i>
   <i name="MODEL_ALPHA">      1.00000000</i>
  </separator>
  <separator name="linear response parameters" >
   <i type="logical" name="LEPSILON"> F  </i>
   <i type="logical" name="LRPA"> F  </i>
   <i type="logical" name="LNABLA"> F  </i>
   <i type="logical" name="LVEL"> F  </i>
   <i type="int" name="KINTER">     0</i>
   <i name="CSHIFT">      0.10000000</i>
   <i name="OMEGAMAX">     -1.00000000</i>
   <i name="DEG_THRESHOLD">      0.00200000</i>
  </separator>
  <separator name="orbital magnetization" >
   <i type="logical" name="NUCIND"> F  </i>
   <v name="MAGPOS">      0.00000000      0.00000000      0.00000000</v>
   <i type="logical" name="LNICSALL"> T  </i>
   <i type="logical" name="ORBITALMAG"> F  </i>
   <i type="logical" name="LMAGBLOCH"> F  </i>
   <i type="logical" name="LCHIMAG"> F  </i>
   <i type="logical" name="LGAUGE"> T  </i>
   <i type="int" name="MAGATOM">     0</i>
   <v name="MAGDIPOL">      0.00000000      0.00000000      0.00000000</v>
   <v name="AVECCONST">      0.00000000      0.00000000      0.00000000</v>
  </separator>
  <separator name="response functions" >
   <i type="logical" name="LADDER"> F  </i>
   <i type="logical" name="LFXC"> F  </i>
   <i type="logical" name="LHARTREE"> T  </i>
   <i type="int" name="IBSE">     0</i>
   <i type="logical" name="LTCTE"> F  </i>
   <i type="logical" name="LTETE"> F  </i>
   <i type="logical" name="LTRIPLET"> F  </i>
   <i type="logical" name="LFXCEPS"> F  </i>
   <i type="logical" name="LFXHEG"> F  </i>
   <i type="logical" name="L2ORDER"> F  </i>
   <i type="logical" name="LUSEW"> F  </i>
   <i name="ENCUTGW">     -2.00000000</i>
   <i name="ENCUTGWSOFT">     -2.00000000</i>
   <i name="ENCUTLF">     -1.00000000</i>
   <i type="int" name="LMAXMP2">    -1</i>
   <i name="SCISSOR">      0.00000000</i>
   <i type="int" name="NOMEGA">     0</i>
   <i type="int" name="NOMEGAR">     0</i>
   <i type="int" name="NBANDSGW">    -1</i>
   <i type="int" name="NBANDSO">    -1</i>
   <i type="int" name="NBANDSV">    -1</i>
   <i type="int" name="NELM">   200</i>
   <i type="int" name="DIM">     3</i>
   <i type="int" name="ANTIRES">     0</i>
   <i name="OMEGAMAX">    -30.00000000</i>
   <i name="OMEGAMIN">    -30.00000000</i>
   <i name="OMEGATL">   -200.00000000</i>
   <i type="int" name="OMEGAGRID">     0</i>
   <i name="CSHIFT">     -0.10000000</i>
   <i type="logical" name="SELFENERGY"> F  </i>
   <i type="logical" name="LSPECTRAL"> F  </i>
   <i type="logical" name="ODDONLYGW"> F  </i>
   <i type="logical" name="EVENONLYGW"> F  </i>
   <i type="int" name="NKREDLFX">     1</i>
   <i type="int" name="NKREDLFY">     1</i>
   <i type="int" name="NKREDLFZ">     1</i>
   <i type="int" name="MAXMEM">  1800</i>
   <i type="int" name="TELESCOPE">     0</i>
   <i type="int" name="TAUPAR">     1</i>
  </separator>
  <separator name="External order field" >
   <i name="OFIELD_KAPPA">      0.00000000</i>
   <v name="OFIELD_K">      0.00000000      0.00000000      0.00000000</v>
   <i name="OFIELD_Q6_NEAR">      0.00000000</i>
   <i name="OFIELD_Q6_FAR">      0.00000000</i>
   <i name="OFIELD_A">      0.00000000</i>
  </separator>
 </parameters>
 <atominfo>
  <atoms>       6 </atoms>
  <types>       3 </types>
  <array name="atoms" >
   <dimension dim="1">ion</dimension>
   <field type="string">element</field>
   <field type="int">atomtype</field>
   <set>
    <rc><c>Cu</c><c>   1</c></rc>
    <rc><c>Cu</c><c>   1</c></rc>
    <rc><c>Cu</c><c>   1</c></rc>
    <rc><c>Ag</c><c>   2</c></rc>
    <rc><c>Ag</c><c>   2</c></rc>
    <rc><c>Au</c><c>   3</c></rc>
   </set>
  </array>
  <array name="atomtypes" >
   <dimension dim="1">type</dimension>
   <field type="int">atomspertype</field>
   <field type="string">element</field>
   <field>mass</field>
   <field>valence</field>
   <field type="string">pseudopotential</field>
   <set>
    <rc><c>   3</c><c>Cu</c><c>     63.54600000</c><c>     11.00000000</c><c>  PAW_PBE Cu 22Jun2005                  </c></rc>
    <rc><c>   2</c><c>Ag</c><c>    107.86800000</c><c>     11.00000000</c><c>  PAW_PBE Ag 02Apr2005                  </c></rc>
    <rc><c>   1</c><c>Au</c><c>    196.96600000</c><c>     11.00000000</c><c>  PAW_PBE Au 04Oct2007                  </c></rc>
   </set>
  </array>
 </atominfo>
 <structure name="initialpos" >
  <crystal>
   <varray name="basis" >
    <v>       0.00000000       2.00234454      -2.00234454 </v>
    <v>       0.00000000      -2.00234454      -2.00234454 </v>
    <v>     -11.20058277       0.00000000       0.00000000 </v>
   </varray>
   <i name="volume">     89.81486728 </i>
   <varray name="rec_basis" >
    <v>       0.00000000       0.24970728      -0.24970728 </v>
    <v>       0.00000000      -0.24970728      -0.24970728 </v>
    <v>      -0.08928107       0.00000000       0.00000000 </v>
   </varray>
  </crystal>
  <varray name="positions" >
   <v>       0.00000000       0.00000000       0.65714109 </v>
   <v>       0.00000000       0.00000000       0.32307048 </v>
   <v>       0.50000000       0.50000000       0.18552508 </v>
   <v>       0.50000000       0.50000000       0.82357098 </v>
   <v>       0.50000000       0.50000000       0.49034097 </v>
   <v>       0.00000000       0.00000000       0.02035140 </v>
  </varray>
 </structure>
 <calculation>
  <scstep>
   <time name="dav">    5.26    5.26</time>
   <time name="total">    5.31    5.32</time>
   <energy>
    <i name="alphaZ">    338.02441303 </i>
    <i name="ewald">  -6034.96201309 </i>
    <i name="hartreedc">  -1790.41180159 </i>
    <i name="XCdc">    131.50129326 </i>
    <i name="pawpsdc">   6565.64178164 </i>
    <i name="pawaedc">  -6767.85408466 </i>
    <i name="eentropy">     -0.00166415 </i>
    <i name="bandstr">   1007.30248339 </i>
    <i name="atom">   7173.53671731 </i>
    <i name="e_fr_energy">    622.77712512 </i>
    <i name="e_wo_entrp">    622.77878928 </i>
    <i name="e_0_energy">    622.77767984 </i>
   </energy>
  </scstep>
  <scstep>
   <time name="dav">    5.36    5.36</time>
   <time name="total">    5.37    5.39</time>
   <energy>
    <i name="e_fr_energy">     46.32089693 </i>
    <i name="e_wo_entrp">     46.32043990 </i>
    <i name="e_0_energy">     46.32074459 </i>
   </energy>
  </scstep>
  <scstep>
   <time name="dav">    5.83    5.83</time>
   <time name="total">    5.85    5.86</time>
   <energy>
    <i name="e_fr_energy">    -20.65968112 </i>
    <i name="e_wo_entrp">    -20.66195075 </i>
    <i name="e_0_energy">    -20.66043766 </i>
   </energy>
  </scstep>
  <scstep>
   <time name="dav">    7.07    7.07</time>
   <time name="total">    7.09    7.10</time>
   <energy>
    <i name="e_fr_energy">    -22.68662637 </i>
    <i name="e_wo_entrp">    -22.68881152 </i>
    <i name="e_0_energy">    -22.68735475 </i>
   </energy>
  </scstep>
  <scstep>
   <time name="dav">    7.28    7.28</time>
   <time name="total">    7.63    7.65</time>
   <energy>
    <i name="e_fr_energy">    -22.70950864 </i>
    <i name="e_wo_entrp">    -22.71170017 </i>
    <i name="e_0_energy">    -22.71023915 </i>
   </energy>
  </scstep>
  <scstep>
   <time name="diag">    1.40    1.40</time>
   <time name="diis">    2.48    2.48</time>
   <time name="orth">    0.22    0.22</time>
   <time name="total">    4.49    4.50</time>
   <energy>
    <i name="e_fr_energy">    -21.38946759 </i>
    <i name="e_wo_entrp">    -21.38978957 </i>
    <i name="e_0_energy">    -21.38957492 </i>
   </energy>
  </scstep>
  <scstep>
   <time name="diag">    1.40    1.40</time>
   <time name="diis">    2.53    2.53</time>
   <time name="orth">    0.22    0.22</time>
   <time name="total">    4.54    4.55</time>
   <energy>
    <i name="e_fr_energy">    -19.74706580 </i>
    <i name="e_wo_entrp">    -19.74751633 </i>
    <i name="e_0_energy">    -19.74721597 </i>
   </energy>
  </scstep>
  <scstep>
   <time name="diag">    1.40    1.40</time>
   <time name="diis">    2.60    2.60</time>
   <time name="orth">    0.22    0.22</time>
   <time name="total">    4.61    4.62</time>
   <energy>
    <i name="e_fr_energy">    -19.62326248 </i>
    <i name="e_wo_entrp">    -19.62247701 </i>
    <i name="e_0_energy">    -19.62300066 </i>
   </energy>
  </scstep>
  <scstep>
   <time name="diag">    1.40    1.40</time>
   <time name="diis">    2.47    2.47</time>
   <time name="orth">    0.22    0.22</time>
   <time name="total">    4.48    4.49</time>
   <energy>
    <i name="e_fr_energy">    -19.67938457 </i>
    <i name="e_wo_entrp">    -19.67948102 </i>
    <i name="e_0_energy">    -19.67941672 </i>
   </energy>
  </scstep>
  <scstep>
   <time name="diag">    1.40    1.40</time>
   <time name="diis">    2.50    2.50</time>
   <time name="orth">    0.22    0.22</time>
   <time name="total">    4.52    4.53</time>
   <energy>
    <i name="e_fr_energy">    -19.60043310 </i>
    <i name="e_wo_entrp">    -19.59968541 </i>
    <i name="e_0_energy">    -19.60018387 </i>
   </energy>
  </scstep>
  <scstep>
   <time name="diag">    1.40    1.40</time>
   <time name="diis">    2.57    2.57</time>
   <time name="orth">    0.22    0.22</time>
   <time name="total">    4.59    4.60</time>
   <energy>
    <i name="e_fr_energy">    -19.59875244 </i>
    <i name="e_wo_entrp">    -19.59815370 </i>
    <i name="e_0_energy">    -19.59855286 </i>
   </energy>
  </scstep>
  <scstep>
   <time name="diag">    1.46    1.46</time>
   <time name="diis">    2.59    2.59</time>
   <time name="orth">    0.23    0.23</time>
   <time name="total">    4.68    4.70</time>
   <energy>
    <i name="e_fr_energy">    -19.59857358 </i>
    <i name="e_wo_entrp">    -19.59796680 </i>
    <i name="e_0_energy">    -19.59837132 </i>
   </energy>
  </scstep>
  <scstep>
   <time name="diag">    1.40    1.40</time>
   <time name="diis">    2.77    2.77</time>
   <time name="orth">    0.21    0.21</time>
   <time name="total">    4.79    4.80</time>
   <energy>
    <i name="e_fr_energy">    -19.59851140 </i>
    <i name="e_wo_entrp">    -19.59787657 </i>
    <i name="e_0_energy">    -19.59829979 </i>
   </energy>
  </scstep>
  <scstep>
   <time name="diag">    1.40    1.40</time>
   <time name="diis">    2.67    2.67</time>
   <time name="orth">    0.23    0.23</time>
   <time name="total">    4.70    4.71</time>
   <energy>
    <i name="e_fr_energy">    -19.59849722 </i>
    <i name="e_wo_entrp">    -19.59787071 </i>
    <i name="e_0_energy">    -19.59828838 </i>
   </energy>
  </scstep>
  <scstep>
   <time name="diag">    1.40    1.40</time>
   <time name="diis">    2.46    2.46</time>
   <time name="orth">    0.22    0.22</time>
   <time name="total">    4.49    4.50</time>
   <energy>
    <i name="e_fr_energy">    -19.59849494 </i>
    <i name="e_wo_entrp">    -19.59787007 </i>
    <i name="e_0_energy">    -19.59828665 </i>
   </energy>
  </scstep>
  <scstep>
   <time name="diag">    1.40    1.40</time>
   <time name="diis">    1.56    1.56</time>
   <time name="orth">    0.22    0.22</time>
   <time name="total">    3.23    3.25</time>
   <energy>
    <i name="alphaZ">    338.02441303 </i>
    <i name="ewald">  -6034.96201309 </i>
    <i name="hartreedc">  -1691.05993832 </i>
    <i name="XCdc">    127.11081427 </i>
    <i name="pawpsdc">   7158.37997558 </i>
    <i name="pawaedc">  -7374.21057880 </i>
    <i name="eentropy">     -0.00062469 </i>
    <i name="bandstr">    283.58273995 </i>
    <i name="atom">   7173.53671731 </i>
    <i name="e_fr_energy">    -19.59849477 </i>
    <i name="e_wo_entrp">    -19.59787007 </i>
    <i name="e_0_energy">    -19.59828654 </i>
   </energy>
  </scstep>
  <structure>
   <crystal>
    <varray name="basis" >
     <v>       0.00000000       2.00234454      -2.00234454 </v>
     <v>       0.00000000      -2.00234454      -2.00234454 </v>
     <v>     -11.20058277       0.00000000       0.00000000 </v>
    </varray>
    <i name="volume">     89.81486728 </i>
    <varray name="rec_basis" >
     <v>       0.00000000       0.24970728      -0.24970728 </v>
     <v>       0.00000000      -0.24970728      -0.24970728 </v>
     <v>      -0.08928107       0.00000000       0.00000000 </v>
    </varray>
   </crystal>
   <varray name="positions" >
    <v>       0.00000000       0.00000000       0.65714109 </v>
    <v>       0.00000000       0.00000000       0.32307048 </v>
    <v>       0.50000000       0.50000000       0.18552508 </v>
    <v>       0.50000000       0.50000000       0.82357098 </v>
    <v>       0.50000000       0.50000000       0.49034097 </v>
    <v>       0.00000000       0.00000000       0.02035140 </v>
   </varray>
  </structure>
  <varray name="forces" >
   <v>       0.00700699       0.00000000       0.00000000 </v>
   <v>       0.00337284       0.00000000       0.00000000 </v>
   <v>      -0.01000495       0.00000000       0.00000000 </v>
   <v>      -0.00171972       0.00000000       0.00000000 </v>
   <v>       0.00895095       0.00000000       0.00000000 </v>
   <v>      -0.00760611       0.00000000       0.00000000 </v>
  </varray>
  <varray name="stress" >
   <v>      -0.99993029       0.00000000       0.00000000 </v>
   <v>       0.00000000       1.25285632       0.00000000 </v>
   <v>       0.00000000       0.00000000       1.25285632 </v>
  </varray>
  <energy>
   <i name="e_fr_energy">    -19.59849477 </i>
   <i name="e_wo_entrp">    -19.59828654 </i>
   <i name="e_0_energy">     -0.00062469 </i>
  </energy>
  <time name="totalsc">   84.11   84.38</time>
  <eigenvalues>
   <array>
    <dimension dim="1">band</dimension>
    <dimension dim="2">kpoint</dimension>
    <dimension dim="3">spin</dimension>
    <field>eigene</field>
    <field>occ</field>
    <set>
     <set comment="spin 1">
      <set comment="kpoint 1">
       <r>   -0.9916    1.0000 </r>
       <r>    0.3219    1.0000 </r>
       <r>    0.7726    1.0000 </r>
       <r>    1.5548    1.0000 </r>
       <r>    1.5841    1.0000 </r>
       <r>    1.8916    1.0000 </r>
       <r>    2.0270    1.0000 </r>
       <r>    2.2470    1.0000 </r>
       <r>    2.9153    1.0000 </r>
       <r>    3.6248    1.0000 </r>
       <r>    3.6248    1.0000 </r>
       <r>    3.7076    1.0000 </r>
       <r>    3.7076    1.0000 </r>
       <r>    4.2550    1.0000 </r>
       <r>    4.3407    1.0000 </r>
       <r>    4.3521    1.0000 </r>
       <r>    4.4791    1.0000 </r>
       <r>    4.5610    1.0000 </r>
       <r>    4.5610    1.0000 </r>
       <r>    4.9593    1.0000 </r>
       <r>    5.2188    1.0000 </r>
       <r>    5.3205    1.0000 </r>
       <r>    5.3555    1.0000 </r>
       <r>    5.3678    1.0000 </r>
       <r>    5.3678    1.0000 </r>
       <r>    5.6042    1.0000 </r>
       <r>    5.6427    1.0000 </r>
       <r>    5.8711    1.0000 </r>
       <r>    5.8711    1.0000 </r>
       <r>    6.0438    1.0000 </r>
       <r>    6.1746    1.0000 </r>
       <r>    6.1947    1.0000 </r>
       <r>    6.2186    1.0000 </r>
       <r>    6.2186    1.0000 </r>
       <r>    6.4242    1.0000 </r>
       <r>   10.4916    0.0000 </r>
       <r>   15.3900    0.0000 </r>
       <r>   14.4849    0.0000 </r>
       <r>   14.5559    0.0000 </r>
       <r>   17.4415    0.0000 </r>
      </set>
      <set comment="kpoint 2">
       <r>   -0.9563    1.0000 </r>
       <r>    0.3546    1.0000 </r>
       <r>    0.7980    1.0000 </r>
       <r>    1.5757    1.0000 </r>
       <r>    1.6056    1.0000 </r>
       <r>    1.9064    1.0000 </r>
       <r>    2.0416    1.0000 </r>
       <r>    2.2617    1.0000 </r>
       <r>    2.9247    1.0000 </r>
       <r>    3.6057    1.0000 </r>
       <r>    3.6301    1.0000 </r>
       <r>    3.6877    1.0000 </r>
       <r>    3.7078    1.0000 </r>
       <r>    4.2488    1.0000 </r>
       <r>    4.2784    1.0000 </r>
       <r>    4.3235    1.0000 </r>
       <r>    4.4384    1.0000 </r>
       <r>    4.5858    1.0000 </r>
       <r>    4.6089    1.0000 </r>
       <r>    4.9717    1.0000 </r>
       <r>    5.1890    1.0000 </r>
       <r>    5.2711    1.0000 </r>
       <r>    5.3306    1.0000 </r>
       <r>    5.3774    1.0000 </r>
       <r>    5.4231    1.0000 </r>
       <r>    5.5686    1.0000 </r>
       <r>    5.6205    1.0000 </r>
       <r>    5.8546    1.0000 </r>
       <r>    5.8904    1.0000 </r>
       <r>    6.0421    1.0000 </r>
       <r>    6.1732    1.0000 </r>
       <r>    6.1914    1.0000 </r>
       <r>    6.2185    1.0000 </r>
       <r>    6.2790    1.0000 </r>
       <r>    6.5010    1.0000 </r>
       <r>   10.5718    0.0000 </r>
       <r>   15.3901    0.0000 </r>
       <r>   14.2664    0.0000 </r>
       <r>   14.6583    0.0000 </r>
       <r>   16.7229    0.0000 </r>
      </set>
      <set comment="kpoint 3">
       <r>   -0.8513    1.0000 </r>
       <r>    0.4503    1.0000 </r>
       <r>    0.8715    1.0000 </r>
       <r>    1.6182    1.0000 </r>
       <r>    1.6873    1.0000 </r>
       <r>    1.9478    1.0000 </r>
       <r>    2.0894    1.0000 </r>
       <r>    2.3061    1.0000 </r>
       <r>    2.9516    1.0000 </r>
       <r>    3.5507    1.0000 </r>
       <r>    3.6313    1.0000 </r>
       <r>    3.6454    1.0000 </r>
       <r>    3.7085    1.0000 </r>
       <r>    4.0921    1.0000 </r>
       <r>    4.2722    1.0000 </r>
       <r>    4.2870    1.0000 </r>
       <r>    4.3630    1.0000 </r>
       <r>    4.6142    1.0000 </r>
       <r>    4.6766    1.0000 </r>
       <r>    5.0053    1.0000 </r>
       <r>    5.1165    1.0000 </r>
       <r>    5.1961    1.0000 </r>
       <r>    5.3436    1.0000 </r>
       <r>    5.3888    1.0000 </r>
       <r>    5.4114    1.0000 </r>
       <r>    5.5215    1.0000 </r>
       <r>    5.5763    1.0000 </r>
       <r>    5.8317    1.0000 </r>
       <r>    5.9279    1.0000 </r>
       <r>    6.0345    1.0000 </r>
       <r>    6.0980    1.0000 </r>
       <r>    6.1856    1.0000 </r>
       <r>    6.2188    1.0000 </r>
       <r>    6.4978    1.0000 </r>
       <r>    6.6912    1.0000 </r>
       <r>   10.8032    0.0000 </r>
       <r>   15.3816    0.0000 </r>
       <r>   14.4320    0.0000 </r>
       <r>   15.0633    0.0000 </r>
       <r>   15.6783    0.0000 </r>
      </set>
      <set comment="kpoint 4">
       <r>   -0.6804    1.0000 </r>
       <r>    0.6008    1.0000 </r>
       <r>    0.9854    1.0000 </r>
       <r>    1.6765    1.0000 </r>
       <r>    1.8242    1.0000 </r>
       <r>    2.0081    1.0000 </r>
       <r>    2.1821    1.0000 </r>
       <r>    2.3801    1.0000 </r>
       <r>    2.9913    1.0000 </r>
       <r>    3.4639    1.0000 </r>
       <r>    3.5465    1.0000 </r>
       <r>    3.6689    1.0000 </r>
       <r>    3.7100    1.0000 </r>
       <r>    3.9210    1.0000 </r>
       <r>    4.1904    1.0000 </r>
       <r>    4.2761    1.0000 </r>
       <r>    4.3180    1.0000 </r>
       <r>    4.6241    1.0000 </r>
       <r>    4.7295    1.0000 </r>
       <r>    5.0204    1.0000 </r>
       <r>    5.0514    1.0000 </r>
       <r>    5.1520    1.0000 </r>
       <r>    5.2782    1.0000 </r>
       <r>    5.3858    1.0000 </r>
       <r>    5.4046    1.0000 </r>
       <r>    5.5286    1.0000 </r>
       <r>    5.5367    1.0000 </r>
       <r>    5.7942    1.0000 </r>
       <r>    5.9581    1.0000 </r>
       <r>    6.0075    1.0000 </r>
       <r>    6.0175    1.0000 </r>
       <r>    6.1847    1.0000 </r>
       <r>    6.2219    1.0000 </r>
       <r>    6.7961    1.0000 </r>
       <r>    6.9411    1.0001 </r>
       <r>   11.1629    0.0000 </r>
       <r>   15.2981    0.0000 </r>
       <r>   15.9066    0.0000 </r>
       <r>   14.0417    0.0000 </r>
       <r>   15.2332    0.0000 </r>
      </set>
      <set comment="kpoint 5">
       <r>   -0.4496    1.0000 </r>
       <r>    0.7908    1.0000 </r>
       <r>    1.1259    1.0000 </r>
       <r>    1.7496    1.0000 </r>
       <r>    1.9906    1.0000 </r>
       <r>    2.0891    1.0000 </r>
       <r>    2.3337    1.0000 </r>
       <r>    2.4787    1.0000 </r>
       <r>    3.0326    1.0000 </r>
       <r>    3.3524    1.0000 </r>
       <r>    3.4514    1.0000 </r>
       <r>    3.6931    1.0000 </r>
       <r>    3.7167    1.0000 </r>
       <r>    3.8018    1.0000 </r>
       <r>    4.0874    1.0000 </r>
       <r>    4.1809    1.0000 </r>
       <r>    4.3568    1.0000 </r>
       <r>    4.6086    1.0000 </r>
       <r>    4.7633    1.0000 </r>
       <r>    4.9155    1.0000 </r>
       <r>    5.0996    1.0000 </r>
       <r>    5.1362    1.0000 </r>
       <r>    5.1830    1.0000 </r>
       <r>    5.3679    1.0000 </r>
       <r>    5.4287    1.0000 </r>
       <r>    5.5093    1.0000 </r>
       <r>    5.5475    1.0000 </r>
       <r>    5.7388    1.0000 </r>
       <r>    5.9398    1.0000 </r>
       <r>    5.9645    1.0000 </r>
       <r>    6.0000    1.0000 </r>
       <r>    6.1904    1.0000 </r>
       <r>    6.2303    1.0000 </r>
       <r>    7.1346    1.0015 </r>
       <r>    7.2266    1.0052 </r>
       <r>   11.6253    0.0000 </r>
       <r>   14.6803    0.0000 </r>
       <r>   15.5557    0.0000 </r>
       <r>   15.9753    0.0000 </r>
       <r>   13.9472    0.0000 </r>
      </set>
      <set comment="kpoint 6">
       <r>   -0.1680    1.0000 </r>
       <r>    0.9982    1.0000 </r>
       <r>    1.2736    1.0000 </r>
       <r>    1.8306    1.0000 </r>
       <r>    2.1042    1.0000 </r>
       <r>    2.2602    1.0000 </r>
       <r>    2.5410    1.0000 </r>
       <r>    2.5775    1.0000 </r>
       <r>    3.0547    1.0000 </r>
       <r>    3.2471    1.0000 </r>
       <r>    3.3991    1.0000 </r>
       <r>    3.6994    1.0000 </r>
       <r>    3.7420    1.0000 </r>
       <r>    3.7645    1.0000 </r>
       <r>    3.9746    1.0000 </r>
       <r>    4.0792    1.0000 </r>
       <r>    4.4004    1.0000 </r>
       <r>    4.5626    1.0000 </r>
       <r>    4.7766    1.0000 </r>
       <r>    4.8191    1.0000 </r>
       <r>    5.0894    1.0000 </r>
       <r>    5.1421    1.0000 </r>
       <r>    5.1662    1.0000 </r>
       <r>    5.3413    1.0000 </r>
       <r>    5.4283    1.0000 </r>
       <r>    5.4895    1.0000 </r>
       <r>    5.5769    1.0000 </r>
       <r>    5.6984    1.0000 </r>
       <r>    5.9063    1.0000 </r>
       <r>    5.9422    1.0000 </r>
       <r>    5.9942    1.0000 </r>
       <r>    6.1995    1.0000 </r>
       <r>    6.2427    1.0000 </r>
       <r>    7.4786    1.0349 </r>
       <r>    7.5492    1.0298 </r>
       <r>   12.1675    0.0000 </r>
       <r>   13.6649    0.0000 </r>
       <r>   15.2001    0.0000 </r>
       <r>   15.3306    0.0000 </r>
       <r>   15.9643    0.0000 </r>
      </set>
      <set comment="kpoint 7">
       <r>    0.1509    1.0000 </r>
       <r>    1.1999    1.0000 </r>
       <r>    1.4073    1.0000 </r>
       <r>    1.9111    1.0000 </r>
       <r>    2.1623    1.0000 </r>
       <r>    2.5115    1.0000 </r>
       <r>    2.5822    1.0000 </r>
       <r>    2.8046    1.0000 </r>
       <r>    3.0534    1.0000 </r>
       <r>    3.2032    1.0000 </r>
       <r>    3.4810    1.0000 </r>
       <r>    3.6953    1.0000 </r>
       <r>    3.7660    1.0000 </r>
       <r>    3.8086    1.0000 </r>
       <r>    3.8660    1.0000 </r>
       <r>    3.9757    1.0000 </r>
       <r>    4.4465    1.0000 </r>
       <r>    4.4897    1.0000 </r>
       <r>    4.7436    1.0000 </r>
       <r>    4.7762    1.0000 </r>
       <r>    5.0440    1.0000 </r>
       <r>    5.1553    1.0000 </r>
       <r>    5.1999    1.0000 </r>
       <r>    5.3101    1.0000 </r>
       <r>    5.4150    1.0000 </r>
       <r>    5.4734    1.0000 </r>
       <r>    5.6284    1.0000 </r>
       <r>    5.6800    1.0000 </r>
       <r>    5.9071    1.0000 </r>
       <r>    5.9164    1.0000 </r>
       <r>    5.9863    1.0000 </r>
       <r>    6.2096    1.0000 </r>
       <r>    6.2542    1.0000 </r>
       <r>    7.8067    0.6619 </r>
       <r>    7.9075    0.3823 </r>
       <r>   12.5885    0.0000 </r>
       <r>   12.8123    0.0000 </r>
       <r>   14.1552    0.0000 </r>
       <r>   14.5486    0.0000 </r>
       <r>   15.9276    0.0000 </r>
      </set>
      <set comment="kpoint 8">
       <r>    0.4856    1.0000 </r>
       <r>    1.3844    1.0000 </r>
       <r>    1.5121    1.0000 </r>
       <r>    1.9843    1.0000 </r>
       <r>    2.1845    1.0000 </r>
       <r>    2.5039    1.0000 </r>
       <r>    2.8054    1.0000 </r>
       <r>    2.9794    1.0000 </r>
       <r>    3.0464    1.0000 </r>
       <r>    3.3260    1.0000 </r>
       <r>    3.6841    1.0000 </r>
       <r>    3.7242    1.0000 </r>
       <r>    3.7259    1.0000 </r>
       <r>    3.8197    1.0000 </r>
       <r>    3.8769    1.0000 </r>
       <r>    3.9264    1.0000 </r>
       <r>    4.4122    1.0000 </r>
       <r>    4.4961    1.0000 </r>
       <r>    4.6851    1.0000 </r>
       <r>    4.7744    1.0000 </r>
       <r>    5.0313    1.0000 </r>
       <r>    5.1531    1.0000 </r>
       <r>    5.2270    1.0000 </r>
       <r>    5.2765    1.0000 </r>
       <r>    5.4367    1.0000 </r>
       <r>    5.4586    1.0000 </r>
       <r>    5.6546    1.0000 </r>
       <r>    5.7030    1.0000 </r>
       <r>    5.8968    1.0000 </r>
       <r>    5.9440    1.0000 </r>
       <r>    5.9759    1.0000 </r>
       <r>    6.2193    1.0000 </r>
       <r>    6.2610    1.0000 </r>
       <r>    8.1304   -0.0085 </r>
       <r>    8.2597   -0.0344 </r>
       <r>   11.6149    0.0000 </r>
       <r>   13.1522    0.0000 </r>
       <r>   13.4505    0.0000 </r>
       <r>   13.5780    0.0000 </r>
       <r>   15.9607    0.0000 </r>
      </set>
      <set comment="kpoint 9">
       <r>    0.8004    1.0000 </r>
       <r>    1.5471    1.0000 </r>
       <r>    1.6010    1.0000 </r>
       <r>    2.0376    1.0000 </r>
       <r>    2.1571    1.0000 </r>
       <r>    2.4557    1.0000 </r>
       <r>    2.9110    1.0000 </r>
       <r>    3.0483    1.0000 </r>
       <r>    3.2058    1.0000 </r>
       <r>    3.5665    1.0000 </r>
       <r>    3.6277    1.0000 </r>
       <r>    3.6645    1.0000 </r>
       <r>    3.7899    1.0000 </r>
       <r>    3.8213    1.0000 </r>
       <r>    4.0586    1.0000 </r>
       <r>    4.1423    1.0000 </r>
       <r>    4.3559    1.0000 </r>
       <r>    4.5657    1.0000 </r>
       <r>    4.6356    1.0000 </r>
       <r>    4.7836    1.0000 </r>
       <r>    5.0796    1.0000 </r>
       <r>    5.1525    1.0000 </r>
       <r>    5.2439    1.0000 </r>
       <r>    5.2470    1.0000 </r>
       <r>    5.4422    1.0000 </r>
       <r>    5.4876    1.0000 </r>
       <r>    5.6205    1.0000 </r>
       <r>    5.7957    1.0000 </r>
       <r>    5.8850    1.0000 </r>
       <r>    5.9674    1.0000 </r>
       <r>    6.0136    1.0000 </r>
       <r>    6.2273    1.0000 </r>
       <r>    6.2617    1.0000 </r>
       <r>    8.4373   -0.0107 </r>
       <r>    8.5503   -0.0029 </r>
       <r>   10.6770    0.0000 </r>
       <r>   12.3071    0.0000 </r>
       <r>   12.6129    0.0000 </r>
       <r>   14.1581    0.0000 </r>
       <r>   15.9139    0.0000 </r>
      </set>
      <set comment="kpoint 10">
       <r>    1.0452    1.0000 </r>
       <r>    1.6084    1.0000 </r>
       <r>    1.7824    1.0000 </r>
       <r>    2.0060    1.0000 </r>
       <r>    2.1671    1.0000 </r>
       <r>    2.4591    1.0000 </r>
       <r>    2.8551    1.0000 </r>
       <r>    3.1752    1.0000 </r>
       <r>    3.3661    1.0000 </r>
       <r>    3.5417    1.0000 </r>
       <r>    3.6280    1.0000 </r>
       <r>    3.7234    1.0000 </r>
       <r>    3.7862    1.0000 </r>
       <r>    3.8135    1.0000 </r>
       <r>    4.2629    1.0000 </r>
       <r>    4.3326    1.0000 </r>
       <r>    4.5249    1.0000 </r>
       <r>    4.5916    1.0000 </r>
       <r>    4.7067    1.0000 </r>
       <r>    4.8462    1.0000 </r>
       <r>    5.1477    1.0000 </r>
       <r>    5.2164    1.0000 </r>
       <r>    5.2561    1.0000 </r>
       <r>    5.2743    1.0000 </r>
       <r>    5.4219    1.0000 </r>
       <r>    5.5256    1.0000 </r>
       <r>    5.5999    1.0000 </r>
       <r>    5.8796    1.0000 </r>
       <r>    5.9136    1.0000 </r>
       <r>    5.9642    1.0000 </r>
       <r>    6.1207    1.0000 </r>
       <r>    6.2328    1.0000 </r>
       <r>    6.2569    1.0000 </r>
       <r>    8.6073   -0.0013 </r>
       <r>    8.7234   -0.0002 </r>
       <r>    9.8326    0.0000 </r>
       <r>   11.6396    0.0000 </r>
       <r>   11.8580    0.0000 </r>
       <r>   14.8697    0.0000 </r>
       <r>   15.0995    0.0000 </r>
      </set>
      <set comment="kpoint 11">
       <r>    1.1942    1.0000 </r>
       <r>    1.6272    1.0000 </r>
       <r>    1.9120    1.0000 </r>
       <r>    1.9873    1.0000 </r>
       <r>    2.2599    1.0000 </r>
       <r>    2.4857    1.0000 </r>
       <r>    2.8281    1.0000 </r>
       <r>    3.2324    1.0000 </r>
       <r>    3.4728    1.0000 </r>
       <r>    3.4755    1.0000 </r>
       <r>    3.5838    1.0000 </r>
       <r>    3.6752    1.0000 </r>
       <r>    3.8015    1.0000 </r>
       <r>    3.9115    1.0000 </r>
       <r>    4.3363    1.0000 </r>
       <r>    4.3462    1.0000 </r>
       <r>    4.5532    1.0000 </r>
       <r>    4.8245    1.0000 </r>
       <r>    4.9236    1.0000 </r>
       <r>    4.9975    1.0000 </r>
       <r>    5.1652    1.0000 </r>
       <r>    5.1973    1.0000 </r>
       <r>    5.3200    1.0000 </r>
       <r>    5.3983    1.0000 </r>
       <r>    5.5064    1.0000 </r>
       <r>    5.5640    1.0000 </r>
       <r>    5.7155    1.0000 </r>
       <r>    5.8787    1.0000 </r>
       <r>    5.9666    1.0000 </r>
       <r>    6.0883    1.0000 </r>
       <r>    6.2361    1.0000 </r>
       <r>    6.2486    1.0000 </r>
       <r>    6.2884    1.0000 </r>
       <r>    8.3861   -0.0170 </r>
       <r>    8.6864   -0.0004 </r>
       <r>    9.1413    0.0000 </r>
       <r>   11.1772    0.0000 </r>
       <r>   11.6145    0.0000 </r>
       <r>   14.1319    0.0000 </r>
       <r>   14.5972    0.0000 </r>
      </set>
      <set comment="kpoint 12">
       <r>    1.2703    1.0000 </r>
       <r>    1.6287    1.0000 </r>
       <r>    1.8491    1.0000 </r>
       <r>    2.0883    1.0000 </r>
       <r>    2.4055    1.0000 </r>
       <r>    2.5187    1.0000 </r>
       <r>    2.8514    1.0000 </r>
       <r>    3.2383    1.0000 </r>
       <r>    3.4250    1.0000 </r>
       <r>    3.5253    1.0000 </r>
       <r>    3.5470    1.0000 </r>
       <r>    3.6406    1.0000 </r>
       <r>    3.7923    1.0000 </r>
       <r>    3.9615    1.0000 </r>
       <r>    4.3516    1.0000 </r>
       <r>    4.3525    1.0000 </r>
       <r>    4.5221    1.0000 </r>
       <r>    5.0262    1.0000 </r>
       <r>    5.0730    1.0000 </r>
       <r>    5.1088    1.0000 </r>
       <r>    5.1869    1.0000 </r>
       <r>    5.2126    1.0000 </r>
       <r>    5.3759    1.0000 </r>
       <r>    5.3893    1.0000 </r>
       <r>    5.4895    1.0000 </r>
       <r>    5.6207    1.0000 </r>
       <r>    5.8796    1.0000 </r>
       <r>    5.9721    1.0000 </r>
       <r>    6.2374    1.0000 </r>
       <r>    6.2400    1.0000 </r>
       <r>    6.2870    1.0000 </r>
       <r>    6.3961    1.0000 </r>
       <r>    6.5581    1.0000 </r>
       <r>    7.8849    0.4447 </r>
       <r>    8.2038   -0.0338 </r>
       <r>    8.5683   -0.0023 </r>
       <r>   11.1746    0.0000 </r>
       <r>   11.8206    0.0000 </r>
       <r>   13.2660    0.0000 </r>
       <r>   13.8036    0.0000 </r>
      </set>
      <set comment="kpoint 13">
       <r>    1.3025    1.0000 </r>
       <r>    1.6235    1.0000 </r>
       <r>    1.8159    1.0000 </r>
       <r>    2.1229    1.0000 </r>
       <r>    2.4900    1.0000 </r>
       <r>    2.5448    1.0000 </r>
       <r>    2.9321    1.0000 </r>
       <r>    3.1976    1.0000 </r>
       <r>    3.4006    1.0000 </r>
       <r>    3.5269    1.0000 </r>
       <r>    3.5405    1.0000 </r>
       <r>    3.6217    1.0000 </r>
       <r>    3.7878    1.0000 </r>
       <r>    3.9762    1.0000 </r>
       <r>    4.3430    1.0000 </r>
       <r>    4.3665    1.0000 </r>
       <r>    4.5031    1.0000 </r>
       <r>    5.1046    1.0000 </r>
       <r>    5.1453    1.0000 </r>
       <r>    5.1608    1.0000 </r>
       <r>    5.1833    1.0000 </r>
       <r>    5.2521    1.0000 </r>
       <r>    5.3618    1.0000 </r>
       <r>    5.4229    1.0000 </r>
       <r>    5.5034    1.0000 </r>
       <r>    5.6322    1.0000 </r>
       <r>    5.8806    1.0000 </r>
       <r>    5.9765    1.0000 </r>
       <r>    6.2336    1.0000 </r>
       <r>    6.2385    1.0000 </r>
       <r>    6.8155    1.0000 </r>
       <r>    6.9267    1.0000 </r>
       <r>    7.0120    1.0002 </r>
       <r>    7.3523    1.0181 </r>
       <r>    7.5710    1.0230 </r>
       <r>    7.9234    0.3393 </r>
       <r>   11.5057    0.0000 </r>
       <r>   12.2318    0.0000 </r>
       <r>   12.5733    0.0000 </r>
       <r>   13.1436    0.0000 </r>
      </set>
      <set comment="kpoint 14">
       <r>   -0.9209    1.0000 </r>
       <r>    0.3875    1.0000 </r>
       <r>    0.8234    1.0000 </r>
       <r>    1.6022    1.0000 </r>
       <r>    1.6217    1.0000 </r>
       <r>    1.9216    1.0000 </r>
       <r>    2.0555    1.0000 </r>
       <r>    2.2762    1.0000 </r>
       <r>    2.9340    1.0000 </r>
       <r>    3.5951    1.0000 </r>
       <r>    3.6259    1.0000 </r>
       <r>    3.6744    1.0000 </r>
       <r>    3.7004    1.0000 </r>
       <r>    4.2026    1.0000 </r>
       <r>    4.2645    1.0000 </r>
       <r>    4.3067    1.0000 </r>
       <r>    4.4354    1.0000 </r>
       <r>    4.5418    1.0000 </r>
       <r>    4.6668    1.0000 </r>
       <r>    4.9841    1.0000 </r>
       <r>    5.1467    1.0000 </r>
       <r>    5.2728    1.0000 </r>
       <r>    5.3210    1.0000 </r>
       <r>    5.3860    1.0000 </r>
       <r>    5.4311    1.0000 </r>
       <r>    5.5256    1.0000 </r>
       <r>    5.6297    1.0000 </r>
       <r>    5.8646    1.0000 </r>
       <r>    5.8711    1.0000 </r>
       <r>    6.0333    1.0000 </r>
       <r>    6.1466    1.0000 </r>
       <r>    6.1784    1.0000 </r>
       <r>    6.2204    1.0000 </r>
       <r>    6.3703    1.0000 </r>
       <r>    6.5739    1.0000 </r>
       <r>   10.6502    0.0000 </r>
       <r>   15.3908    0.0000 </r>
       <r>   14.2457    0.0000 </r>
       <r>   14.2794    0.0000 </r>
       <r>   16.8450    0.0000 </r>
      </set>
      <set comment="kpoint 15">
       <r>   -0.8160    1.0000 </r>
       <r>    0.4837    1.0000 </r>
       <r>    0.8972    1.0000 </r>
       <r>    1.6485    1.0000 </r>
       <r>    1.6997    1.0000 </r>
       <r>    1.9644    1.0000 </r>
       <r>    2.1010    1.0000 </r>
       <r>    2.3202    1.0000 </r>
       <r>    2.9604    1.0000 </r>
       <r>    3.5444    1.0000 </r>
       <r>    3.6148    1.0000 </r>
       <r>    3.6414    1.0000 </r>
       <r>    3.6919    1.0000 </r>
       <r>    4.0630    1.0000 </r>
       <r>    4.2552    1.0000 </r>
       <r>    4.2823    1.0000 </r>
       <r>    4.3708    1.0000 </r>
       <r>    4.5528    1.0000 </r>
       <r>    4.7150    1.0000 </r>
       <r>    5.0177    1.0000 </r>
       <r>    5.0705    1.0000 </r>
       <r>    5.2322    1.0000 </r>
       <r>    5.3352    1.0000 </r>
       <r>    5.3800    1.0000 </r>
       <r>    5.4076    1.0000 </r>
       <r>    5.5053    1.0000 </r>
       <r>    5.6046    1.0000 </r>
       <r>    5.8308    1.0000 </r>
       <r>    5.8986    1.0000 </r>
       <r>    6.0162    1.0000 </r>
       <r>    6.0891    1.0000 </r>
       <r>    6.1616    1.0000 </r>
       <r>    6.2209    1.0000 </r>
       <r>    6.5845    1.0000 </r>
       <r>    6.7565    1.0000 </r>
       <r>   10.8765    0.0000 </r>
       <r>   15.3842    0.0000 </r>
       <r>   14.3178    0.0000 </r>
       <r>   14.5840    0.0000 </r>
       <r>   15.5589    0.0000 </r>
      </set>
      <set comment="kpoint 16">
       <r>   -0.6451    1.0000 </r>
       <r>    0.6348    1.0000 </r>
       <r>    1.0115    1.0000 </r>
       <r>    1.7067    1.0000 </r>
[...]
       <r>    5.7462    1.0000 </r>
       <r>    5.7671    1.0000 </r>
       <r>    5.9712    1.0000 </r>
       <r>    6.0066    1.0000 </r>
       <r>    6.0287    1.0000 </r>
       <r>    6.0970    1.0000 </r>
       <r>    6.1374    1.0000 </r>
       <r>    6.2059    1.0000 </r>
       <r>    6.2618    1.0000 </r>
       <r>    8.6093   -0.0013 </r>
       <r>    9.0508    0.0000 </r>
       <r>    9.8583    0.0000 </r>
       <r>   10.3628    0.0000 </r>
       <r>   11.7800    0.0000 </r>
       <r>   12.3934    0.0000 </r>
       <r>   13.3372    0.0000 </r>
       <r>   13.9088    0.0000 </r>
       <r>   13.9376    0.0000 </r>
       <r>   14.1942    0.0000 </r>
      </set>
      <set comment="kpoint 363">
       <r>    1.4260    1.0000 </r>
       <r>    1.5585    1.0000 </r>
       <r>    1.7289    1.0000 </r>
       <r>    1.9769    1.0000 </r>
       <r>    1.9887    1.0000 </r>
       <r>    2.3732    1.0000 </r>
       <r>    2.4181    1.0000 </r>
       <r>    2.9674    1.0000 </r>
       <r>    3.2640    1.0000 </r>
       <r>    3.2957    1.0000 </r>
       <r>    3.4496    1.0000 </r>
       <r>    3.9051    1.0000 </r>
       <r>    4.4116    1.0000 </r>
       <r>    4.4397    1.0000 </r>
       <r>    4.6180    1.0000 </r>
       <r>    4.9483    1.0000 </r>
       <r>    5.0854    1.0000 </r>
       <r>    5.3232    1.0000 </r>
       <r>    5.4535    1.0000 </r>
       <r>    5.5189    1.0000 </r>
       <r>    5.5908    1.0000 </r>
       <r>    5.7688    1.0000 </r>
       <r>    5.8615    1.0000 </r>
       <r>    5.9661    1.0000 </r>
       <r>    6.0238    1.0000 </r>
       <r>    6.0322    1.0000 </r>
       <r>    6.1321    1.0000 </r>
       <r>    6.1493    1.0000 </r>
       <r>    6.2497    1.0000 </r>
       <r>    6.2801    1.0000 </r>
       <r>    9.0942    0.0000 </r>
       <r>    9.5435    0.0000 </r>
       <r>    9.5601    0.0000 </r>
       <r>   10.0326    0.0000 </r>
       <r>   12.4287    0.0000 </r>
       <r>   13.0114    0.0000 </r>
       <r>   13.2591    0.0000 </r>
       <r>   13.4041    0.0000 </r>
       <r>   13.7550    0.0000 </r>
       <r>   13.9873    0.0000 </r>
      </set>
      <set comment="kpoint 364">
       <r>    1.3823    1.0000 </r>
       <r>    1.5227    1.0000 </r>
       <r>    1.6963    1.0000 </r>
       <r>    1.9644    1.0000 </r>
       <r>    1.9665    1.0000 </r>
       <r>    2.3830    1.0000 </r>
       <r>    2.3858    1.0000 </r>
       <r>    2.9671    1.0000 </r>
       <r>    3.2846    1.0000 </r>
       <r>    3.2945    1.0000 </r>
       <r>    3.4263    1.0000 </r>
       <r>    3.9011    1.0000 </r>
       <r>    4.4362    1.0000 </r>
       <r>    4.4369    1.0000 </r>
       <r>    4.6168    1.0000 </r>
       <r>    5.0592    1.0000 </r>
       <r>    5.1843    1.0000 </r>
       <r>    5.3385    1.0000 </r>
       <r>    5.4667    1.0000 </r>
       <r>    5.5480    1.0000 </r>
       <r>    5.5685    1.0000 </r>
       <r>    5.8644    1.0000 </r>
       <r>    5.8732    1.0000 </r>
       <r>    5.9751    1.0000 </r>
       <r>    6.0382    1.0000 </r>
       <r>    6.0413    1.0000 </r>
       <r>    6.1507    1.0000 </r>
       <r>    6.1606    1.0000 </r>
       <r>    6.2910    1.0000 </r>
       <r>    6.3312    1.0000 </r>
       <r>    9.3934    0.0000 </r>
       <r>    9.5642    0.0000 </r>
       <r>    9.8746    0.0000 </r>
       <r>   10.0527    0.0000 </r>
       <r>   12.9565    0.0000 </r>
       <r>   13.2030    0.0000 </r>
       <r>   13.3956    0.0000 </r>
       <r>   13.6849    0.0000 </r>
       <r>   13.7261    0.0000 </r>
       <r>   13.7377    0.0000 </r>
      </set>
     </set>
    </set>
   </array>
  </eigenvalues>
  <separator name="orbital magnetization" >
   <v name="MAGDIPOLOUT">      0.00000000      0.00000000      0.00000000</v>
  </separator>
  <dos>
   <i name="efermi">      7.86527935 </i>
   <total>
    <array>
     <dimension dim="1">gridpoints</dimension>
     <dimension dim="2">spin</dimension>
     <field>energy</field>
     <field>total</field>
     <field>integrated</field>
     <set>
      <set comment="spin 1">
       <r>    -3.9916     0.0000     0.0000 </r>
       <r>    -3.9102     0.0000     0.0000 </r>
       <r>    -3.8287     0.0000     0.0000 </r>
       <r>    -3.7473     0.0000     0.0000 </r>
       <r>    -3.6658     0.0000     0.0000 </r>
       <r>    -3.5844     0.0000     0.0000 </r>
       <r>    -3.5029     0.0000     0.0000 </r>
       <r>    -3.4215     0.0000     0.0000 </r>
       <r>    -3.3401     0.0000     0.0000 </r>
       <r>    -3.2586     0.0000     0.0000 </r>
       <r>    -3.1772     0.0000     0.0000 </r>
       <r>    -3.0957     0.0000     0.0000 </r>
       <r>    -3.0143     0.0000     0.0000 </r>
       <r>    -2.9328     0.0000     0.0000 </r>
       <r>    -2.8514     0.0000     0.0000 </r>
       <r>    -2.7699     0.0000     0.0000 </r>
       <r>    -2.6885     0.0000     0.0000 </r>
       <r>    -2.6071     0.0000     0.0000 </r>
       <r>    -2.5256     0.0000     0.0000 </r>
       <r>    -2.4442     0.0000     0.0000 </r>
       <r>    -2.3627     0.0000     0.0000 </r>
       <r>    -2.2813     0.0000     0.0000 </r>
       <r>    -2.1998     0.0000     0.0000 </r>
       <r>    -2.1184     0.0000     0.0000 </r>
       <r>    -2.0370     0.0000     0.0000 </r>
       <r>    -1.9555     0.0000     0.0000 </r>
       <r>    -1.8741     0.0000     0.0000 </r>
       <r>    -1.7926     0.0000     0.0000 </r>
       <r>    -1.7112    -0.0002     0.0000 </r>
       <r>    -1.6297    -0.0006    -0.0001 </r>
       <r>    -1.5483    -0.0016    -0.0002 </r>
       <r>    -1.4669    -0.0037    -0.0005 </r>
       <r>    -1.3854    -0.0068    -0.0010 </r>
       <r>    -1.3040    -0.0094    -0.0018 </r>
       <r>    -1.2225    -0.0073    -0.0024 </r>
       <r>    -1.1411     0.0067    -0.0019 </r>
       <r>    -1.0596     0.0388     0.0013 </r>
       <r>    -0.9782     0.0901     0.0086 </r>
       <r>    -0.8967     0.1533     0.0211 </r>
       <r>    -0.8153     0.2151     0.0386 </r>
       <r>    -0.7339     0.2629     0.0600 </r>
       <r>    -0.6524     0.2916     0.0838 </r>
       <r>    -0.5710     0.3036     0.1085 </r>
       <r>    -0.4895     0.3059     0.1334 </r>
       <r>    -0.4081     0.3050     0.1583 </r>
       <r>    -0.3266     0.3066     0.1832 </r>
       <r>    -0.2452     0.3155     0.2089 </r>
       <r>    -0.1638     0.3357     0.2363 </r>
       <r>    -0.0823     0.3689     0.2663 </r>
       <r>    -0.0009     0.4140     0.3000 </r>
       <r>     0.0806     0.4679     0.3381 </r>
       <r>     0.1620     0.5255     0.3809 </r>
       <r>     0.2435     0.5806     0.4282 </r>
       <r>     0.3249     0.6281     0.4794 </r>
       <r>     0.4064     0.6666     0.5337 </r>
       <r>     0.4878     0.6973     0.5905 </r>
       <r>     0.5692     0.7235     0.6494 </r>
       <r>     0.6507     0.7501     0.7105 </r>
       <r>     0.7321     0.7842     0.7744 </r>
       <r>     0.8136     0.8340     0.8423 </r>
       <r>     0.8950     0.9067     0.9161 </r>
       <r>     0.9765     1.0090     0.9983 </r>
       <r>     1.0579     1.1482     1.0918 </r>
       <r>     1.1393     1.3312     1.2002 </r>
       <r>     1.2208     1.5672     1.3279 </r>
       <r>     1.3022     1.8776     1.4808 </r>
       <r>     1.3837     2.3083     1.6688 </r>
       <r>     1.4651     2.9245     1.9070 </r>
       <r>     1.5466     3.7784     2.2147 </r>
       <r>     1.6280     4.8755     2.6118 </r>
       <r>     1.7094     6.1665     3.1140 </r>
       <r>     1.7909     7.5605     3.7297 </r>
       <r>     1.8723     8.9255     4.4567 </r>
       <r>     1.9538    10.0807     5.2777 </r>
       <r>     2.0352    10.8350     6.1601 </r>
       <r>     2.1167    11.0919     7.0635 </r>
       <r>     2.1981    10.9380     7.9543 </r>
       <r>     2.2796    10.6002     8.8176 </r>
       <r>     2.3610    10.2737     9.6544 </r>
       <r>     2.4424     9.9756    10.4668 </r>
       <r>     2.5239     9.5830    11.2473 </r>
       <r>     2.6053     9.0430    11.9838 </r>
       <r>     2.6868     8.5505    12.6802 </r>
       <r>     2.7682     8.4824    13.3710 </r>
       <r>     2.8497     9.1042    14.1125 </r>
       <r>     2.9311    10.3110    14.9523 </r>
       <r>     3.0125    11.6494    15.9010 </r>
       <r>     3.0940    12.5995    16.9272 </r>
       <r>     3.1754    12.8752    17.9758 </r>
       <r>     3.2569    12.5500    18.9979 </r>
       <r>     3.3383    11.9904    19.9744 </r>
       <r>     3.4198    11.6580    20.9239 </r>
       <r>     3.5012    11.8451    21.8886 </r>
       <r>     3.5827    12.4737    22.9045 </r>
       <r>     3.6641    13.1277    23.9737 </r>
       <r>     3.7455    13.3295    25.0593 </r>
       <r>     3.8270    12.8393    26.1050 </r>
       <r>     3.9084    11.7536    27.0622 </r>
       <r>     3.9899    10.4129    27.9103 </r>
       <r>     4.0713     9.2774    28.6659 </r>
       <r>     4.1528     8.8130    29.3836 </r>
       <r>     4.2342     9.3015    30.1412 </r>
       <r>     4.3156    10.6055    31.0049 </r>
       <r>     4.3971    12.1251    31.9924 </r>
       <r>     4.4785    13.1150    33.0606 </r>
       <r>     4.5600    13.1543    34.1319 </r>
       <r>     4.6414    12.3572    35.1383 </r>
       <r>     4.7229    11.1762    36.0486 </r>
       <r>     4.8043    10.0757    36.8692 </r>
       <r>     4.8857     9.3946    37.6343 </r>
       <r>     4.9672     9.3938    38.3994 </r>
       <r>     5.0486    10.2760    39.2363 </r>
       <r>     5.1301    12.0747    40.2197 </r>
       <r>     5.2115    14.5217    41.4024 </r>
       <r>     5.2930    17.0485    42.7909 </r>
       <r>     5.3744    18.9812    44.3368 </r>
       <r>     5.4559    19.8589    45.9541 </r>
       <r>     5.5373    19.7112    47.5595 </r>
       <r>     5.6187    19.1055    49.1155 </r>
       <r>     5.7002    18.8599    50.6515 </r>
       <r>     5.7816    19.5234    52.2416 </r>
       <r>     5.8631    20.9569    53.9484 </r>
       <r>     5.9445    22.3558    55.7691 </r>
       <r>     6.0260    22.7214    57.6196 </r>
       <r>     6.1074    21.4147    59.3637 </r>
       <r>     6.1888    18.4263    60.8644 </r>
       <r>     6.2703    14.3068    62.0296 </r>
       <r>     6.3517     9.9182    62.8374 </r>
       <r>     6.4332     6.1214    63.3359 </r>
       <r>     6.5146     3.4687    63.6184 </r>
       <r>     6.5961     2.0390    63.7845 </r>
       <r>     6.6775     1.5272    63.9089 </r>
       <r>     6.7590     1.5051    64.0315 </r>
       <r>     6.8404     1.6447    64.1654 </r>
       <r>     6.9218     1.7821    64.3106 </r>
       <r>     7.0033     1.8658    64.4625 </r>
       <r>     7.0847     1.8911    64.6165 </r>
       <r>     7.1662     1.8688    64.7687 </r>
       <r>     7.2476     1.8209    64.9170 </r>
       <r>     7.3291     1.7762    65.0617 </r>
       <r>     7.4105     1.7550    65.2046 </r>
       <r>     7.4919     1.7539    65.3475 </r>
       <r>     7.5734     1.7533    65.4903 </r>
       <r>     7.6548     1.7429    65.6322 </r>
       <r>     7.7363     1.7352    65.7736 </r>
       <r>     7.8177     1.7472    65.9159 </r>
       <r>     7.8992     1.7751    66.0604 </r>
       <r>     7.9806     1.7960    66.2067 </r>
       <r>     8.0620     1.7927    66.3527 </r>
       <r>     8.1435     1.7669    66.4966 </r>
       <r>     8.2249     1.7300    66.6375 </r>
       <r>     8.3064     1.6900    66.7751 </r>
       <r>     8.3878     1.6535    66.9098 </r>
       <r>     8.4693     1.6322    67.0427 </r>
       <r>     8.5507     1.6388    67.1762 </r>
       <r>     8.6322     1.6720    67.3124 </r>
       <r>     8.7136     1.7098    67.4516 </r>
       <r>     8.7950     1.7224    67.5919 </r>
       <r>     8.8765     1.6937    67.7299 </r>
       <r>     8.9579     1.6343    67.8630 </r>
       <r>     9.0394     1.5725    67.9910 </r>
       <r>     9.1208     1.5353    68.1161 </r>
       <r>     9.2023     1.5340    68.2410 </r>
       <r>     9.2837     1.5603    68.3681 </r>
       <r>     9.3651     1.5905    68.4976 </r>
       <r>     9.4466     1.5965    68.6276 </r>
       <r>     9.5280     1.5619    68.7549 </r>
       <r>     9.6095     1.4950    68.8766 </r>
       <r>     9.6909     1.4261    68.9928 </r>
       <r>     9.7724     1.3867    69.1057 </r>
       <r>     9.8538     1.3861    69.2186 </r>
       <r>     9.9353     1.4050    69.3330 </r>
       <r>    10.0167     1.4133    69.4481 </r>
       <r>    10.0981     1.3952    69.5617 </r>
       <r>    10.1796     1.3592    69.6724 </r>
       <r>    10.2610     1.3245    69.7803 </r>
       <r>    10.3425     1.3001    69.8862 </r>
       <r>    10.4239     1.2785    69.9903 </r>
       <r>    10.5054     1.2480    70.0920 </r>
       <r>    10.5868     1.2091    70.1904 </r>
       <r>    10.6682     1.1805    70.2866 </r>
       <r>    10.7497     1.1867    70.3832 </r>
       <r>    10.8311     1.2389    70.4841 </r>
       <r>    10.9126     1.3254    70.5921 </r>
       <r>    10.9940     1.4193    70.7077 </r>
       <r>    11.0755     1.4940    70.8293 </r>
       <r>    11.1569     1.5327    70.9542 </r>
       <r>    11.2383     1.5327    71.0790 </r>
       <r>    11.3198     1.5096    71.2020 </r>
       <r>    11.4012     1.4965    71.3238 </r>
       <r>    11.4827     1.5283    71.4483 </r>
       <r>    11.5641     1.6163    71.5799 </r>
       <r>    11.6456     1.7342    71.7212 </r>
       <r>    11.7270     1.8321    71.8704 </r>
       <r>    11.8085     1.8702    72.0227 </r>
       <r>    11.8899     1.8474    72.1732 </r>
       <r>    11.9713     1.8011    72.3199 </r>
       <r>    12.0528     1.7761    72.4645 </r>
       <r>    12.1342     1.7900    72.6103 </r>
       <r>    12.2157     1.8232    72.7588 </r>
       <r>    12.2971     1.8410    72.9087 </r>
       <r>    12.3786     1.8249    73.0573 </r>
       <r>    12.4600     1.7871    73.2029 </r>
       <r>    12.5414     1.7574    73.3460 </r>
       <r>    12.6229     1.7565    73.4891 </r>
       <r>    12.7043     1.7807    73.6341 </r>
       <r>    12.7858     1.8072    73.7813 </r>
       <r>    12.8672     1.8131    73.9290 </r>
       <r>    12.9487     1.7906    74.0748 </r>
       <r>    13.0301     1.7490    74.2172 </r>
       <r>    13.1116     1.7058    74.3562 </r>
       <r>    13.1930     1.6767    74.4927 </r>
       <r>    13.2744     1.6690    74.6287 </r>
       <r>    13.3559     1.6835    74.7658 </r>
       <r>    13.4373     1.7190    74.9058 </r>
       <r>    13.5188     1.7789    75.0506 </r>
       <r>    13.6002     1.8731    75.2032 </r>
       <r>    13.6817     2.0123    75.3671 </r>
       <r>    13.7631     2.1942    75.5458 </r>
       <r>    13.8445     2.3887    75.7403 </r>
       <r>    13.9260     2.5395    75.9472 </r>
       <r>    14.0074     2.5922    76.1583 </r>
       <r>    14.0889     2.5317    76.3645 </r>
       <r>    14.1703     2.3950    76.5595 </r>
       <r>    14.2518     2.2467    76.7425 </r>
       <r>    14.3332     2.1400    76.9168 </r>
       <r>    14.4146     2.0943    77.0874 </r>
       <r>    14.4961     2.0962    77.2581 </r>
       <r>    14.5775     2.1160    77.4304 </r>
       <r>    14.6590     2.1244    77.6034 </r>
       <r>    14.7404     2.1047    77.7748 </r>
       <r>    14.8219     2.0560    77.9423 </r>
       <r>    14.9033     1.9858    78.1040 </r>
       <r>    14.9848     1.8976    78.2586 </r>
       <r>    15.0662     1.7861    78.4040 </r>
       <r>    15.1476     1.6490    78.5383 </r>
       <r>    15.2291     1.5015    78.6606 </r>
       <r>    15.3105     1.3762    78.7727 </r>
       <r>    15.3920     1.3051    78.8790 </r>
       <r>    15.4734     1.3044    78.9852 </r>
       <r>    15.5549     1.3731    79.0971 </r>
       <r>    15.6363     1.5004    79.2193 </r>
       <r>    15.7177     1.6611    79.3546 </r>
       <r>    15.7992     1.7981    79.5010 </r>
       <r>    15.8806     1.8229    79.6495 </r>
       <r>    15.9621     1.6589    79.7846 </r>
       <r>    16.0435     1.3031    79.8907 </r>
       <r>    16.1250     0.8464    79.9596 </r>
       <r>    16.2064     0.4236    79.9941 </r>
       <r>    16.2879     0.1324    80.0049 </r>
       <r>    16.3693    -0.0094    80.0042 </r>
       <r>    16.4507    -0.0458    80.0004 </r>
       <r>    16.5322    -0.0347    79.9976 </r>
       <r>    16.6136    -0.0144    79.9964 </r>
       <r>    16.6951     0.0004    79.9965 </r>
       <r>    16.7765     0.0083    79.9971 </r>
       <r>    16.8580     0.0109    79.9980 </r>
       <r>    16.9394     0.0097    79.9988 </r>
       <r>    17.0208     0.0064    79.9993 </r>
       <r>    17.1023     0.0030    79.9996 </r>
       <r>    17.1837     0.0007    79.9996 </r>
       <r>    17.2652     0.0001    79.9996 </r>
       <r>    17.3466     0.0004    79.9997 </r>
       <r>    17.4281     0.0009    79.9997 </r>
       <r>    17.5095     0.0012    79.9998 </r>
       <r>    17.5909     0.0011    79.9999 </r>
       <r>    17.6724     0.0007    80.0000 </r>
       <r>    17.7538     0.0003    80.0000 </r>
       <r>    17.8353     0.0000    80.0000 </r>
       <r>    17.9167    -0.0001    80.0000 </r>
       <r>    17.9982    -0.0001    80.0000 </r>
       <r>    18.0796     0.0000    80.0000 </r>
       <r>    18.1611     0.0000    80.0000 </r>
       <r>    18.2425     0.0000    80.0000 </r>
       <r>    18.3239     0.0000    80.0000 </r>
       <r>    18.4054     0.0000    80.0000 </r>
       <r>    18.4868     0.0000    80.0000 </r>
       <r>    18.5683     0.0000    80.0000 </r>
       <r>    18.6497     0.0000    80.0000 </r>
       <r>    18.7312     0.0000    80.0000 </r>
       <r>    18.8126     0.0000    80.0000 </r>
       <r>    18.8940     0.0000    80.0000 </r>
       <r>    18.9755     0.0000    80.0000 </r>
       <r>    19.0569     0.0000    80.0000 </r>
       <r>    19.1384     0.0000    80.0000 </r>
       <r>    19.2198     0.0000    80.0000 </r>
       <r>    19.3013     0.0000    80.0000 </r>
       <r>    19.3827     0.0000    80.0000 </r>
       <r>    19.4642     0.0000    80.0000 </r>
       <r>    19.5456     0.0000    80.0000 </r>
       <r>    19.6270     0.0000    80.0000 </r>
       <r>    19.7085     0.0000    80.0000 </r>
       <r>    19.7899     0.0000    80.0000 </r>
       <r>    19.8714     0.0000    80.0000 </r>
       <r>    19.9528     0.0000    80.0000 </r>
       <r>    20.0343     0.0000    80.0000 </r>
       <r>    20.1157     0.0000    80.0000 </r>
       <r>    20.1971     0.0000    80.0000 </r>
       <r>    20.2786     0.0000    80.0000 </r>
       <r>    20.3600     0.0000    80.0000 </r>
       <r>    20.4415     0.0000    80.0000 </r>
      </set>
     </set>
    </array>
   </total>
  </dos>
 </calculation>
 <structure name="finalpos" >
  <crystal>
   <varray name="basis" >
    <v>       0.00000000       2.00234454      -2.00234454 </v>
    <v>       0.00000000      -2.00234454      -2.00234454 </v>
    <v>     -11.20058277       0.00000000       0.00000000 </v>
   </varray>
   <i name="volume">     89.81486728 </i>
   <varray name="rec_basis" >
    <v>       0.00000000       0.24970728      -0.24970728 </v>
    <v>       0.00000000      -0.24970728      -0.24970728 </v>
    <v>      -0.08928107       0.00000000       0.00000000 </v>
   </varray>
  </crystal>
  <varray name="positions" >
   <v>       0.00000000       0.00000000       0.65714109 </v>
   <v>       0.00000000       0.00000000       0.32307048 </v>
   <v>       0.50000000       0.50000000       0.18552508 </v>
   <v>       0.50000000       0.50000000       0.82357098 </v>
   <v>       0.50000000       0.50000000       0.49034097 </v>
   <v>       0.00000000       0.00000000       0.02035140 </v>
  </varray>
 </structure>
</modeling>
