<?xml version="1.0" encoding="ISO-8859-1"?>
<modeling>
 <generator>
  <i name="program" type="string">vasp </i>
  <i name="version" type="string">5.3.5  </i>
  <i name="subversion" type="string">31Mar14 (build Jun 20 2014 13:15:13) complex                          parallel </i>
  <i name="platform" type="string">LinuxIFC </i>
  <i name="date" type="string">2025 11 27 </i>
  <i name="time" type="string">23:48:24 </i>
 </generator>
 <incar>
  <i type="string" name="PREC">accurate</i>
  <i type="int" name="IALGO">    68</i>
  <i type="logical" name="ADDGRID"> T  </i>
  <i type="int" name="NELM">   200</i>
  <i type="int" name="NELMIN">     4</i>
  <i type="int" name="IBRION">     2</i>
  <i name="EDIFF">      0.00000100</i>
  <i name="EDIFFG">     -0.02000000</i>
  <i type="int" name="NSW">    30</i>
  <i type="int" name="ISIF">     3</i>
  <i name="ENCUT">    500.00000000</i>
  <i type="logical" name="LREAL"> F  </i>
  <i type="int" name="ISMEAR">     1</i>
  <i name="SIGMA">      0.30000000</i>
  <i type="logical" name="LWAVE"> F  </i>
  <i type="logical" name="LCHARG"> F  </i>
  <i type="int" name="NELM">   200</i>
 </incar>
 <kpoints>
  <generation param="Auto">
   <i name="subdivisionlength">     70.00000000 </i>
   <v type="int" name="divisions">      24       15       10 </v>
   <v name="usershift">      0.00000000       0.00000000       0.00000000 </v>
   <v name="genvec1">      0.04166667       0.00000000       0.00000000 </v>
   <v name="genvec2">      0.00000000       0.06666667       0.00000000 </v>
   <v name="genvec3">      0.00000000       0.00000000       0.10000000 </v>
   <v name="shift">      0.00000000       0.00000000       0.00000000 </v>
  </generation>
  <varray name="kpointlist" >
   <v>       0.00000000       0.00000000       0.00000000 </v>
   <v>       0.04166667       0.00000000       0.00000000 </v>
   <v>       0.08333333       0.00000000       0.00000000 </v>
   <v>       0.12500000       0.00000000       0.00000000 </v>
   <v>       0.16666667       0.00000000       0.00000000 </v>
   <v>       0.20833333       0.00000000       0.00000000 </v>
   <v>       0.25000000       0.00000000       0.00000000 </v>
   <v>       0.29166667       0.00000000       0.00000000 </v>
   <v>       0.33333333       0.00000000       0.00000000 </v>
   <v>       0.37500000       0.00000000       0.00000000 </v>
   <v>       0.41666667       0.00000000       0.00000000 </v>
   <v>       0.45833333       0.00000000       0.00000000 </v>
   <v>       0.50000000       0.00000000       0.00000000 </v>
   <v>       0.00000000       0.06666667       0.00000000 </v>
   <v>       0.04166667       0.06666667       0.00000000 </v>
   <v>       0.08333333       0.06666667       0.00000000 </v>
   <v>       0.12500000       0.06666667       0.00000000 </v>
   <v>       0.16666667       0.06666667       0.00000000 </v>
   <v>       0.20833333       0.06666667       0.00000000 </v>
   <v>       0.25000000       0.06666667       0.00000000 </v>
   <v>       0.29166667       0.06666667       0.00000000 </v>
   <v>       0.33333333       0.06666667       0.00000000 </v>
   <v>       0.37500000       0.06666667       0.00000000 </v>
   <v>       0.41666667       0.06666667       0.00000000 </v>
   <v>       0.45833333       0.06666667       0.00000000 </v>
   <v>       0.50000000       0.06666667       0.00000000 </v>
   <v>       0.00000000       0.13333333       0.00000000 </v>
   <v>       0.04166667       0.13333333       0.00000000 </v>
   <v>       0.08333333       0.13333333       0.00000000 </v>
   <v>       0.12500000       0.13333333       0.00000000 </v>
   <v>       0.16666667       0.13333333       0.00000000 </v>
   <v>       0.20833333       0.13333333       0.00000000 </v>
   <v>       0.25000000       0.13333333       0.00000000 </v>
   <v>       0.29166667       0.13333333       0.00000000 </v>
   <v>       0.33333333       0.13333333       0.00000000 </v>
   <v>       0.37500000       0.13333333       0.00000000 </v>
   <v>       0.41666667       0.13333333       0.00000000 </v>
   <v>       0.45833333       0.13333333       0.00000000 </v>
   <v>       0.50000000       0.13333333       0.00000000 </v>
   <v>       0.00000000       0.20000000       0.00000000 </v>
   <v>       0.04166667       0.20000000       0.00000000 </v>
   <v>       0.08333333       0.20000000       0.00000000 </v>
   <v>       0.12500000       0.20000000       0.00000000 </v>
   <v>       0.16666667       0.20000000       0.00000000 </v>
   <v>       0.20833333       0.20000000       0.00000000 </v>
   <v>       0.25000000       0.20000000       0.00000000 </v>
   <v>       0.29166667       0.20000000       0.00000000 </v>
   <v>       0.33333333       0.20000000       0.00000000 </v>
   <v>       0.37500000       0.20000000       0.00000000 </v>
   <v>       0.41666667       0.20000000       0.00000000 </v>
   <v>       0.45833333       0.20000000       0.00000000 </v>
   <v>       0.50000000       0.20000000       0.00000000 </v>
   <v>       0.00000000       0.26666667       0.00000000 </v>
   <v>       0.04166667       0.26666667       0.00000000 </v>
   <v>       0.08333333       0.26666667       0.00000000 </v>
   <v>       0.12500000       0.26666667       0.00000000 </v>
   <v>       0.16666667       0.26666667       0.00000000 </v>
   <v>       0.20833333       0.26666667       0.00000000 </v>
   <v>       0.25000000       0.26666667       0.00000000 </v>
   <v>       0.29166667       0.26666667       0.00000000 </v>
   <v>       0.33333333       0.26666667       0.00000000 </v>
   <v>       0.37500000       0.26666667       0.00000000 </v>
   <v>       0.41666667       0.26666667       0.00000000 </v>
   <v>       0.45833333       0.26666667       0.00000000 </v>
   <v>       0.50000000       0.26666667       0.00000000 </v>
   <v>       0.00000000       0.33333333       0.00000000 </v>
   <v>       0.04166667       0.33333333       0.00000000 </v>
   <v>       0.08333333       0.33333333       0.00000000 </v>
   <v>       0.12500000       0.33333333       0.00000000 </v>
   <v>       0.16666667       0.33333333       0.00000000 </v>
   <v>       0.20833333       0.33333333       0.00000000 </v>
   <v>       0.25000000       0.33333333       0.00000000 </v>
   <v>       0.29166667       0.33333333       0.00000000 </v>
   <v>       0.33333333       0.33333333       0.00000000 </v>
   <v>       0.37500000       0.33333333       0.00000000 </v>
   <v>       0.41666667       0.33333333       0.00000000 </v>
   <v>       0.45833333       0.33333333       0.00000000 </v>
   <v>       0.50000000       0.33333333       0.00000000 </v>
   <v>       0.00000000       0.40000000       0.00000000 </v>
   <v>       0.04166667       0.40000000       0.00000000 </v>
   <v>       0.08333333       0.40000000       0.00000000 </v>
   <v>       0.12500000       0.40000000       0.00000000 </v>
   <v>       0.16666667       0.40000000       0.00000000 </v>
   <v>       0.20833333       0.40000000       0.00000000 </v>
   <v>       0.25000000       0.40000000       0.00000000 </v>
   <v>       0.29166667       0.40000000       0.00000000 </v>
   <v>       0.33333333       0.40000000       0.00000000 </v>
   <v>       0.37500000       0.40000000       0.00000000 </v>
   <v>       0.41666667       0.40000000       0.00000000 </v>
   <v>       0.45833333       0.40000000       0.00000000 </v>
   <v>       0.50000000       0.40000000       0.00000000 </v>
   <v>       0.00000000       0.46666667       0.00000000 </v>
   <v>       0.04166667       0.46666667       0.00000000 </v>
   <v>       0.08333333       0.46666667       0.00000000 </v>
   <v>       0.12500000       0.46666667       0.00000000 </v>
   <v>       0.16666667       0.46666667       0.00000000 </v>
   <v>       0.20833333       0.46666667       0.00000000 </v>
   <v>       0.25000000       0.46666667       0.00000000 </v>
   <v>       0.29166667       0.46666667       0.00000000 </v>
   <v>       0.33333333       0.46666667       0.00000000 </v>
   <v>       0.37500000       0.46666667       0.00000000 </v>
   <v>       0.41666667       0.46666667       0.00000000 </v>
   <v>       0.45833333       0.46666667       0.00000000 </v>
   <v>       0.50000000       0.46666667       0.00000000 </v>
   <v>       0.00000000       0.00000000       0.10000000 </v>
   <v>       0.04166667       0.00000000       0.10000000 </v>
   <v>       0.08333333       0.00000000       0.10000000 </v>
   <v>       0.12500000       0.00000000       0.10000000 </v>
   <v>       0.16666667       0.00000000       0.10000000 </v>
   <v>       0.20833333       0.00000000       0.10000000 </v>
   <v>       0.25000000       0.00000000       0.10000000 </v>
   <v>       0.29166667       0.00000000       0.10000000 </v>
   <v>       0.33333333       0.00000000       0.10000000 </v>
   <v>       0.37500000       0.00000000       0.10000000 </v>
   <v>       0.41666667       0.00000000       0.10000000 </v>
   <v>       0.45833333       0.00000000       0.10000000 </v>
   <v>       0.50000000       0.00000000       0.10000000 </v>
   <v>       0.00000000       0.06666667       0.10000000 </v>
   <v>       0.04166667       0.06666667       0.10000000 </v>
   <v>       0.08333333       0.06666667       0.10000000 </v>
   <v>       0.12500000       0.06666667       0.10000000 </v>
   <v>       0.16666667       0.06666667       0.10000000 </v>
   <v>       0.20833333       0.06666667       0.10000000 </v>
   <v>       0.25000000       0.06666667       0.10000000 </v>
   <v>       0.29166667       0.06666667       0.10000000 </v>
   <v>       0.33333333       0.06666667       0.10000000 </v>
   <v>       0.37500000       0.06666667       0.10000000 </v>
   <v>       0.41666667       0.06666667       0.10000000 </v>
   <v>       0.45833333       0.06666667       0.10000000 </v>
   <v>       0.50000000       0.06666667       0.10000000 </v>
   <v>       0.00000000       0.13333333       0.10000000 </v>
   <v>       0.04166667       0.13333333       0.10000000 </v>
   <v>       0.08333333       0.13333333       0.10000000 </v>
   <v>       0.12500000       0.13333333       0.10000000 </v>
   <v>       0.16666667       0.13333333       0.10000000 </v>
   <v>       0.20833333       0.13333333       0.10000000 </v>
   <v>       0.25000000       0.13333333       0.10000000 </v>
   <v>       0.29166667       0.13333333       0.10000000 </v>
   <v>       0.33333333       0.13333333       0.10000000 </v>
   <v>       0.37500000       0.13333333       0.10000000 </v>
   <v>       0.41666667       0.13333333       0.10000000 </v>
   <v>       0.45833333       0.13333333       0.10000000 </v>
   <v>       0.50000000       0.13333333       0.10000000 </v>
   <v>       0.00000000       0.20000000       0.10000000 </v>
   <v>       0.04166667       0.20000000       0.10000000 </v>
   <v>       0.08333333       0.20000000       0.10000000 </v>
   <v>       0.12500000       0.20000000       0.10000000 </v>
   <v>       0.16666667       0.20000000       0.10000000 </v>
   <v>       0.20833333       0.20000000       0.10000000 </v>
   <v>       0.25000000       0.20000000       0.10000000 </v>
   <v>       0.29166667       0.20000000       0.10000000 </v>
   <v>       0.33333333       0.20000000       0.10000000 </v>
   <v>       0.37500000       0.20000000       0.10000000 </v>
   <v>       0.41666667       0.20000000       0.10000000 </v>
   <v>       0.45833333       0.20000000       0.10000000 </v>
   <v>       0.50000000       0.20000000       0.10000000 </v>
   <v>       0.00000000       0.26666667       0.10000000 </v>
   <v>       0.04166667       0.26666667       0.10000000 </v>
   <v>       0.08333333       0.26666667       0.10000000 </v>
   <v>       0.12500000       0.26666667       0.10000000 </v>
   <v>       0.16666667       0.26666667       0.10000000 </v>
   <v>       0.20833333       0.26666667       0.10000000 </v>
   <v>       0.25000000       0.26666667       0.10000000 </v>
   <v>       0.29166667       0.26666667       0.10000000 </v>
   <v>       0.33333333       0.26666667       0.10000000 </v>
   <v>       0.37500000       0.26666667       0.10000000 </v>
   <v>       0.41666667       0.26666667       0.10000000 </v>
   <v>       0.45833333       0.26666667       0.10000000 </v>
   <v>       0.50000000       0.26666667       0.10000000 </v>
   <v>       0.00000000       0.33333333       0.10000000 </v>
   <v>       0.04166667       0.33333333       0.10000000 </v>
   <v>       0.08333333       0.33333333       0.10000000 </v>
   <v>       0.12500000       0.33333333       0.10000000 </v>
   <v>       0.16666667       0.33333333       0.10000000 </v>
   <v>       0.20833333       0.33333333       0.10000000 </v>
   <v>       0.25000000       0.33333333       0.10000000 </v>
   <v>       0.29166667       0.33333333       0.10000000 </v>
   <v>       0.33333333       0.33333333       0.10000000 </v>
   <v>       0.37500000       0.33333333       0.10000000 </v>
   <v>       0.41666667       0.33333333       0.10000000 </v>
   <v>       0.45833333       0.33333333       0.10000000 </v>
   <v>       0.50000000       0.33333333       0.10000000 </v>
   <v>       0.00000000       0.40000000       0.10000000 </v>
   <v>       0.04166667       0.40000000       0.10000000 </v>
   <v>       0.08333333       0.40000000       0.10000000 </v>
   <v>       0.12500000       0.40000000       0.10000000 </v>
   <v>       0.16666667       0.40000000       0.10000000 </v>
   <v>       0.20833333       0.40000000       0.10000000 </v>
   <v>       0.25000000       0.40000000       0.10000000 </v>
   <v>       0.29166667       0.40000000       0.10000000 </v>
   <v>       0.33333333       0.40000000       0.10000000 </v>
   <v>       0.37500000       0.40000000       0.10000000 </v>
   <v>       0.41666667       0.40000000       0.10000000 </v>
   <v>       0.45833333       0.40000000       0.10000000 </v>
   <v>       0.50000000       0.40000000       0.10000000 </v>
   <v>       0.00000000       0.46666667       0.10000000 </v>
   <v>       0.04166667       0.46666667       0.10000000 </v>
   <v>       0.08333333       0.46666667       0.10000000 </v>
   <v>       0.12500000       0.46666667       0.10000000 </v>
   <v>       0.16666667       0.46666667       0.10000000 </v>
   <v>       0.20833333       0.46666667       0.10000000 </v>
   <v>       0.25000000       0.46666667       0.10000000 </v>
   <v>       0.29166667       0.46666667       0.10000000 </v>
   <v>       0.33333333       0.46666667       0.10000000 </v>
   <v>       0.37500000       0.46666667       0.10000000 </v>
   <v>       0.41666667       0.46666667       0.10000000 </v>
   <v>       0.45833333       0.46666667       0.10000000 </v>
   <v>       0.50000000       0.46666667       0.10000000 </v>
   <v>       0.00000000      -0.46666667       0.10000000 </v>
   <v>       0.04166667      -0.46666667       0.10000000 </v>
   <v>       0.08333333      -0.46666667       0.10000000 </v>
   <v>       0.12500000      -0.46666667       0.10000000 </v>
   <v>       0.16666667      -0.46666667       0.10000000 </v>
   <v>       0.20833333      -0.46666667       0.10000000 </v>
   <v>       0.25000000      -0.46666667       0.10000000 </v>
   <v>       0.29166667      -0.46666667       0.10000000 </v>
   <v>       0.33333333      -0.46666667       0.10000000 </v>
   <v>       0.37500000      -0.46666667       0.10000000 </v>
   <v>       0.41666667      -0.46666667       0.10000000 </v>
   <v>       0.45833333      -0.46666667       0.10000000 </v>
   <v>       0.50000000      -0.46666667       0.10000000 </v>
   <v>       0.00000000      -0.40000000       0.10000000 </v>
   <v>       0.04166667      -0.40000000       0.10000000 </v>
   <v>       0.08333333      -0.40000000       0.10000000 </v>
   <v>       0.12500000      -0.40000000       0.10000000 </v>
   <v>       0.16666667      -0.40000000       0.10000000 </v>
   <v>       0.20833333      -0.40000000       0.10000000 </v>
   <v>       0.25000000      -0.40000000       0.10000000 </v>
   <v>       0.29166667      -0.40000000       0.10000000 </v>
   <v>       0.33333333      -0.40000000       0.10000000 </v>
   <v>       0.37500000      -0.40000000       0.10000000 </v>
   <v>       0.41666667      -0.40000000       0.10000000 </v>
   <v>       0.45833333      -0.40000000       0.10000000 </v>
   <v>       0.50000000      -0.40000000       0.10000000 </v>
   <v>       0.00000000      -0.33333333       0.10000000 </v>
   <v>       0.04166667      -0.33333333       0.10000000 </v>
   <v>       0.08333333      -0.33333333       0.10000000 </v>
   <v>       0.12500000      -0.33333333       0.10000000 </v>
   <v>       0.16666667      -0.33333333       0.10000000 </v>
   <v>       0.20833333      -0.33333333       0.10000000 </v>
   <v>       0.25000000      -0.33333333       0.10000000 </v>
   <v>       0.29166667      -0.33333333       0.10000000 </v>
   <v>       0.33333333      -0.33333333       0.10000000 </v>
   <v>       0.37500000      -0.33333333       0.10000000 </v>
   <v>       0.41666667      -0.33333333       0.10000000 </v>
   <v>       0.45833333      -0.33333333       0.10000000 </v>
   <v>       0.50000000      -0.33333333       0.10000000 </v>
   <v>       0.00000000      -0.26666667       0.10000000 </v>
   <v>       0.04166667      -0.26666667       0.10000000 </v>
   <v>       0.08333333      -0.26666667       0.10000000 </v>
   <v>       0.12500000      -0.26666667       0.10000000 </v>
   <v>       0.16666667      -0.26666667       0.10000000 </v>
   <v>       0.20833333      -0.26666667       0.10000000 </v>
   <v>       0.25000000      -0.26666667       0.10000000 </v>
   <v>       0.29166667      -0.26666667       0.10000000 </v>
   <v>       0.33333333      -0.26666667       0.10000000 </v>
   <v>       0.37500000      -0.26666667       0.10000000 </v>
   <v>       0.41666667      -0.26666667       0.10000000 </v>
   <v>       0.45833333      -0.26666667       0.10000000 </v>
   <v>       0.50000000      -0.26666667       0.10000000 </v>
   <v>       0.00000000      -0.20000000       0.10000000 </v>
   <v>       0.04166667      -0.20000000       0.10000000 </v>
   <v>       0.08333333      -0.20000000       0.10000000 </v>
   <v>       0.12500000      -0.20000000       0.10000000 </v>
   <v>       0.16666667      -0.20000000       0.10000000 </v>
   <v>       0.20833333      -0.20000000       0.10000000 </v>
   <v>       0.25000000      -0.20000000       0.10000000 </v>
   <v>       0.29166667      -0.20000000       0.10000000 </v>
   <v>       0.33333333      -0.20000000       0.10000000 </v>
   <v>       0.37500000      -0.20000000       0.10000000 </v>
   <v>       0.41666667      -0.20000000       0.10000000 </v>
   <v>       0.45833333      -0.20000000       0.10000000 </v>
   <v>       0.50000000      -0.20000000       0.10000000 </v>
   <v>       0.00000000      -0.13333333       0.10000000 </v>
   <v>       0.04166667      -0.13333333       0.10000000 </v>
   <v>       0.08333333      -0.13333333       0.10000000 </v>
   <v>       0.12500000      -0.13333333       0.10000000 </v>
   <v>       0.16666667      -0.13333333       0.10000000 </v>
   <v>       0.20833333      -0.13333333       0.10000000 </v>
   <v>       0.25000000      -0.13333333       0.10000000 </v>
   <v>       0.29166667      -0.13333333       0.10000000 </v>
   <v>       0.33333333      -0.13333333       0.10000000 </v>
   <v>       0.37500000      -0.13333333       0.10000000 </v>
   <v>       0.41666667      -0.13333333       0.10000000 </v>
   <v>       0.45833333      -0.13333333       0.10000000 </v>
   <v>       0.50000000      -0.13333333       0.10000000 </v>
   <v>       0.00000000      -0.06666667       0.10000000 </v>
   <v>       0.04166667      -0.06666667       0.10000000 </v>
   <v>       0.08333333      -0.06666667       0.10000000 </v>
   <v>       0.12500000      -0.06666667       0.10000000 </v>
   <v>       0.16666667      -0.06666667       0.10000000 </v>
   <v>       0.20833333      -0.06666667       0.10000000 </v>
   <v>       0.25000000      -0.06666667       0.10000000 </v>
   <v>       0.29166667      -0.06666667       0.10000000 </v>
   <v>       0.33333333      -0.06666667       0.10000000 </v>
   <v>       0.37500000      -0.06666667       0.10000000 </v>
   <v>       0.41666667      -0.06666667       0.10000000 </v>
   <v>       0.45833333      -0.06666667       0.10000000 </v>
   <v>       0.50000000      -0.06666667       0.10000000 </v>
   <v>       0.00000000       0.00000000       0.20000000 </v>
   <v>       0.04166667       0.00000000       0.20000000 </v>
   <v>       0.08333333       0.00000000       0.20000000 </v>
   <v>       0.12500000       0.00000000       0.20000000 </v>
   <v>       0.16666667       0.00000000       0.20000000 </v>
   <v>       0.20833333       0.00000000       0.20000000 </v>
   <v>       0.25000000       0.00000000       0.20000000 </v>
   <v>       0.29166667       0.00000000       0.20000000 </v>
   <v>       0.33333333       0.00000000       0.20000000 </v>
   <v>       0.37500000       0.00000000       0.20000000 </v>
   <v>       0.41666667       0.00000000       0.20000000 </v>
   <v>       0.45833333       0.00000000       0.20000000 </v>
   <v>       0.50000000       0.00000000       0.20000000 </v>
   <v>       0.00000000       0.06666667       0.20000000 </v>
   <v>       0.04166667       0.06666667       0.20000000 </v>
   <v>       0.08333333       0.06666667       0.20000000 </v>
   <v>       0.12500000       0.06666667       0.20000000 </v>
   <v>       0.16666667       0.06666667       0.20000000 </v>
   <v>       0.20833333       0.06666667       0.20000000 </v>
   <v>       0.25000000       0.06666667       0.20000000 </v>
   <v>       0.29166667       0.06666667       0.20000000 </v>
   <v>       0.33333333       0.06666667       0.20000000 </v>
   <v>       0.37500000       0.06666667       0.20000000 </v>
   <v>       0.41666667       0.06666667       0.20000000 </v>
   <v>       0.45833333       0.06666667       0.20000000 </v>
   <v>       0.50000000       0.06666667       0.20000000 </v>
   <v>       0.00000000       0.13333333       0.20000000 </v>
   <v>       0.04166667       0.13333333       0.20000000 </v>
   <v>       0.08333333       0.13333333       0.20000000 </v>
   <v>       0.12500000       0.13333333       0.20000000 </v>
   <v>       0.16666667       0.13333333       0.20000000 </v>
   <v>       0.20833333       0.13333333       0.20000000 </v>
   <v>       0.25000000       0.13333333       0.20000000 </v>
   <v>       0.29166667       0.13333333       0.20000000 </v>
   <v>       0.33333333       0.13333333       0.20000000 </v>
   <v>       0.37500000       0.13333333       0.20000000 </v>
   <v>       0.41666667       0.13333333       0.20000000 </v>
   <v>       0.45833333       0.13333333       0.20000000 </v>
   <v>       0.50000000       0.13333333       0.20000000 </v>
   <v>       0.00000000       0.20000000       0.20000000 </v>
   <v>       0.04166667       0.20000000       0.20000000 </v>
   <v>       0.08333333       0.20000000       0.20000000 </v>
   <v>       0.12500000       0.20000000       0.20000000 </v>
   <v>       0.16666667       0.20000000       0.20000000 </v>
   <v>       0.20833333       0.20000000       0.20000000 </v>
   <v>       0.25000000       0.20000000       0.20000000 </v>
   <v>       0.29166667       0.20000000       0.20000000 </v>
   <v>       0.33333333       0.20000000       0.20000000 </v>
   <v>       0.37500000       0.20000000       0.20000000 </v>
   <v>       0.41666667       0.20000000       0.20000000 </v>
   <v>       0.45833333       0.20000000       0.20000000 </v>
   <v>       0.50000000       0.20000000       0.20000000 </v>
   <v>       0.00000000       0.26666667       0.20000000 </v>
   <v>       0.04166667       0.26666667       0.20000000 </v>
   <v>       0.08333333       0.26666667       0.20000000 </v>
   <v>       0.12500000       0.26666667       0.20000000 </v>
   <v>       0.16666667       0.26666667       0.20000000 </v>
   <v>       0.20833333       0.26666667       0.20000000 </v>
   <v>       0.25000000       0.26666667       0.20000000 </v>
   <v>       0.29166667       0.26666667       0.20000000 </v>
   <v>       0.33333333       0.26666667       0.20000000 </v>
   <v>       0.37500000       0.26666667       0.20000000 </v>
   <v>       0.41666667       0.26666667       0.20000000 </v>
   <v>       0.45833333       0.26666667       0.20000000 </v>
   <v>       0.50000000       0.26666667       0.20000000 </v>
   <v>       0.00000000       0.33333333       0.20000000 </v>
   <v>       0.04166667       0.33333333       0.20000000 </v>
   <v>       0.08333333       0.33333333       0.20000000 </v>
   <v>       0.12500000       0.33333333       0.20000000 </v>
   <v>       0.16666667       0.33333333       0.20000000 </v>
   <v>       0.20833333       0.33333333       0.20000000 </v>
   <v>       0.25000000       0.33333333       0.20000000 </v>
   <v>       0.29166667       0.33333333       0.20000000 </v>
   <v>       0.33333333       0.33333333       0.20000000 </v>
   <v>       0.37500000       0.33333333       0.20000000 </v>
   <v>       0.41666667       0.33333333       0.20000000 </v>
   <v>       0.45833333       0.33333333       0.20000000 </v>
   <v>       0.50000000       0.33333333       0.20000000 </v>
   <v>       0.00000000       0.40000000       0.20000000 </v>
   <v>       0.04166667       0.40000000       0.20000000 </v>
   <v>       0.08333333       0.40000000       0.20000000 </v>
   <v>       0.12500000       0.40000000       0.20000000 </v>
   <v>       0.16666667       0.40000000       0.20000000 </v>
   <v>       0.20833333       0.40000000       0.20000000 </v>
   <v>       0.25000000       0.40000000       0.20000000 </v>
   <v>       0.29166667       0.40000000       0.20000000 </v>
   <v>       0.33333333       0.40000000       0.20000000 </v>
   <v>       0.37500000       0.40000000       0.20000000 </v>
   <v>       0.41666667       0.40000000       0.20000000 </v>
   <v>       0.45833333       0.40000000       0.20000000 </v>
   <v>       0.50000000       0.40000000       0.20000000 </v>
   <v>       0.00000000       0.46666667       0.20000000 </v>
   <v>       0.04166667       0.46666667       0.20000000 </v>
   <v>       0.08333333       0.46666667       0.20000000 </v>
   <v>       0.12500000       0.46666667       0.20000000 </v>
   <v>       0.16666667       0.46666667       0.20000000 </v>
   <v>       0.20833333       0.46666667       0.20000000 </v>
   <v>       0.25000000       0.46666667       0.20000000 </v>
   <v>       0.29166667       0.46666667       0.20000000 </v>
   <v>       0.33333333       0.46666667       0.20000000 </v>
   <v>       0.37500000       0.46666667       0.20000000 </v>
   <v>       0.41666667       0.46666667       0.20000000 </v>
   <v>       0.45833333       0.46666667       0.20000000 </v>
   <v>       0.50000000       0.46666667       0.20000000 </v>
   <v>       0.00000000      -0.46666667       0.20000000 </v>
   <v>       0.04166667      -0.46666667       0.20000000 </v>
   <v>       0.08333333      -0.46666667       0.20000000 </v>
   <v>       0.12500000      -0.46666667       0.20000000 </v>
   <v>       0.16666667      -0.46666667       0.20000000 </v>
   <v>       0.20833333      -0.46666667       0.20000000 </v>
   <v>       0.25000000      -0.46666667       0.20000000 </v>
   <v>       0.29166667      -0.46666667       0.20000000 </v>
   <v>       0.33333333      -0.46666667       0.20000000 </v>
   <v>       0.37500000      -0.46666667       0.20000000 </v>
   <v>       0.41666667      -0.46666667       0.20000000 </v>
   <v>       0.45833333      -0.46666667       0.20000000 </v>
   <v>       0.50000000      -0.46666667       0.20000000 </v>
   <v>       0.00000000      -0.40000000       0.20000000 </v>
   <v>       0.04166667      -0.40000000       0.20000000 </v>
   <v>       0.08333333      -0.40000000       0.20000000 </v>
   <v>       0.12500000      -0.40000000       0.20000000 </v>
   <v>       0.16666667      -0.40000000       0.20000000 </v>
   <v>       0.20833333      -0.40000000       0.20000000 </v>
   <v>       0.25000000      -0.40000000       0.20000000 </v>
   <v>       0.29166667      -0.40000000       0.20000000 </v>
   <v>       0.33333333      -0.40000000       0.20000000 </v>
   <v>       0.37500000      -0.40000000       0.20000000 </v>
   <v>       0.41666667      -0.40000000       0.20000000 </v>
   <v>       0.45833333      -0.40000000       0.20000000 </v>
   <v>       0.50000000      -0.40000000       0.20000000 </v>
   <v>       0.00000000      -0.33333333       0.20000000 </v>
   <v>       0.04166667      -0.33333333       0.20000000 </v>
   <v>       0.08333333      -0.33333333       0.20000000 </v>
   <v>       0.12500000      -0.33333333       0.20000000 </v>
   <v>       0.16666667      -0.33333333       0.20000000 </v>
   <v>       0.20833333      -0.33333333       0.20000000 </v>
   <v>       0.25000000      -0.33333333       0.20000000 </v>
   <v>       0.29166667      -0.33333333       0.20000000 </v>
   <v>       0.33333333      -0.33333333       0.20000000 </v>
   <v>       0.37500000      -0.33333333       0.20000000 </v>
   <v>       0.41666667      -0.33333333       0.20000000 </v>
   <v>       0.45833333      -0.33333333       0.20000000 </v>
   <v>       0.50000000      -0.33333333       0.20000000 </v>
   <v>       0.00000000      -0.26666667       0.20000000 </v>
   <v>       0.04166667      -0.26666667       0.20000000 </v>
   <v>       0.08333333      -0.26666667       0.20000000 </v>
   <v>       0.12500000      -0.26666667       0.20000000 </v>
   <v>       0.16666667      -0.26666667       0.20000000 </v>
   <v>       0.20833333      -0.26666667       0.20000000 </v>
   <v>       0.25000000      -0.26666667       0.20000000 </v>
   <v>       0.29166667      -0.26666667       0.20000000 </v>
   <v>       0.33333333      -0.26666667       0.20000000 </v>
   <v>       0.37500000      -0.26666667       0.20000000 </v>
   <v>       0.41666667      -0.26666667       0.20000000 </v>
   <v>       0.45833333      -0.26666667       0.20000000 </v>
   <v>       0.50000000      -0.26666667       0.20000000 </v>
   <v>       0.00000000      -0.20000000       0.20000000 </v>
   <v>       0.04166667      -0.20000000       0.20000000 </v>
   <v>       0.08333333      -0.20000000       0.20000000 </v>
   <v>       0.12500000      -0.20000000       0.20000000 </v>
   <v>       0.16666667      -0.20000000       0.20000000 </v>
   <v>       0.20833333      -0.20000000       0.20000000 </v>
   <v>       0.25000000      -0.20000000       0.20000000 </v>
   <v>       0.29166667      -0.20000000       0.20000000 </v>
   <v>       0.33333333      -0.20000000       0.20000000 </v>
   <v>       0.37500000      -0.20000000       0.20000000 </v>
   <v>       0.41666667      -0.20000000       0.20000000 </v>
   <v>       0.45833333      -0.20000000       0.20000000 </v>
   <v>       0.50000000      -0.20000000       0.20000000 </v>
   <v>       0.00000000      -0.13333333       0.20000000 </v>
   <v>       0.04166667      -0.13333333       0.20000000 </v>
   <v>       0.08333333      -0.13333333       0.20000000 </v>
   <v>       0.12500000      -0.13333333       0.20000000 </v>
   <v>       0.16666667      -0.13333333       0.20000000 </v>
   <v>       0.20833333      -0.13333333       0.20000000 </v>
   <v>       0.25000000      -0.13333333       0.20000000 </v>
   <v>       0.29166667      -0.13333333       0.20000000 </v>
   <v>       0.33333333      -0.13333333       0.20000000 </v>
   <v>       0.37500000      -0.13333333       0.20000000 </v>
   <v>       0.41666667      -0.13333333       0.20000000 </v>
   <v>       0.45833333      -0.13333333       0.20000000 </v>
   <v>       0.50000000      -0.13333333       0.20000000 </v>
   <v>       0.00000000      -0.06666667       0.20000000 </v>
   <v>       0.04166667      -0.06666667       0.20000000 </v>
   <v>       0.08333333      -0.06666667       0.20000000 </v>
   <v>       0.12500000      -0.06666667       0.20000000 </v>
   <v>       0.16666667      -0.06666667       0.20000000 </v>
   <v>       0.20833333      -0.06666667       0.20000000 </v>
   <v>       0.25000000      -0.06666667       0.20000000 </v>
   <v>       0.29166667      -0.06666667       0.20000000 </v>
   <v>       0.33333333      -0.06666667       0.20000000 </v>
   <v>       0.37500000      -0.06666667       0.20000000 </v>
   <v>       0.41666667      -0.06666667       0.20000000 </v>
   <v>       0.45833333      -0.06666667       0.20000000 </v>
   <v>       0.50000000      -0.06666667       0.20000000 </v>
   <v>       0.00000000       0.00000000       0.30000000 </v>
   <v>       0.04166667       0.00000000       0.30000000 </v>
   <v>       0.08333333       0.00000000       0.30000000 </v>
   <v>       0.12500000       0.00000000       0.30000000 </v>
   <v>       0.16666667       0.00000000       0.30000000 </v>
   <v>       0.20833333       0.00000000       0.30000000 </v>
   <v>       0.25000000       0.00000000       0.30000000 </v>
   <v>       0.29166667       0.00000000       0.30000000 </v>
   <v>       0.33333333       0.00000000       0.30000000 </v>
   <v>       0.37500000       0.00000000       0.30000000 </v>
   <v>       0.41666667       0.00000000       0.30000000 </v>
   <v>       0.45833333       0.00000000       0.30000000 </v>
   <v>       0.50000000       0.00000000       0.30000000 </v>
   <v>       0.00000000       0.06666667       0.30000000 </v>
   <v>       0.04166667       0.06666667       0.30000000 </v>
   <v>       0.08333333       0.06666667       0.30000000 </v>
   <v>       0.12500000       0.06666667       0.30000000 </v>
   <v>       0.16666667       0.06666667       0.30000000 </v>
   <v>       0.20833333       0.06666667       0.30000000 </v>
   <v>       0.25000000       0.06666667       0.30000000 </v>
   <v>       0.29166667       0.06666667       0.30000000 </v>
   <v>       0.33333333       0.06666667       0.30000000 </v>
   <v>       0.37500000       0.06666667       0.30000000 </v>
   <v>       0.41666667       0.06666667       0.30000000 </v>
   <v>       0.45833333       0.06666667       0.30000000 </v>
   <v>       0.50000000       0.06666667       0.30000000 </v>
   <v>       0.00000000       0.13333333       0.30000000 </v>
   <v>       0.04166667       0.13333333       0.30000000 </v>
   <v>       0.08333333       0.13333333       0.30000000 </v>
   <v>       0.12500000       0.13333333       0.30000000 </v>
   <v>       0.16666667       0.13333333       0.30000000 </v>
   <v>       0.20833333       0.13333333       0.30000000 </v>
   <v>       0.25000000       0.13333333       0.30000000 </v>
   <v>       0.29166667       0.13333333       0.30000000 </v>
   <v>       0.33333333       0.13333333       0.30000000 </v>
   <v>       0.37500000       0.13333333       0.30000000 </v>
   <v>       0.41666667       0.13333333       0.30000000 </v>
   <v>       0.45833333       0.13333333       0.30000000 </v>
   <v>       0.50000000       0.13333333       0.30000000 </v>
   <v>       0.00000000       0.20000000       0.30000000 </v>
   <v>       0.04166667       0.20000000       0.30000000 </v>
   <v>       0.08333333       0.20000000       0.30000000 </v>
   <v>       0.12500000       0.20000000       0.30000000 </v>
   <v>       0.16666667       0.20000000       0.30000000 </v>
   <v>       0.20833333       0.20000000       0.30000000 </v>
   <v>       0.25000000       0.20000000       0.30000000 </v>
   <v>       0.29166667       0.20000000       0.30000000 </v>
   <v>       0.33333333       0.20000000       0.30000000 </v>
   <v>       0.37500000       0.20000000       0.30000000 </v>
   <v>       0.41666667       0.20000000       0.30000000 </v>
   <v>       0.45833333       0.20000000       0.30000000 </v>
   <v>       0.50000000       0.20000000       0.30000000 </v>
   <v>       0.00000000       0.26666667       0.30000000 </v>
   <v>       0.04166667       0.26666667       0.30000000 </v>
   <v>       0.08333333       0.26666667       0.30000000 </v>
   <v>       0.12500000       0.26666667       0.30000000 </v>
   <v>       0.16666667       0.26666667       0.30000000 </v>
   <v>       0.20833333       0.26666667       0.30000000 </v>
   <v>       0.25000000       0.26666667       0.30000000 </v>
   <v>       0.29166667       0.26666667       0.30000000 </v>
   <v>       0.33333333       0.26666667       0.30000000 </v>
   <v>       0.37500000       0.26666667       0.30000000 </v>
   <v>       0.41666667       0.26666667       0.30000000 </v>
   <v>       0.45833333       0.26666667       0.30000000 </v>
   <v>       0.50000000       0.26666667       0.30000000 </v>
   <v>       0.00000000       0.33333333       0.30000000 </v>
   <v>       0.04166667       0.33333333       0.30000000 </v>
   <v>       0.08333333       0.33333333       0.30000000 </v>
   <v>       0.12500000       0.33333333       0.30000000 </v>
   <v>       0.16666667       0.33333333       0.30000000 </v>
   <v>       0.20833333       0.33333333       0.30000000 </v>
   <v>       0.25000000       0.33333333       0.30000000 </v>
   <v>       0.29166667       0.33333333       0.30000000 </v>
   <v>       0.33333333       0.33333333       0.30000000 </v>
   <v>       0.37500000       0.33333333       0.30000000 </v>
   <v>       0.41666667       0.33333333       0.30000000 </v>
   <v>       0.45833333       0.33333333       0.30000000 </v>
   <v>       0.50000000       0.33333333       0.30000000 </v>
   <v>       0.00000000       0.40000000       0.30000000 </v>
   <v>       0.04166667       0.40000000       0.30000000 </v>
   <v>       0.08333333       0.40000000       0.30000000 </v>
   <v>       0.12500000       0.40000000       0.30000000 </v>
   <v>       0.16666667       0.40000000       0.30000000 </v>
   <v>       0.20833333       0.40000000       0.30000000 </v>
   <v>       0.25000000       0.40000000       0.30000000 </v>
   <v>       0.29166667       0.40000000       0.30000000 </v>
   <v>       0.33333333       0.40000000       0.30000000 </v>
   <v>       0.37500000       0.40000000       0.30000000 </v>
   <v>       0.41666667       0.40000000       0.30000000 </v>
   <v>       0.45833333       0.40000000       0.30000000 </v>
   <v>       0.50000000       0.40000000       0.30000000 </v>
   <v>       0.00000000       0.46666667       0.30000000 </v>
   <v>       0.04166667       0.46666667       0.30000000 </v>
   <v>       0.08333333       0.46666667       0.30000000 </v>
   <v>       0.12500000       0.46666667       0.30000000 </v>
   <v>       0.16666667       0.46666667       0.30000000 </v>
   <v>       0.20833333       0.46666667       0.30000000 </v>
   <v>       0.25000000       0.46666667       0.30000000 </v>
   <v>       0.29166667       0.46666667       0.30000000 </v>
   <v>       0.33333333       0.46666667       0.30000000 </v>
   <v>       0.37500000       0.46666667       0.30000000 </v>
   <v>       0.41666667       0.46666667       0.30000000 </v>
   <v>       0.45833333       0.46666667       0.30000000 </v>
   <v>       0.50000000       0.46666667       0.30000000 </v>
   <v>       0.00000000      -0.46666667       0.30000000 </v>
   <v>       0.04166667      -0.46666667       0.30000000 </v>
   <v>       0.08333333      -0.46666667       0.30000000 </v>
   <v>       0.12500000      -0.46666667       0.30000000 </v>
   <v>       0.16666667      -0.46666667       0.30000000 </v>
   <v>       0.20833333      -0.46666667       0.30000000 </v>
   <v>       0.25000000      -0.46666667       0.30000000 </v>
   <v>       0.29166667      -0.46666667       0.30000000 </v>
   <v>       0.33333333      -0.46666667       0.30000000 </v>
   <v>       0.37500000      -0.46666667       0.30000000 </v>
   <v>       0.41666667      -0.46666667       0.30000000 </v>
   <v>       0.45833333      -0.46666667       0.30000000 </v>
   <v>       0.50000000      -0.46666667       0.30000000 </v>
   <v>       0.00000000      -0.40000000       0.30000000 </v>
   <v>       0.04166667      -0.40000000       0.30000000 </v>
   <v>       0.08333333      -0.40000000       0.30000000 </v>
   <v>       0.12500000      -0.40000000       0.30000000 </v>
   <v>       0.16666667      -0.40000000       0.30000000 </v>
   <v>       0.20833333      -0.40000000       0.30000000 </v>
   <v>       0.25000000      -0.40000000       0.30000000 </v>
   <v>       0.29166667      -0.40000000       0.30000000 </v>
   <v>       0.33333333      -0.40000000       0.30000000 </v>
   <v>       0.37500000      -0.40000000       0.30000000 </v>
   <v>       0.41666667      -0.40000000       0.30000000 </v>
   <v>       0.45833333      -0.40000000       0.30000000 </v>
   <v>       0.50000000      -0.40000000       0.30000000 </v>
   <v>       0.00000000      -0.33333333       0.30000000 </v>
   <v>       0.04166667      -0.33333333       0.30000000 </v>
   <v>       0.08333333      -0.33333333       0.30000000 </v>
   <v>       0.12500000      -0.33333333       0.30000000 </v>
   <v>       0.16666667      -0.33333333       0.30000000 </v>
   <v>       0.20833333      -0.33333333       0.30000000 </v>
   <v>       0.25000000      -0.33333333       0.30000000 </v>
   <v>       0.29166667      -0.33333333       0.30000000 </v>
   <v>       0.33333333      -0.33333333       0.30000000 </v>
   <v>       0.37500000      -0.33333333       0.30000000 </v>
   <v>       0.41666667      -0.33333333       0.30000000 </v>
   <v>       0.45833333      -0.33333333       0.30000000 </v>
   <v>       0.50000000      -0.33333333       0.30000000 </v>
   <v>       0.00000000      -0.26666667       0.30000000 </v>
   <v>       0.04166667      -0.26666667       0.30000000 </v>
   <v>       0.08333333      -0.26666667       0.30000000 </v>
   <v>       0.12500000      -0.26666667       0.30000000 </v>
   <v>       0.16666667      -0.26666667       0.30000000 </v>
   <v>       0.20833333      -0.26666667       0.30000000 </v>
   <v>       0.25000000      -0.26666667       0.30000000 </v>
   <v>       0.29166667      -0.26666667       0.30000000 </v>
   <v>       0.33333333      -0.26666667       0.30000000 </v>
   <v>       0.37500000      -0.26666667       0.30000000 </v>
   <v>       0.41666667      -0.26666667       0.30000000 </v>
   <v>       0.45833333      -0.26666667       0.30000000 </v>
   <v>       0.50000000      -0.26666667       0.30000000 </v>
   <v>       0.00000000      -0.20000000       0.30000000 </v>
   <v>       0.04166667      -0.20000000       0.30000000 </v>
   <v>       0.08333333      -0.20000000       0.30000000 </v>
   <v>       0.12500000      -0.20000000       0.30000000 </v>
   <v>       0.16666667      -0.20000000       0.30000000 </v>
   <v>       0.20833333      -0.20000000       0.30000000 </v>
   <v>       0.25000000      -0.20000000       0.30000000 </v>
   <v>       0.29166667      -0.20000000       0.30000000 </v>
   <v>       0.33333333      -0.20000000       0.30000000 </v>
   <v>       0.37500000      -0.20000000       0.30000000 </v>
   <v>       0.41666667      -0.20000000       0.30000000 </v>
   <v>       0.45833333      -0.20000000       0.30000000 </v>
   <v>       0.50000000      -0.20000000       0.30000000 </v>
   <v>       0.00000000      -0.13333333       0.30000000 </v>
   <v>       0.04166667      -0.13333333       0.30000000 </v>
   <v>       0.08333333      -0.13333333       0.30000000 </v>
   <v>       0.12500000      -0.13333333       0.30000000 </v>
   <v>       0.16666667      -0.13333333       0.30000000 </v>
   <v>       0.20833333      -0.13333333       0.30000000 </v>
   <v>       0.25000000      -0.13333333       0.30000000 </v>
   <v>       0.29166667      -0.13333333       0.30000000 </v>
   <v>       0.33333333      -0.13333333       0.30000000 </v>
   <v>       0.37500000      -0.13333333       0.30000000 </v>
   <v>       0.41666667      -0.13333333       0.30000000 </v>
   <v>       0.45833333      -0.13333333       0.30000000 </v>
   <v>       0.50000000      -0.13333333       0.30000000 </v>
   <v>       0.00000000      -0.06666667       0.30000000 </v>
   <v>       0.04166667      -0.06666667       0.30000000 </v>
   <v>       0.08333333      -0.06666667       0.30000000 </v>
   <v>       0.12500000      -0.06666667       0.30000000 </v>
   <v>       0.16666667      -0.06666667       0.30000000 </v>
   <v>       0.20833333      -0.06666667       0.30000000 </v>
   <v>       0.25000000      -0.06666667       0.30000000 </v>
   <v>       0.29166667      -0.06666667       0.30000000 </v>
   <v>       0.33333333      -0.06666667       0.30000000 </v>
   <v>       0.37500000      -0.06666667       0.30000000 </v>
   <v>       0.41666667      -0.06666667       0.30000000 </v>
   <v>       0.45833333      -0.06666667       0.30000000 </v>
   <v>       0.50000000      -0.06666667       0.30000000 </v>
   <v>       0.00000000       0.00000000       0.40000000 </v>
   <v>       0.04166667       0.00000000       0.40000000 </v>
   <v>       0.08333333       0.00000000       0.40000000 </v>
   <v>       0.12500000       0.00000000       0.40000000 </v>
   <v>       0.16666667       0.00000000       0.40000000 </v>
   <v>       0.20833333       0.00000000       0.40000000 </v>
   <v>       0.25000000       0.00000000       0.40000000 </v>
   <v>       0.29166667       0.00000000       0.40000000 </v>
   <v>       0.33333333       0.00000000       0.40000000 </v>
   <v>       0.37500000       0.00000000       0.40000000 </v>
   <v>       0.41666667       0.00000000       0.40000000 </v>
   <v>       0.45833333       0.00000000       0.40000000 </v>
   <v>       0.50000000       0.00000000       0.40000000 </v>
   <v>       0.00000000       0.06666667       0.40000000 </v>
   <v>       0.04166667       0.06666667       0.40000000 </v>
   <v>       0.08333333       0.06666667       0.40000000 </v>
   <v>       0.12500000       0.06666667       0.40000000 </v>
   <v>       0.16666667       0.06666667       0.40000000 </v>
   <v>       0.20833333       0.06666667       0.40000000 </v>
   <v>       0.25000000       0.06666667       0.40000000 </v>
   <v>       0.29166667       0.06666667       0.40000000 </v>
   <v>       0.33333333       0.06666667       0.40000000 </v>
   <v>       0.37500000       0.06666667       0.40000000 </v>
   <v>       0.41666667       0.06666667       0.40000000 </v>
   <v>       0.45833333       0.06666667       0.40000000 </v>
   <v>       0.50000000       0.06666667       0.40000000 </v>
   <v>       0.00000000       0.13333333       0.40000000 </v>
   <v>       0.04166667       0.13333333       0.40000000 </v>
   <v>       0.08333333       0.13333333       0.40000000 </v>
   <v>       0.12500000       0.13333333       0.40000000 </v>
   <v>       0.16666667       0.13333333       0.40000000 </v>
   <v>       0.20833333       0.13333333       0.40000000 </v>
   <v>       0.25000000       0.13333333       0.40000000 </v>
   <v>       0.29166667       0.13333333       0.40000000 </v>
   <v>       0.33333333       0.13333333       0.40000000 </v>
   <v>       0.37500000       0.13333333       0.40000000 </v>
   <v>       0.41666667       0.13333333       0.40000000 </v>
   <v>       0.45833333       0.13333333       0.40000000 </v>
   <v>       0.50000000       0.13333333       0.40000000 </v>
   <v>       0.00000000       0.20000000       0.40000000 </v>
   <v>       0.04166667       0.20000000       0.40000000 </v>
   <v>       0.08333333       0.20000000       0.40000000 </v>
   <v>       0.12500000       0.20000000       0.40000000 </v>
   <v>       0.16666667       0.20000000       0.40000000 </v>
   <v>       0.20833333       0.20000000       0.40000000 </v>
   <v>       0.25000000       0.20000000       0.40000000 </v>
   <v>       0.29166667       0.20000000       0.40000000 </v>
   <v>       0.33333333       0.20000000       0.40000000 </v>
   <v>       0.37500000       0.20000000       0.40000000 </v>
   <v>       0.41666667       0.20000000       0.40000000 </v>
   <v>       0.45833333       0.20000000       0.40000000 </v>
   <v>       0.50000000       0.20000000       0.40000000 </v>
   <v>       0.00000000       0.26666667       0.40000000 </v>
   <v>       0.04166667       0.26666667       0.40000000 </v>
   <v>       0.08333333       0.26666667       0.40000000 </v>
   <v>       0.12500000       0.26666667       0.40000000 </v>
   <v>       0.16666667       0.26666667       0.40000000 </v>
   <v>       0.20833333       0.26666667       0.40000000 </v>
   <v>       0.25000000       0.26666667       0.40000000 </v>
   <v>       0.29166667       0.26666667       0.40000000 </v>
   <v>       0.33333333       0.26666667       0.40000000 </v>
   <v>       0.37500000       0.26666667       0.40000000 </v>
   <v>       0.41666667       0.26666667       0.40000000 </v>
   <v>       0.45833333       0.26666667       0.40000000 </v>
   <v>       0.50000000       0.26666667       0.40000000 </v>
   <v>       0.00000000       0.33333333       0.40000000 </v>
   <v>       0.04166667       0.33333333       0.40000000 </v>
   <v>       0.08333333       0.33333333       0.40000000 </v>
   <v>       0.12500000       0.33333333       0.40000000 </v>
   <v>       0.16666667       0.33333333       0.40000000 </v>
   <v>       0.20833333       0.33333333       0.40000000 </v>
   <v>       0.25000000       0.33333333       0.40000000 </v>
   <v>       0.29166667       0.33333333       0.40000000 </v>
   <v>       0.33333333       0.33333333       0.40000000 </v>
   <v>       0.37500000       0.33333333       0.40000000 </v>
   <v>       0.41666667       0.33333333       0.40000000 </v>
   <v>       0.45833333       0.33333333       0.40000000 </v>
   <v>       0.50000000       0.33333333       0.40000000 </v>
   <v>       0.00000000       0.40000000       0.40000000 </v>
   <v>       0.04166667       0.40000000       0.40000000 </v>
   <v>       0.08333333       0.40000000       0.40000000 </v>
   <v>       0.12500000       0.40000000       0.40000000 </v>
   <v>       0.16666667       0.40000000       0.40000000 </v>
   <v>       0.20833333       0.40000000       0.40000000 </v>
   <v>       0.25000000       0.40000000       0.40000000 </v>
   <v>       0.29166667       0.40000000       0.40000000 </v>
   <v>       0.33333333       0.40000000       0.40000000 </v>
   <v>       0.37500000       0.40000000       0.40000000 </v>
   <v>       0.41666667       0.40000000       0.40000000 </v>
   <v>       0.45833333       0.40000000       0.40000000 </v>
   <v>       0.50000000       0.40000000       0.40000000 </v>
   <v>       0.00000000       0.46666667       0.40000000 </v>
   <v>       0.04166667       0.46666667       0.40000000 </v>
   <v>       0.08333333       0.46666667       0.40000000 </v>
   <v>       0.12500000       0.46666667       0.40000000 </v>
   <v>       0.16666667       0.46666667       0.40000000 </v>
   <v>       0.20833333       0.46666667       0.40000000 </v>
   <v>       0.25000000       0.46666667       0.40000000 </v>
   <v>       0.29166667       0.46666667       0.40000000 </v>
   <v>       0.33333333       0.46666667       0.40000000 </v>
   <v>       0.37500000       0.46666667       0.40000000 </v>
   <v>       0.41666667       0.46666667       0.40000000 </v>
   <v>       0.45833333       0.46666667       0.40000000 </v>
   <v>       0.50000000       0.46666667       0.40000000 </v>
   <v>       0.00000000      -0.46666667       0.40000000 </v>
   <v>       0.04166667      -0.46666667       0.40000000 </v>
   <v>       0.08333333      -0.46666667       0.40000000 </v>
   <v>       0.12500000      -0.46666667       0.40000000 </v>
   <v>       0.16666667      -0.46666667       0.40000000 </v>
   <v>       0.20833333      -0.46666667       0.40000000 </v>
   <v>       0.25000000      -0.46666667       0.40000000 </v>
   <v>       0.29166667      -0.46666667       0.40000000 </v>
   <v>       0.33333333      -0.46666667       0.40000000 </v>
   <v>       0.37500000      -0.46666667       0.40000000 </v>
   <v>       0.41666667      -0.46666667       0.40000000 </v>
   <v>       0.45833333      -0.46666667       0.40000000 </v>
   <v>       0.50000000      -0.46666667       0.40000000 </v>
   <v>       0.00000000      -0.40000000       0.40000000 </v>
   <v>       0.04166667      -0.40000000       0.40000000 </v>
   <v>       0.08333333      -0.40000000       0.40000000 </v>
   <v>       0.12500000      -0.40000000       0.40000000 </v>
   <v>       0.16666667      -0.40000000       0.40000000 </v>
   <v>       0.20833333      -0.40000000       0.40000000 </v>
   <v>       0.25000000      -0.40000000       0.40000000 </v>
   <v>       0.29166667      -0.40000000       0.40000000 </v>
   <v>       0.33333333      -0.40000000       0.40000000 </v>
   <v>       0.37500000      -0.40000000       0.40000000 </v>
   <v>       0.41666667      -0.40000000       0.40000000 </v>
   <v>       0.45833333      -0.40000000       0.40000000 </v>
   <v>       0.50000000      -0.40000000       0.40000000 </v>
   <v>       0.00000000      -0.33333333       0.40000000 </v>
   <v>       0.04166667      -0.33333333       0.40000000 </v>
   <v>       0.08333333      -0.33333333       0.40000000 </v>
   <v>       0.12500000      -0.33333333       0.40000000 </v>
   <v>       0.16666667      -0.33333333       0.40000000 </v>
   <v>       0.20833333      -0.33333333       0.40000000 </v>
   <v>       0.25000000      -0.33333333       0.40000000 </v>
   <v>       0.29166667      -0.33333333       0.40000000 </v>
   <v>       0.33333333      -0.33333333       0.40000000 </v>
   <v>       0.37500000      -0.33333333       0.40000000 </v>
   <v>       0.41666667      -0.33333333       0.40000000 </v>
   <v>       0.45833333      -0.33333333       0.40000000 </v>
   <v>       0.50000000      -0.33333333       0.40000000 </v>
   <v>       0.00000000      -0.26666667       0.40000000 </v>
   <v>       0.04166667      -0.26666667       0.40000000 </v>
   <v>       0.08333333      -0.26666667       0.40000000 </v>
   <v>       0.12500000      -0.26666667       0.40000000 </v>
   <v>       0.16666667      -0.26666667       0.40000000 </v>
   <v>       0.20833333      -0.26666667       0.40000000 </v>
   <v>       0.25000000      -0.26666667       0.40000000 </v>
   <v>       0.29166667      -0.26666667       0.40000000 </v>
   <v>       0.33333333      -0.26666667       0.40000000 </v>
   <v>       0.37500000      -0.26666667       0.40000000 </v>
   <v>       0.41666667      -0.26666667       0.40000000 </v>
   <v>       0.45833333      -0.26666667       0.40000000 </v>
   <v>       0.50000000      -0.26666667       0.40000000 </v>
   <v>       0.00000000      -0.20000000       0.40000000 </v>
   <v>       0.04166667      -0.20000000       0.40000000 </v>
   <v>       0.08333333      -0.20000000       0.40000000 </v>
   <v>       0.12500000      -0.20000000       0.40000000 </v>
   <v>       0.16666667      -0.20000000       0.40000000 </v>
   <v>       0.20833333      -0.20000000       0.40000000 </v>
   <v>       0.25000000      -0.20000000       0.40000000 </v>
   <v>       0.29166667      -0.20000000       0.40000000 </v>
   <v>       0.33333333      -0.20000000       0.40000000 </v>
   <v>       0.37500000      -0.20000000       0.40000000 </v>
   <v>       0.41666667      -0.20000000       0.40000000 </v>
   <v>       0.45833333      -0.20000000       0.40000000 </v>
   <v>       0.50000000      -0.20000000       0.40000000 </v>
   <v>       0.00000000      -0.13333333       0.40000000 </v>
   <v>       0.04166667      -0.13333333       0.40000000 </v>
   <v>       0.08333333      -0.13333333       0.40000000 </v>
   <v>       0.12500000      -0.13333333       0.40000000 </v>
   <v>       0.16666667      -0.13333333       0.40000000 </v>
   <v>       0.20833333      -0.13333333       0.40000000 </v>
   <v>       0.25000000      -0.13333333       0.40000000 </v>
   <v>       0.29166667      -0.13333333       0.40000000 </v>
   <v>       0.33333333      -0.13333333       0.40000000 </v>
   <v>       0.37500000      -0.13333333       0.40000000 </v>
   <v>       0.41666667      -0.13333333       0.40000000 </v>
   <v>       0.45833333      -0.13333333       0.40000000 </v>
   <v>       0.50000000      -0.13333333       0.40000000 </v>
   <v>       0.00000000      -0.06666667       0.40000000 </v>
   <v>       0.04166667      -0.06666667       0.40000000 </v>
   <v>       0.08333333      -0.06666667       0.40000000 </v>
   <v>       0.12500000      -0.06666667       0.40000000 </v>
   <v>       0.16666667      -0.06666667       0.40000000 </v>
   <v>       0.20833333      -0.06666667       0.40000000 </v>
   <v>       0.25000000      -0.06666667       0.40000000 </v>
   <v>       0.29166667      -0.06666667       0.40000000 </v>
   <v>       0.33333333      -0.06666667       0.40000000 </v>
   <v>       0.37500000      -0.06666667       0.40000000 </v>
   <v>       0.41666667      -0.06666667       0.40000000 </v>
   <v>       0.45833333      -0.06666667       0.40000000 </v>
   <v>       0.50000000      -0.06666667       0.40000000 </v>
   <v>       0.00000000       0.00000000       0.50000000 </v>
   <v>       0.04166667       0.00000000       0.50000000 </v>
   <v>       0.08333333       0.00000000       0.50000000 </v>
   <v>       0.12500000       0.00000000       0.50000000 </v>
   <v>       0.16666667       0.00000000       0.50000000 </v>
   <v>       0.20833333       0.00000000       0.50000000 </v>
   <v>       0.25000000       0.00000000       0.50000000 </v>
   <v>       0.29166667       0.00000000       0.50000000 </v>
   <v>       0.33333333       0.00000000       0.50000000 </v>
   <v>       0.37500000       0.00000000       0.50000000 </v>
   <v>       0.41666667       0.00000000       0.50000000 </v>
   <v>       0.45833333       0.00000000       0.50000000 </v>
   <v>       0.50000000       0.00000000       0.50000000 </v>
   <v>       0.00000000       0.06666667       0.50000000 </v>
   <v>       0.04166667       0.06666667       0.50000000 </v>
   <v>       0.08333333       0.06666667       0.50000000 </v>
   <v>       0.12500000       0.06666667       0.50000000 </v>
   <v>       0.16666667       0.06666667       0.50000000 </v>
   <v>       0.20833333       0.06666667       0.50000000 </v>
   <v>       0.25000000       0.06666667       0.50000000 </v>
   <v>       0.29166667       0.06666667       0.50000000 </v>
   <v>       0.33333333       0.06666667       0.50000000 </v>
   <v>       0.37500000       0.06666667       0.50000000 </v>
   <v>       0.41666667       0.06666667       0.50000000 </v>
   <v>       0.45833333       0.06666667       0.50000000 </v>
   <v>       0.50000000       0.06666667       0.50000000 </v>
   <v>       0.00000000       0.13333333       0.50000000 </v>
   <v>       0.04166667       0.13333333       0.50000000 </v>
   <v>       0.08333333       0.13333333       0.50000000 </v>
   <v>       0.12500000       0.13333333       0.50000000 </v>
   <v>       0.16666667       0.13333333       0.50000000 </v>
   <v>       0.20833333       0.13333333       0.50000000 </v>
   <v>       0.25000000       0.13333333       0.50000000 </v>
   <v>       0.29166667       0.13333333       0.50000000 </v>
   <v>       0.33333333       0.13333333       0.50000000 </v>
   <v>       0.37500000       0.13333333       0.50000000 </v>
   <v>       0.41666667       0.13333333       0.50000000 </v>
   <v>       0.45833333       0.13333333       0.50000000 </v>
   <v>       0.50000000       0.13333333       0.50000000 </v>
   <v>       0.00000000       0.20000000       0.50000000 </v>
   <v>       0.04166667       0.20000000       0.50000000 </v>
   <v>       0.08333333       0.20000000       0.50000000 </v>
   <v>       0.12500000       0.20000000       0.50000000 </v>
   <v>       0.16666667       0.20000000       0.50000000 </v>
   <v>       0.20833333       0.20000000       0.50000000 </v>
   <v>       0.25000000       0.20000000       0.50000000 </v>
   <v>       0.29166667       0.20000000       0.50000000 </v>
   <v>       0.33333333       0.20000000       0.50000000 </v>
   <v>       0.37500000       0.20000000       0.50000000 </v>
   <v>       0.41666667       0.20000000       0.50000000 </v>
   <v>       0.45833333       0.20000000       0.50000000 </v>
   <v>       0.50000000       0.20000000       0.50000000 </v>
   <v>       0.00000000       0.26666667       0.50000000 </v>
   <v>       0.04166667       0.26666667       0.50000000 </v>
   <v>       0.08333333       0.26666667       0.50000000 </v>
   <v>       0.12500000       0.26666667       0.50000000 </v>
   <v>       0.16666667       0.26666667       0.50000000 </v>
   <v>       0.20833333       0.26666667       0.50000000 </v>
   <v>       0.25000000       0.26666667       0.50000000 </v>
   <v>       0.29166667       0.26666667       0.50000000 </v>
   <v>       0.33333333       0.26666667       0.50000000 </v>
   <v>       0.37500000       0.26666667       0.50000000 </v>
   <v>       0.41666667       0.26666667       0.50000000 </v>
   <v>       0.45833333       0.26666667       0.50000000 </v>
   <v>       0.50000000       0.26666667       0.50000000 </v>
   <v>       0.00000000       0.33333333       0.50000000 </v>
   <v>       0.04166667       0.33333333       0.50000000 </v>
   <v>       0.08333333       0.33333333       0.50000000 </v>
   <v>       0.12500000       0.33333333       0.50000000 </v>
   <v>       0.16666667       0.33333333       0.50000000 </v>
   <v>       0.20833333       0.33333333       0.50000000 </v>
   <v>       0.25000000       0.33333333       0.50000000 </v>
   <v>       0.29166667       0.33333333       0.50000000 </v>
   <v>       0.33333333       0.33333333       0.50000000 </v>
   <v>       0.37500000       0.33333333       0.50000000 </v>
   <v>       0.41666667       0.33333333       0.50000000 </v>
   <v>       0.45833333       0.33333333       0.50000000 </v>
   <v>       0.50000000       0.33333333       0.50000000 </v>
   <v>       0.00000000       0.40000000       0.50000000 </v>
   <v>       0.04166667       0.40000000       0.50000000 </v>
   <v>       0.08333333       0.40000000       0.50000000 </v>
   <v>       0.12500000       0.40000000       0.50000000 </v>
   <v>       0.16666667       0.40000000       0.50000000 </v>
   <v>       0.20833333       0.40000000       0.50000000 </v>
   <v>       0.25000000       0.40000000       0.50000000 </v>
   <v>       0.29166667       0.40000000       0.50000000 </v>
   <v>       0.33333333       0.40000000       0.50000000 </v>
   <v>       0.37500000       0.40000000       0.50000000 </v>
   <v>       0.41666667       0.40000000       0.50000000 </v>
   <v>       0.45833333       0.40000000       0.50000000 </v>
   <v>       0.50000000       0.40000000       0.50000000 </v>
   <v>       0.00000000       0.46666667       0.50000000 </v>
   <v>       0.04166667       0.46666667       0.50000000 </v>
   <v>       0.08333333       0.46666667       0.50000000 </v>
   <v>       0.12500000       0.46666667       0.50000000 </v>
   <v>       0.16666667       0.46666667       0.50000000 </v>
   <v>       0.20833333       0.46666667       0.50000000 </v>
   <v>       0.25000000       0.46666667       0.50000000 </v>
   <v>       0.29166667       0.46666667       0.50000000 </v>
   <v>       0.33333333       0.46666667       0.50000000 </v>
   <v>       0.37500000       0.46666667       0.50000000 </v>
   <v>       0.41666667       0.46666667       0.50000000 </v>
   <v>       0.45833333       0.46666667       0.50000000 </v>
   <v>       0.50000000       0.46666667       0.50000000 </v>
  </varray>
  <varray name="weights" >
   <v>       0.00027778 </v>
   <v>       0.00055556 </v>
   <v>       0.00055556 </v>
   <v>       0.00055556 </v>
   <v>       0.00055556 </v>
   <v>       0.00055556 </v>
   <v>       0.00055556 </v>
   <v>       0.00055556 </v>
   <v>       0.00055556 </v>
   <v>       0.00055556 </v>
   <v>       0.00055556 </v>
   <v>       0.00055556 </v>
   <v>       0.00027778 </v>
   <v>       0.00055556 </v>
   <v>       0.00111111 </v>
   <v>       0.00111111 </v>
   <v>       0.00111111 </v>
   <v>       0.00111111 </v>
   <v>       0.00111111 </v>
   <v>       0.00111111 </v>
   <v>       0.00111111 </v>
   <v>       0.00111111 </v>
   <v>       0.00111111 </v>
   <v>       0.00111111 </v>
   <v>       0.00111111 </v>
   <v>       0.00055556 </v>
   <v>       0.00055556 </v>
   <v>       0.00111111 </v>
   <v>       0.00111111 </v>
   <v>       0.00111111 </v>
   <v>       0.00111111 </v>
   <v>       0.00111111 </v>
   <v>       0.00111111 </v>
   <v>       0.00111111 </v>
   <v>       0.00111111 </v>
   <v>       0.00111111 </v>
   <v>       0.00111111 </v>
   <v>       0.00111111 </v>
   <v>       0.00055556 </v>
   <v>       0.00055556 </v>
   <v>       0.00111111 </v>
   <v>       0.00111111 </v>
   <v>       0.00111111 </v>
   <v>       0.00111111 </v>
   <v>       0.00111111 </v>
   <v>       0.00111111 </v>
   <v>       0.00111111 </v>
   <v>       0.00111111 </v>
   <v>       0.00111111 </v>
   <v>       0.00111111 </v>
   <v>       0.00111111 </v>
   <v>       0.00055556 </v>
   <v>       0.00055556 </v>
   <v>       0.00111111 </v>
   <v>       0.00111111 </v>
   <v>       0.00111111 </v>
   <v>       0.00111111 </v>
   <v>       0.00111111 </v>
   <v>       0.00111111 </v>
   <v>       0.00111111 </v>
   <v>       0.00111111 </v>
   <v>       0.00111111 </v>
   <v>       0.00111111 </v>
   <v>       0.00111111 </v>
   <v>       0.00055556 </v>
   <v>       0.00055556 </v>
   <v>       0.00111111 </v>
   <v>       0.00111111 </v>
   <v>       0.00111111 </v>
   <v>       0.00111111 </v>
   <v>       0.00111111 </v>
   <v>       0.00111111 </v>
   <v>       0.00111111 </v>
   <v>       0.00111111 </v>
   <v>       0.00111111 </v>
   <v>       0.00111111 </v>
   <v>       0.00111111 </v>
   <v>       0.00055556 </v>
   <v>       0.00055556 </v>
   <v>       0.00111111 </v>
   <v>       0.00111111 </v>
   <v>       0.00111111 </v>
   <v>       0.00111111 </v>
   <v>       0.00111111 </v>
   <v>       0.00111111 </v>
   <v>       0.00111111 </v>
   <v>       0.00111111 </v>
   <v>       0.00111111 </v>
   <v>       0.00111111 </v>
   <v>       0.00111111 </v>
   <v>       0.00055556 </v>
   <v>       0.00055556 </v>
   <v>       0.00111111 </v>
   <v>       0.00111111 </v>
   <v>       0.00111111 </v>
   <v>       0.00111111 </v>
   <v>       0.00111111 </v>
   <v>       0.00111111 </v>
   <v>       0.00111111 </v>
   <v>       0.00111111 </v>
   <v>       0.00111111 </v>
   <v>       0.00111111 </v>
   <v>       0.00111111 </v>
   <v>       0.00055556 </v>
   <v>       0.00055556 </v>
   <v>       0.00111111 </v>
   <v>       0.00111111 </v>
   <v>       0.00111111 </v>
   <v>       0.00111111 </v>
   <v>       0.00111111 </v>
   <v>       0.00111111 </v>
   <v>       0.00111111 </v>
   <v>       0.00111111 </v>
   <v>       0.00111111 </v>
   <v>       0.00111111 </v>
   <v>       0.00111111 </v>
   <v>       0.00055556 </v>
   <v>       0.00055556 </v>
   <v>       0.00111111 </v>
   <v>       0.00111111 </v>
   <v>       0.00111111 </v>
   <v>       0.00111111 </v>
   <v>       0.00111111 </v>
   <v>       0.00111111 </v>
   <v>       0.00111111 </v>
   <v>       0.00111111 </v>
   <v>       0.00111111 </v>
   <v>       0.00111111 </v>
   <v>       0.00111111 </v>
   <v>       0.00055556 </v>
   <v>       0.00055556 </v>
   <v>       0.00111111 </v>
   <v>       0.00111111 </v>
   <v>       0.00111111 </v>
   <v>       0.00111111 </v>
   <v>       0.00111111 </v>
   <v>       0.00111111 </v>
   <v>       0.00111111 </v>
   <v>       0.00111111 </v>
   <v>       0.00111111 </v>
   <v>       0.00111111 </v>
   <v>       0.00111111 </v>
   <v>       0.00055556 </v>
   <v>       0.00055556 </v>
   <v>       0.00111111 </v>
   <v>       0.00111111 </v>
   <v>       0.00111111 </v>
   <v>       0.00111111 </v>
   <v>       0.00111111 </v>
   <v>       0.00111111 </v>
   <v>       0.00111111 </v>
   <v>       0.00111111 </v>
   <v>       0.00111111 </v>
   <v>       0.00111111 </v>
   <v>       0.00111111 </v>
   <v>       0.00055556 </v>
   <v>       0.00055556 </v>
   <v>       0.00111111 </v>
   <v>       0.00111111 </v>
   <v>       0.00111111 </v>
   <v>       0.00111111 </v>
   <v>       0.00111111 </v>
   <v>       0.00111111 </v>
   <v>       0.00111111 </v>
   <v>       0.00111111 </v>
   <v>       0.00111111 </v>
   <v>       0.00111111 </v>
   <v>       0.00111111 </v>
   <v>       0.00055556 </v>
   <v>       0.00055556 </v>
   <v>       0.00111111 </v>
   <v>       0.00111111 </v>
   <v>       0.00111111 </v>
   <v>       0.00111111 </v>
   <v>       0.00111111 </v>
   <v>       0.00111111 </v>
   <v>       0.00111111 </v>
   <v>       0.00111111 </v>
   <v>       0.00111111 </v>
   <v>       0.00111111 </v>
   <v>       0.00111111 </v>
   <v>       0.00055556 </v>
   <v>       0.00055556 </v>
   <v>       0.00111111 </v>
   <v>       0.00111111 </v>
   <v>       0.00111111 </v>
   <v>       0.00111111 </v>
   <v>       0.00111111 </v>
   <v>       0.00111111 </v>
   <v>       0.00111111 </v>
   <v>       0.00111111 </v>
   <v>       0.00111111 </v>
   <v>       0.00111111 </v>
   <v>       0.00111111 </v>
   <v>       0.00055556 </v>
   <v>       0.00055556 </v>
   <v>       0.00111111 </v>
   <v>       0.00111111 </v>
   <v>       0.00111111 </v>
   <v>       0.00111111 </v>
   <v>       0.00111111 </v>
   <v>       0.00111111 </v>
   <v>       0.00111111 </v>
   <v>       0.00111111 </v>
   <v>       0.00111111 </v>
   <v>       0.00111111 </v>
   <v>       0.00111111 </v>
   <v>       0.00055556 </v>
   <v>       0.00055556 </v>
   <v>       0.00111111 </v>
   <v>       0.00111111 </v>
   <v>       0.00111111 </v>
   <v>       0.00111111 </v>
   <v>       0.00111111 </v>
   <v>       0.00111111 </v>
   <v>       0.00111111 </v>
   <v>       0.00111111 </v>
   <v>       0.00111111 </v>
   <v>       0.00111111 </v>
   <v>       0.00111111 </v>
   <v>       0.00055556 </v>
   <v>       0.00055556 </v>
   <v>       0.00111111 </v>
   <v>       0.00111111 </v>
   <v>       0.00111111 </v>
   <v>       0.00111111 </v>
   <v>       0.00111111 </v>
   <v>       0.00111111 </v>
   <v>       0.00111111 </v>
   <v>       0.00111111 </v>
   <v>       0.00111111 </v>
   <v>       0.00111111 </v>
   <v>       0.00111111 </v>
   <v>       0.00055556 </v>
   <v>       0.00055556 </v>
   <v>       0.00111111 </v>
   <v>       0.00111111 </v>
   <v>       0.00111111 </v>
   <v>       0.00111111 </v>
   <v>       0.00111111 </v>
   <v>       0.00111111 </v>
   <v>       0.00111111 </v>
   <v>       0.00111111 </v>
   <v>       0.00111111 </v>
   <v>       0.00111111 </v>
   <v>       0.00111111 </v>
   <v>       0.00055556 </v>
   <v>       0.00055556 </v>
   <v>       0.00111111 </v>
   <v>       0.00111111 </v>
   <v>       0.00111111 </v>
   <v>       0.00111111 </v>
   <v>       0.00111111 </v>
   <v>       0.00111111 </v>
   <v>       0.00111111 </v>
   <v>       0.00111111 </v>
   <v>       0.00111111 </v>
   <v>       0.00111111 </v>
   <v>       0.00111111 </v>
   <v>       0.00055556 </v>
   <v>       0.00055556 </v>
   <v>       0.00111111 </v>
   <v>       0.00111111 </v>
   <v>       0.00111111 </v>
   <v>       0.00111111 </v>
   <v>       0.00111111 </v>
   <v>       0.00111111 </v>
   <v>       0.00111111 </v>
   <v>       0.00111111 </v>
   <v>       0.00111111 </v>
   <v>       0.00111111 </v>
   <v>       0.00111111 </v>
   <v>       0.00055556 </v>
   <v>       0.00055556 </v>
   <v>       0.00111111 </v>
   <v>       0.00111111 </v>
   <v>       0.00111111 </v>
   <v>       0.00111111 </v>
   <v>       0.00111111 </v>
   <v>       0.00111111 </v>
   <v>       0.00111111 </v>
   <v>       0.00111111 </v>
   <v>       0.00111111 </v>
   <v>       0.00111111 </v>
   <v>       0.00111111 </v>
   <v>       0.00055556 </v>
   <v>       0.00055556 </v>
   <v>       0.00111111 </v>
   <v>       0.00111111 </v>
   <v>       0.00111111 </v>
   <v>       0.00111111 </v>
   <v>       0.00111111 </v>
   <v>       0.00111111 </v>
   <v>       0.00111111 </v>
   <v>       0.00111111 </v>
   <v>       0.00111111 </v>
   <v>       0.00111111 </v>
   <v>       0.00111111 </v>
   <v>       0.00055556 </v>
   <v>       0.00055556 </v>
   <v>       0.00111111 </v>
   <v>       0.00111111 </v>
   <v>       0.00111111 </v>
   <v>       0.00111111 </v>
   <v>       0.00111111 </v>
   <v>       0.00111111 </v>
   <v>       0.00111111 </v>
   <v>       0.00111111 </v>
   <v>       0.00111111 </v>
   <v>       0.00111111 </v>
   <v>       0.00111111 </v>
   <v>       0.00055556 </v>
   <v>       0.00055556 </v>
   <v>       0.00111111 </v>
   <v>       0.00111111 </v>
   <v>       0.00111111 </v>
   <v>       0.00111111 </v>
   <v>       0.00111111 </v>
   <v>       0.00111111 </v>
   <v>       0.00111111 </v>
   <v>       0.00111111 </v>
   <v>       0.00111111 </v>
   <v>       0.00111111 </v>
   <v>       0.00111111 </v>
   <v>       0.00055556 </v>
   <v>       0.00055556 </v>
   <v>       0.00111111 </v>
   <v>       0.00111111 </v>
   <v>       0.00111111 </v>
   <v>       0.00111111 </v>
   <v>       0.00111111 </v>
   <v>       0.00111111 </v>
   <v>       0.00111111 </v>
   <v>       0.00111111 </v>
   <v>       0.00111111 </v>
   <v>       0.00111111 </v>
   <v>       0.00111111 </v>
   <v>       0.00055556 </v>
   <v>       0.00055556 </v>
   <v>       0.00111111 </v>
   <v>       0.00111111 </v>
   <v>       0.00111111 </v>
   <v>       0.00111111 </v>
   <v>       0.00111111 </v>
   <v>       0.00111111 </v>
   <v>       0.00111111 </v>
   <v>       0.00111111 </v>
   <v>       0.00111111 </v>
   <v>       0.00111111 </v>
   <v>       0.00111111 </v>
   <v>       0.00055556 </v>
   <v>       0.00055556 </v>
   <v>       0.00111111 </v>
   <v>       0.00111111 </v>
   <v>       0.00111111 </v>
   <v>       0.00111111 </v>
   <v>       0.00111111 </v>
   <v>       0.00111111 </v>
   <v>       0.00111111 </v>
   <v>       0.00111111 </v>
   <v>       0.00111111 </v>
   <v>       0.00111111 </v>
   <v>       0.00111111 </v>
   <v>       0.00055556 </v>
   <v>       0.00055556 </v>
   <v>       0.00111111 </v>
   <v>       0.00111111 </v>
   <v>       0.00111111 </v>
   <v>       0.00111111 </v>
   <v>       0.00111111 </v>
   <v>       0.00111111 </v>
   <v>       0.00111111 </v>
   <v>       0.00111111 </v>
   <v>       0.00111111 </v>
   <v>       0.00111111 </v>
   <v>       0.00111111 </v>
   <v>       0.00055556 </v>
   <v>       0.00055556 </v>
   <v>       0.00111111 </v>
   <v>       0.00111111 </v>
   <v>       0.00111111 </v>
   <v>       0.00111111 </v>
   <v>       0.00111111 </v>
   <v>       0.00111111 </v>
   <v>       0.00111111 </v>
   <v>       0.00111111 </v>
   <v>       0.00111111 </v>
   <v>       0.00111111 </v>
   <v>       0.00111111 </v>
   <v>       0.00055556 </v>
   <v>       0.00055556 </v>
   <v>       0.00111111 </v>
   <v>       0.00111111 </v>
   <v>       0.00111111 </v>
   <v>       0.00111111 </v>
   <v>       0.00111111 </v>
   <v>       0.00111111 </v>
   <v>       0.00111111 </v>
   <v>       0.00111111 </v>
   <v>       0.00111111 </v>
   <v>       0.00111111 </v>
   <v>       0.00111111 </v>
   <v>       0.00055556 </v>
   <v>       0.00055556 </v>
   <v>       0.00111111 </v>
   <v>       0.00111111 </v>
   <v>       0.00111111 </v>
   <v>       0.00111111 </v>
   <v>       0.00111111 </v>
   <v>       0.00111111 </v>
   <v>       0.00111111 </v>
   <v>       0.00111111 </v>
   <v>       0.00111111 </v>
   <v>       0.00111111 </v>
   <v>       0.00111111 </v>
   <v>       0.00055556 </v>
   <v>       0.00055556 </v>
   <v>       0.00111111 </v>
   <v>       0.00111111 </v>
   <v>       0.00111111 </v>
   <v>       0.00111111 </v>
   <v>       0.00111111 </v>
   <v>       0.00111111 </v>
   <v>       0.00111111 </v>
   <v>       0.00111111 </v>
   <v>       0.00111111 </v>
   <v>       0.00111111 </v>
   <v>       0.00111111 </v>
   <v>       0.00055556 </v>
   <v>       0.00055556 </v>
   <v>       0.00111111 </v>
   <v>       0.00111111 </v>
   <v>       0.00111111 </v>
   <v>       0.00111111 </v>
   <v>       0.00111111 </v>
   <v>       0.00111111 </v>
   <v>       0.00111111 </v>
   <v>       0.00111111 </v>
   <v>       0.00111111 </v>
   <v>       0.00111111 </v>
   <v>       0.00111111 </v>
   <v>       0.00055556 </v>
   <v>       0.00055556 </v>
   <v>       0.00111111 </v>
   <v>       0.00111111 </v>
   <v>       0.00111111 </v>
   <v>       0.00111111 </v>
   <v>       0.00111111 </v>
   <v>       0.00111111 </v>
   <v>       0.00111111 </v>
   <v>       0.00111111 </v>
   <v>       0.00111111 </v>
   <v>       0.00111111 </v>
   <v>       0.00111111 </v>
   <v>       0.00055556 </v>
   <v>       0.00055556 </v>
   <v>       0.00111111 </v>
   <v>       0.00111111 </v>
   <v>       0.00111111 </v>
   <v>       0.00111111 </v>
   <v>       0.00111111 </v>
   <v>       0.00111111 </v>
   <v>       0.00111111 </v>
   <v>       0.00111111 </v>
   <v>       0.00111111 </v>
   <v>       0.00111111 </v>
   <v>       0.00111111 </v>
   <v>       0.00055556 </v>
   <v>       0.00055556 </v>
   <v>       0.00111111 </v>
   <v>       0.00111111 </v>
   <v>       0.00111111 </v>
   <v>       0.00111111 </v>
   <v>       0.00111111 </v>
   <v>       0.00111111 </v>
   <v>       0.00111111 </v>
   <v>       0.00111111 </v>
   <v>       0.00111111 </v>
   <v>       0.00111111 </v>
   <v>       0.00111111 </v>
   <v>       0.00055556 </v>
   <v>       0.00055556 </v>
   <v>       0.00111111 </v>
   <v>       0.00111111 </v>
   <v>       0.00111111 </v>
   <v>       0.00111111 </v>
   <v>       0.00111111 </v>
   <v>       0.00111111 </v>
   <v>       0.00111111 </v>
   <v>       0.00111111 </v>
   <v>       0.00111111 </v>
   <v>       0.00111111 </v>
   <v>       0.00111111 </v>
   <v>       0.00055556 </v>
   <v>       0.00055556 </v>
   <v>       0.00111111 </v>
   <v>       0.00111111 </v>
   <v>       0.00111111 </v>
   <v>       0.00111111 </v>
   <v>       0.00111111 </v>
   <v>       0.00111111 </v>
   <v>       0.00111111 </v>
   <v>       0.00111111 </v>
   <v>       0.00111111 </v>
   <v>       0.00111111 </v>
   <v>       0.00111111 </v>
   <v>       0.00055556 </v>
   <v>       0.00055556 </v>
   <v>       0.00111111 </v>
   <v>       0.00111111 </v>
   <v>       0.00111111 </v>
   <v>       0.00111111 </v>
   <v>       0.00111111 </v>
   <v>       0.00111111 </v>
   <v>       0.00111111 </v>
   <v>       0.00111111 </v>
   <v>       0.00111111 </v>
   <v>       0.00111111 </v>
   <v>       0.00111111 </v>
   <v>       0.00055556 </v>
   <v>       0.00055556 </v>
   <v>       0.00111111 </v>
   <v>       0.00111111 </v>
   <v>       0.00111111 </v>
   <v>       0.00111111 </v>
   <v>       0.00111111 </v>
   <v>       0.00111111 </v>
   <v>       0.00111111 </v>
   <v>       0.00111111 </v>
   <v>       0.00111111 </v>
   <v>       0.00111111 </v>
   <v>       0.00111111 </v>
   <v>       0.00055556 </v>
   <v>       0.00055556 </v>
   <v>       0.00111111 </v>
   <v>       0.00111111 </v>
   <v>       0.00111111 </v>
   <v>       0.00111111 </v>
   <v>       0.00111111 </v>
   <v>       0.00111111 </v>
   <v>       0.00111111 </v>
   <v>       0.00111111 </v>
   <v>       0.00111111 </v>
   <v>       0.00111111 </v>
   <v>       0.00111111 </v>
   <v>       0.00055556 </v>
   <v>       0.00055556 </v>
   <v>       0.00111111 </v>
   <v>       0.00111111 </v>
   <v>       0.00111111 </v>
   <v>       0.00111111 </v>
[...]
       <r>    5.9182    1.0000 </r>
       <r>    6.0512    1.0000 </r>
       <r>    6.1480    1.0000 </r>
       <r>    6.2237    1.0000 </r>
       <r>    6.3442    1.0000 </r>
       <r>    6.4095    1.0000 </r>
       <r>    6.4834    1.0000 </r>
       <r>    6.5134    1.0000 </r>
       <r>    6.5762    1.0000 </r>
       <r>    6.9411    1.0000 </r>
       <r>    7.3706    1.0006 </r>
       <r>    7.5509    1.0067 </r>
       <r>    8.0155    0.8727 </r>
       <r>   10.4221    0.0000 </r>
       <r>   10.9759    0.0000 </r>
       <r>   11.8471    0.0000 </r>
       <r>   12.2959    0.0000 </r>
       <r>   13.9221    0.0000 </r>
       <r>   14.5433    0.0000 </r>
      </set>
      <set comment="kpoint 987">
       <r>    1.2763    1.0000 </r>
       <r>    1.3656    1.0000 </r>
       <r>    1.9074    1.0000 </r>
       <r>    2.0678    1.0000 </r>
       <r>    2.1793    1.0000 </r>
       <r>    2.2867    1.0000 </r>
       <r>    2.5979    1.0000 </r>
       <r>    3.1283    1.0000 </r>
       <r>    3.2539    1.0000 </r>
       <r>    3.3894    1.0000 </r>
       <r>    3.6970    1.0000 </r>
       <r>    3.9740    1.0000 </r>
       <r>    4.2140    1.0000 </r>
       <r>    4.4034    1.0000 </r>
       <r>    4.5891    1.0000 </r>
       <r>    4.7594    1.0000 </r>
       <r>    4.9069    1.0000 </r>
       <r>    5.3137    1.0000 </r>
       <r>    5.7312    1.0000 </r>
       <r>    5.8740    1.0000 </r>
       <r>    5.9501    1.0000 </r>
       <r>    6.0624    1.0000 </r>
       <r>    6.1579    1.0000 </r>
       <r>    6.1768    1.0000 </r>
       <r>    6.2722    1.0000 </r>
       <r>    6.3924    1.0000 </r>
       <r>    6.4355    1.0000 </r>
       <r>    6.5164    1.0000 </r>
       <r>    6.5221    1.0000 </r>
       <r>    6.5826    1.0000 </r>
       <r>    7.2302    1.0000 </r>
       <r>    7.5831    1.0095 </r>
       <r>    8.0461    0.8121 </r>
       <r>    8.5933   -0.0310 </r>
       <r>    9.5899    0.0000 </r>
       <r>   10.1237    0.0000 </r>
       <r>   11.3407    0.0000 </r>
       <r>   11.7268    0.0000 </r>
       <r>   14.4625    0.0000 </r>
       <r>   15.0326    0.0000 </r>
      </set>
      <set comment="kpoint 988">
       <r>    1.2608    1.0000 </r>
       <r>    1.3467    1.0000 </r>
       <r>    1.8967    1.0000 </r>
       <r>    2.0669    1.0000 </r>
       <r>    2.1639    1.0000 </r>
       <r>    2.2675    1.0000 </r>
       <r>    2.5984    1.0000 </r>
       <r>    3.1118    1.0000 </r>
       <r>    3.2609    1.0000 </r>
       <r>    3.3991    1.0000 </r>
       <r>    3.6804    1.0000 </r>
       <r>    3.9706    1.0000 </r>
       <r>    4.2172    1.0000 </r>
       <r>    4.4207    1.0000 </r>
       <r>    4.5983    1.0000 </r>
       <r>    4.7774    1.0000 </r>
       <r>    4.9345    1.0000 </r>
       <r>    5.3305    1.0000 </r>
       <r>    5.7938    1.0000 </r>
       <r>    5.8961    1.0000 </r>
       <r>    5.9961    1.0000 </r>
       <r>    6.0756    1.0000 </r>
       <r>    6.1798    1.0000 </r>
       <r>    6.2360    1.0000 </r>
       <r>    6.3068    1.0000 </r>
       <r>    6.4231    1.0000 </r>
       <r>    6.4445    1.0000 </r>
       <r>    6.5121    1.0000 </r>
       <r>    6.5276    1.0000 </r>
       <r>    6.5858    1.0000 </r>
       <r>    7.4982    1.0036 </r>
       <r>    7.5152    1.0044 </r>
       <r>    8.6873   -0.0171 </r>
       <r>    8.8196   -0.0043 </r>
       <r>    9.2703    0.0000 </r>
       <r>    9.3938    0.0000 </r>
       <r>   11.1581    0.0000 </r>
       <r>   11.4986    0.0000 </r>
       <r>   15.0255    0.0000 </r>
       <r>   15.0930    0.0000 </r>
      </set>
     </set>
    </set>
   </array>
  </eigenvalues>
  <separator name="orbital magnetization" >
   <v name="MAGDIPOLOUT">      0.00000000      0.00000000      0.00000000</v>
  </separator>
  <dos>
   <i name="efermi">      8.16689293 </i>
   <total>
    <array>
     <dimension dim="1">gridpoints</dimension>
     <dimension dim="2">spin</dimension>
     <field>energy</field>
     <field>total</field>
     <field>integrated</field>
     <set>
      <set comment="spin 1">
       <r>    -4.0056     0.0000     0.0000 </r>
       <r>    -3.9268     0.0000     0.0000 </r>
       <r>    -3.8480     0.0000     0.0000 </r>
       <r>    -3.7692     0.0000     0.0000 </r>
       <r>    -3.6904     0.0000     0.0000 </r>
       <r>    -3.6116     0.0000     0.0000 </r>
       <r>    -3.5328     0.0000     0.0000 </r>
       <r>    -3.4540     0.0000     0.0000 </r>
       <r>    -3.3752     0.0000     0.0000 </r>
       <r>    -3.2964     0.0000     0.0000 </r>
       <r>    -3.2176     0.0000     0.0000 </r>
       <r>    -3.1388     0.0000     0.0000 </r>
       <r>    -3.0600     0.0000     0.0000 </r>
       <r>    -2.9812     0.0000     0.0000 </r>
       <r>    -2.9024     0.0000     0.0000 </r>
       <r>    -2.8236     0.0000     0.0000 </r>
       <r>    -2.7448     0.0000     0.0000 </r>
       <r>    -2.6660     0.0000     0.0000 </r>
       <r>    -2.5872     0.0000     0.0000 </r>
       <r>    -2.5084     0.0000     0.0000 </r>
       <r>    -2.4296     0.0000     0.0000 </r>
       <r>    -2.3508     0.0000     0.0000 </r>
       <r>    -2.2720     0.0000     0.0000 </r>
       <r>    -2.1932     0.0000     0.0000 </r>
       <r>    -2.1144     0.0000     0.0000 </r>
       <r>    -2.0356     0.0000     0.0000 </r>
       <r>    -1.9568     0.0000     0.0000 </r>
       <r>    -1.8780     0.0000     0.0000 </r>
       <r>    -1.7992     0.0000     0.0000 </r>
       <r>    -1.7204    -0.0001     0.0000 </r>
       <r>    -1.6416    -0.0004     0.0000 </r>
       <r>    -1.5628    -0.0012    -0.0001 </r>
       <r>    -1.4840    -0.0027    -0.0004 </r>
       <r>    -1.4052    -0.0052    -0.0008 </r>
       <r>    -1.3264    -0.0079    -0.0014 </r>
       <r>    -1.2476    -0.0084    -0.0020 </r>
       <r>    -1.1688    -0.0024    -0.0022 </r>
       <r>    -1.0900     0.0155    -0.0010 </r>
       <r>    -1.0112     0.0494     0.0029 </r>
       <r>    -0.9324     0.0996     0.0107 </r>
       <r>    -0.8536     0.1622     0.0235 </r>
       <r>    -0.7748     0.2306     0.0417 </r>
       <r>    -0.6960     0.2984     0.0652 </r>
       <r>    -0.6172     0.3603     0.0936 </r>
       <r>    -0.5384     0.4125     0.1261 </r>
       <r>    -0.4596     0.4526     0.1618 </r>
       <r>    -0.3808     0.4799     0.1996 </r>
       <r>    -0.3020     0.4963     0.2387 </r>
       <r>    -0.2231     0.5056     0.2786 </r>
       <r>    -0.1443     0.5116     0.3189 </r>
       <r>    -0.0655     0.5169     0.3596 </r>
       <r>     0.0133     0.5221     0.4007 </r>
       <r>     0.0921     0.5278     0.4423 </r>
       <r>     0.1709     0.5370     0.4846 </r>
       <r>     0.2497     0.5537     0.5283 </r>
       <r>     0.3285     0.5817     0.5741 </r>
       <r>     0.4073     0.6220     0.6231 </r>
       <r>     0.4861     0.6734     0.6762 </r>
       <r>     0.5649     0.7327     0.7339 </r>
       <r>     0.6437     0.7949     0.7966 </r>
       <r>     0.7225     0.8556     0.8640 </r>
       <r>     0.8013     0.9155     0.9361 </r>
       <r>     0.8801     0.9855     1.0138 </r>
       <r>     0.9589     1.0914     1.0998 </r>
       <r>     1.0377     1.2721     1.2000 </r>
       <r>     1.1165     1.5686     1.3237 </r>
       <r>     1.1953     1.9978     1.4811 </r>
       <r>     1.2741     2.5228     1.6799 </r>
       <r>     1.3529     3.0464     1.9199 </r>
       <r>     1.4317     3.4505     2.1918 </r>
       <r>     1.5105     3.6676     2.4809 </r>
       <r>     1.5893     3.7343     2.7751 </r>
       <r>     1.6681     3.7843     3.0733 </r>
       <r>     1.7469     3.9845     3.3873 </r>
       <r>     1.8257     4.4591     3.7387 </r>
       <r>     1.9045     5.2390     4.1516 </r>
       <r>     1.9833     6.2501     4.6441 </r>
       <r>     2.0621     7.3388     5.2224 </r>
       <r>     2.1409     8.3332     5.8791 </r>
       <r>     2.2197     9.1215     6.5978 </r>
       <r>     2.2985     9.6990     7.3621 </r>
       <r>     2.3773    10.1418     8.1613 </r>
       <r>     2.4561    10.5133     8.9898 </r>
       <r>     2.5349    10.7852     9.8397 </r>
       <r>     2.6137    10.8559    10.6952 </r>
       <r>     2.6925    10.6657    11.5357 </r>
       <r>     2.7713    10.3109    12.3482 </r>
       <r>     2.8501    10.0357    13.1390 </r>
       <r>     2.9289    10.0880    13.9340 </r>
       <r>     3.0077    10.5468    14.7651 </r>
       <r>     3.0865    11.2675    15.6530 </r>
       <r>     3.1653    11.9862    16.5975 </r>
       <r>     3.2441    12.4882    17.5816 </r>
       <r>     3.3229    12.7061    18.5829 </r>
       <r>     3.4017    12.6998    19.5837 </r>
       <r>     3.4805    12.5811    20.5751 </r>
       <r>     3.5593    12.4603    21.5570 </r>
       <r>     3.6381    12.4263    22.5362 </r>
       <r>     3.7170    12.5261    23.5233 </r>
       <r>     3.7958    12.7389    24.5271 </r>
       <r>     3.8746    12.9759    25.5496 </r>
       <r>     3.9534    13.1294    26.5843 </r>
       <r>     4.0322    13.1394    27.6197 </r>
       <r>     4.1110    13.0250    28.6461 </r>
       <r>     4.1898    12.8582    29.6593 </r>
       <r>     4.2686    12.7058    30.6606 </r>
       <r>     4.3474    12.5865    31.6524 </r>
       <r>     4.4262    12.4667    32.6348 </r>
       <r>     4.5050    12.2895    33.6033 </r>
       <r>     4.5838    12.0140    34.5500 </r>
       <r>     4.6626    11.6404    35.4673 </r>
       <r>     4.7414    11.2003    36.3499 </r>
       <r>     4.8202    10.7141    37.1942 </r>
       <r>     4.8990    10.1633    37.9951 </r>
       <r>     4.9778     9.5158    38.7449 </r>
       <r>     5.0566     8.7841    39.4371 </r>
       <r>     5.1354     8.0497    40.0715 </r>
       <r>     5.2142     7.4275    40.6568 </r>
       <r>     5.2930     7.0197    41.2099 </r>
       <r>     5.3718     6.9102    41.7545 </r>
       <r>     5.4506     7.1862    42.3208 </r>
       <r>     5.5294     7.9375    42.9463 </r>
       <r>     5.6082     9.2160    43.6725 </r>
       <r>     5.6870    10.9933    44.5388 </r>
       <r>     5.7658    13.1592    45.5758 </r>
       <r>     5.8446    15.5551    46.8015 </r>
       <r>     5.9234    18.0004    48.2200 </r>
       <r>     6.0022    20.2874    49.8187 </r>
       <r>     6.0810    22.1712    51.5658 </r>
       <r>     6.1598    23.3983    53.4097 </r>
       <r>     6.2386    23.7688    55.2827 </r>
       <r>     6.3174    23.1725    57.1087 </r>
       <r>     6.3962    21.5718    58.8086 </r>
       <r>     6.4750    18.9897    60.3051 </r>
       <r>     6.5538    15.5761    61.5325 </r>
       <r>     6.6326    11.7048    62.4549 </r>
       <r>     6.7114     7.9549    63.0817 </r>
       <r>     6.7902     4.9095    63.4686 </r>
       <r>     6.8690     2.8997    63.6971 </r>
       <r>     6.9478     1.8909    63.8461 </r>
       <r>     7.0266     1.5825    63.9708 </r>
       <r>     7.1054     1.6138    64.0980 </r>
       <r>     7.1842     1.7239    64.2338 </r>
       <r>     7.2630     1.7971    64.3754 </r>
       <r>     7.3418     1.8218    64.5190 </r>
       <r>     7.4206     1.8273    64.6630 </r>
       <r>     7.4994     1.8376    64.8078 </r>
       <r>     7.5782     1.8545    64.9539 </r>
       <r>     7.6571     1.8637    65.1008 </r>
       <r>     7.7359     1.8506    65.2466 </r>
       <r>     7.8147     1.8140    65.3896 </r>
       <r>     7.8935     1.7673    65.5288 </r>
       <r>     7.9723     1.7296    65.6651 </r>
       <r>     8.0511     1.7140    65.8002 </r>
       <r>     8.1299     1.7208    65.9358 </r>
       <r>     8.2087     1.7380    66.0728 </r>
       <r>     8.2875     1.7493    66.2106 </r>
       <r>     8.3663     1.7446    66.3481 </r>
       <r>     8.4451     1.7247    66.4840 </r>
       <r>     8.5239     1.6983    66.6178 </r>
       <r>     8.6027     1.6735    66.7497 </r>
       <r>     8.6815     1.6547    66.8801 </r>
       <r>     8.7603     1.6454    67.0098 </r>
       <r>     8.8391     1.6492    67.1397 </r>
       <r>     8.9179     1.6671    67.2711 </r>
       <r>     8.9967     1.6934    67.4045 </r>
       <r>     9.0755     1.7165    67.5398 </r>
       <r>     9.1543     1.7260    67.6758 </r>
       <r>     9.2331     1.7178    67.8112 </r>
       <r>     9.3119     1.6962    67.9448 </r>
       <r>     9.3907     1.6697    68.0764 </r>
       <r>     9.4695     1.6450    68.2061 </r>
       <r>     9.5483     1.6229    68.3339 </r>
       <r>     9.6271     1.6010    68.4601 </r>
       <r>     9.7059     1.5786    68.5845 </r>
       <r>     9.7847     1.5594    68.7074 </r>
       <r>     9.8635     1.5462    68.8292 </r>
       <r>     9.9423     1.5341    68.9501 </r>
       <r>    10.0211     1.5116    69.0692 </r>
       <r>    10.0999     1.4699    69.1851 </r>
       <r>    10.1787     1.4127    69.2964 </r>
       <r>    10.2575     1.3544    69.4031 </r>
       <r>    10.3363     1.3089    69.5063 </r>
       <r>    10.4151     1.2816    69.6073 </r>
       <r>    10.4939     1.2701    69.7073 </r>
       <r>    10.5727     1.2698    69.8074 </r>
       <r>    10.6515     1.2767    69.9080 </r>
       <r>    10.7303     1.2861    70.0094 </r>
       <r>    10.8091     1.2948    70.1114 </r>
       <r>    10.8879     1.3058    70.2143 </r>
       <r>    10.9667     1.3304    70.3191 </r>
       <r>    11.0455     1.3843    70.4282 </r>
       <r>    11.1243     1.4777    70.5447 </r>
       <r>    11.2031     1.6065    70.6713 </r>
       <r>    11.2819     1.7516    70.8093 </r>
       <r>    11.3607     1.8875    70.9580 </r>
       <r>    11.4395     1.9930    71.1151 </r>
       <r>    11.5184     2.0588    71.2773 </r>
       <r>    11.5972     2.0878    71.4418 </r>
       <r>    11.6760     2.0918    71.6067 </r>
       <r>    11.7548     2.0852    71.7710 </r>
       <r>    11.8336     2.0768    71.9346 </r>
       <r>    11.9124     2.0640    72.0973 </r>
       <r>    11.9912     2.0337    72.2575 </r>
       <r>    12.0700     1.9741    72.4131 </r>
       <r>    12.1488     1.8875    72.5618 </r>
       <r>    12.2276     1.7963    72.7034 </r>
       <r>    12.3064     1.7324    72.8399 </r>
       <r>    12.3852     1.7173    72.9752 </r>
       <r>    12.4640     1.7485    73.1130 </r>
       <r>    12.5428     1.8020    73.2550 </r>
       <r>    12.6216     1.8484    73.4007 </r>
       <r>    12.7004     1.8700    73.5480 </r>
       <r>    12.7792     1.8640    73.6949 </r>
       <r>    12.8580     1.8354    73.8396 </r>
       <r>    12.9368     1.7884    73.9805 </r>
       <r>    13.0156     1.7290    74.1167 </r>
       <r>    13.0944     1.6707    74.2484 </r>
       <r>    13.1732     1.6354    74.3773 </r>
       <r>    13.2520     1.6434    74.5068 </r>
       <r>    13.3308     1.7021    74.6409 </r>
       <r>    13.4096     1.8007    74.7828 </r>
       <r>    13.4884     1.9155    74.9337 </r>
       <r>    13.5672     2.0209    75.0930 </r>
       <r>    13.6460     2.0982    75.2583 </r>
       <r>    13.7248     2.1375    75.4268 </r>
       <r>    13.8036     2.1358    75.5951 </r>
       <r>    13.8824     2.0967    75.7603 </r>
       <r>    13.9612     2.0338    75.9206 </r>
       <r>    14.0400     1.9723    76.0760 </r>
       <r>    14.1188     1.9415    76.2290 </r>
       <r>    14.1976     1.9607    76.3835 </r>
       <r>    14.2764     2.0275    76.5433 </r>
       <r>    14.3552     2.1164    76.7100 </r>
       <r>    14.4340     2.1901    76.8826 </r>
       <r>    14.5128     2.2191    77.0575 </r>
       <r>    14.5916     2.1968    77.2306 </r>
       <r>    14.6704     2.1380    77.3991 </r>
       <r>    14.7492     2.0627    77.5616 </r>
       <r>    14.8280     1.9813    77.7178 </r>
       <r>    14.9068     1.8922    77.8669 </r>
       <r>    14.9856     1.7918    78.0081 </r>
       <r>    15.0644     1.6837    78.1407 </r>
       <r>    15.1432     1.5788    78.2652 </r>
       <r>    15.2220     1.4878    78.3824 </r>
       <r>    15.3008     1.4136    78.4938 </r>
       <r>    15.3796     1.3504    78.6002 </r>
       <r>    15.4585     1.2879    78.7017 </r>
       <r>    15.5373     1.2197    78.7978 </r>
       <r>    15.6161     1.1464    78.8881 </r>
       <r>    15.6949     1.0758    78.9729 </r>
       <r>    15.7737     1.0177    79.0531 </r>
       <r>    15.8525     0.9799    79.1303 </r>
       <r>    15.9313     0.9661    79.2065 </r>
       <r>    16.0101     0.9764    79.2834 </r>
       <r>    16.0889     1.0097    79.3630 </r>
       <r>    16.1677     1.0644    79.4468 </r>
       <r>    16.2465     1.1357    79.5363 </r>
       <r>    16.3253     1.2059    79.6314 </r>
       <r>    16.4041     1.2373    79.7289 </r>
       <r>    16.4829     1.1811    79.8219 </r>
       <r>    16.5617     1.0087    79.9014 </r>
       <r>    16.6405     0.7399    79.9597 </r>
       <r>    16.7193     0.4417    79.9945 </r>
       <r>    16.7981     0.1907    80.0096 </r>
       <r>    16.8769     0.0315    80.0121 </r>
       <r>    16.9557    -0.0377    80.0091 </r>
       <r>    17.0345    -0.0484    80.0053 </r>
       <r>    17.1133    -0.0350    80.0025 </r>
       <r>    17.1921    -0.0191    80.0010 </r>
       <r>    17.2709    -0.0084    80.0004 </r>
       <r>    17.3497    -0.0031    80.0001 </r>
       <r>    17.4285    -0.0010    80.0000 </r>
       <r>    17.5073    -0.0003    80.0000 </r>
       <r>    17.5861    -0.0001    80.0000 </r>
       <r>    17.6649     0.0000    80.0000 </r>
       <r>    17.7437     0.0000    80.0000 </r>
       <r>    17.8225     0.0000    80.0000 </r>
       <r>    17.9013     0.0000    80.0000 </r>
       <r>    17.9801     0.0000    80.0000 </r>
       <r>    18.0589     0.0000    80.0000 </r>
       <r>    18.1377     0.0000    80.0000 </r>
       <r>    18.2165     0.0000    80.0000 </r>
       <r>    18.2953     0.0000    80.0000 </r>
       <r>    18.3741     0.0000    80.0000 </r>
       <r>    18.4529     0.0000    80.0000 </r>
       <r>    18.5317     0.0000    80.0000 </r>
       <r>    18.6105     0.0000    80.0000 </r>
       <r>    18.6893     0.0000    80.0000 </r>
       <r>    18.7681     0.0000    80.0000 </r>
       <r>    18.8469     0.0000    80.0000 </r>
       <r>    18.9257     0.0000    80.0000 </r>
       <r>    19.0045     0.0000    80.0000 </r>
       <r>    19.0833     0.0000    80.0000 </r>
       <r>    19.1621     0.0000    80.0000 </r>
       <r>    19.2409     0.0000    80.0000 </r>
       <r>    19.3197     0.0000    80.0000 </r>
       <r>    19.3986     0.0000    80.0000 </r>
       <r>    19.4774     0.0000    80.0000 </r>
       <r>    19.5562     0.0000    80.0000 </r>
       <r>    19.6350     0.0000    80.0000 </r>
      </set>
     </set>
    </array>
   </total>
  </dos>
 </calculation>
 <structure name="finalpos" >
  <crystal>
   <varray name="basis" >
    <v>       0.00000000      -2.05756512      -2.05756512 </v>
    <v>      -3.79701585       2.08624962      -2.08624962 </v>
    <v>       3.74891477       4.11876328      -4.11876328 </v>
   </varray>
   <i name="volume">     96.54170220 </i>
   <varray name="rec_basis" >
    <v>       0.00000000      -0.24300567      -0.24300567 </v>
    <v>      -0.17556400       0.07989953      -0.07989953 </v>
    <v>       0.08892726       0.08092469      -0.08092469 </v>
   </varray>
  </crystal>
  <varray name="positions" >
   <v>       0.50000000       0.52471896       0.01458959 </v>
   <v>       0.50000000       0.14242645       0.65416726 </v>
   <v>       0.00000000       0.63088824       0.68823319 </v>
   <v>       0.00000000       0.03890419       0.97222342 </v>
   <v>       0.50000000       0.83184991       0.33366803 </v>
   <v>       0.00000000       0.33121224       0.33711852 </v>
  </varray>
 </structure>
</modeling>
