<?xml version="1.0" encoding="ISO-8859-1"?>
<modeling>
 <generator>
  <i name="program" type="string">vasp </i>
  <i name="version" type="string">5.3.5  </i>
  <i name="subversion" type="string">31Mar14 (build Jun 20 2014 13:15:13) complex                          parallel </i>
  <i name="platform" type="string">LinuxIFC </i>
  <i name="date" type="string">2025 11 21 </i>
  <i name="time" type="string">10:21:56 </i>
 </generator>
 <incar>
  <i type="string" name="PREC">accurate</i>
  <i type="int" name="IALGO">    68</i>
  <i type="logical" name="ADDGRID"> T  </i>
  <i type="int" name="NELM">   100</i>
  <i type="int" name="NELMIN">     4</i>
  <i type="int" name="IBRION">     2</i>
  <i name="EDIFF">      0.00000100</i>
  <i name="EDIFFG">     -0.02000000</i>
  <i type="int" name="NSW">    30</i>
  <i type="int" name="ISIF">     3</i>
  <i name="ENCUT">    500.00000000</i>
  <i type="logical" name="LREAL"> F  </i>
  <i type="int" name="ISMEAR">     1</i>
  <i name="SIGMA">      0.30000000</i>
  <i type="logical" name="LWAVE"> F  </i>
  <i type="logical" name="LCHARG"> F  </i>
  <i type="int" name="NELM">   100</i>
 </incar>
 <kpoints>
  <generation param="Auto">
   <i name="subdivisionlength">     70.00000000 </i>
   <v type="int" name="divisions">      17       17       17 </v>
   <v name="usershift">      0.00000000       0.00000000       0.00000000 </v>
   <v name="genvec1">      0.05882353       0.00000000       0.00000000 </v>
   <v name="genvec2">      0.00000000       0.05882353       0.00000000 </v>
   <v name="genvec3">      0.00000000       0.00000000       0.05882353 </v>
   <v name="shift">      0.00000000       0.00000000       0.00000000 </v>
  </generation>
  <varray name="kpointlist" >
   <v>       0.00000000       0.00000000       0.00000000 </v>
   <v>       0.05882353       0.00000000       0.00000000 </v>
   <v>       0.11764706       0.00000000       0.00000000 </v>
   <v>       0.17647059       0.00000000       0.00000000 </v>
   <v>       0.23529412       0.00000000       0.00000000 </v>
   <v>       0.29411765       0.00000000       0.00000000 </v>
   <v>       0.35294118       0.00000000       0.00000000 </v>
   <v>       0.41176471       0.00000000       0.00000000 </v>
   <v>       0.47058824       0.00000000       0.00000000 </v>
   <v>       0.05882353       0.05882353       0.00000000 </v>
   <v>       0.11764706       0.05882353       0.00000000 </v>
   <v>       0.17647059       0.05882353       0.00000000 </v>
   <v>       0.23529412       0.05882353       0.00000000 </v>
   <v>       0.29411765       0.05882353       0.00000000 </v>
   <v>       0.35294118       0.05882353       0.00000000 </v>
   <v>       0.41176471       0.05882353       0.00000000 </v>
   <v>       0.47058824       0.05882353       0.00000000 </v>
   <v>       0.11764706       0.11764706       0.00000000 </v>
   <v>       0.17647059       0.11764706       0.00000000 </v>
   <v>       0.23529412       0.11764706       0.00000000 </v>
   <v>       0.29411765       0.11764706       0.00000000 </v>
   <v>       0.35294118       0.11764706       0.00000000 </v>
   <v>       0.41176471       0.11764706       0.00000000 </v>
   <v>       0.47058824       0.11764706       0.00000000 </v>
   <v>       0.17647059       0.17647059       0.00000000 </v>
   <v>       0.23529412       0.17647059       0.00000000 </v>
   <v>       0.29411765       0.17647059       0.00000000 </v>
   <v>       0.35294118       0.17647059       0.00000000 </v>
   <v>       0.41176471       0.17647059       0.00000000 </v>
   <v>       0.47058824       0.17647059       0.00000000 </v>
   <v>       0.23529412       0.23529412       0.00000000 </v>
   <v>       0.29411765       0.23529412       0.00000000 </v>
   <v>       0.35294118       0.23529412       0.00000000 </v>
   <v>       0.41176471       0.23529412       0.00000000 </v>
   <v>       0.47058824       0.23529412       0.00000000 </v>
   <v>       0.29411765       0.29411765       0.00000000 </v>
   <v>       0.35294118       0.29411765       0.00000000 </v>
   <v>       0.41176471       0.29411765       0.00000000 </v>
   <v>       0.47058824       0.29411765       0.00000000 </v>
   <v>       0.35294118       0.35294118       0.00000000 </v>
   <v>       0.41176471       0.35294118       0.00000000 </v>
   <v>       0.47058824       0.35294118       0.00000000 </v>
   <v>       0.41176471       0.41176471       0.00000000 </v>
   <v>       0.47058824       0.41176471       0.00000000 </v>
   <v>       0.47058824       0.47058824       0.00000000 </v>
   <v>       0.05882353       0.05882353       0.05882353 </v>
   <v>       0.11764706       0.05882353       0.05882353 </v>
   <v>       0.17647059       0.05882353       0.05882353 </v>
   <v>       0.23529412       0.05882353       0.05882353 </v>
   <v>       0.29411765       0.05882353       0.05882353 </v>
   <v>       0.35294118       0.05882353       0.05882353 </v>
   <v>       0.41176471       0.05882353       0.05882353 </v>
   <v>       0.47058824       0.05882353       0.05882353 </v>
   <v>       0.11764706       0.11764706       0.05882353 </v>
   <v>       0.17647059       0.11764706       0.05882353 </v>
   <v>       0.23529412       0.11764706       0.05882353 </v>
   <v>       0.29411765       0.11764706       0.05882353 </v>
   <v>       0.35294118       0.11764706       0.05882353 </v>
   <v>       0.41176471       0.11764706       0.05882353 </v>
   <v>       0.47058824       0.11764706       0.05882353 </v>
   <v>       0.17647059       0.17647059       0.05882353 </v>
   <v>       0.23529412       0.17647059       0.05882353 </v>
   <v>       0.29411765       0.17647059       0.05882353 </v>
   <v>       0.35294118       0.17647059       0.05882353 </v>
   <v>       0.41176471       0.17647059       0.05882353 </v>
   <v>       0.47058824       0.17647059       0.05882353 </v>
   <v>       0.23529412       0.23529412       0.05882353 </v>
   <v>       0.29411765       0.23529412       0.05882353 </v>
   <v>       0.35294118       0.23529412       0.05882353 </v>
   <v>       0.41176471       0.23529412       0.05882353 </v>
   <v>       0.47058824       0.23529412       0.05882353 </v>
   <v>       0.29411765       0.29411765       0.05882353 </v>
   <v>       0.35294118       0.29411765       0.05882353 </v>
   <v>       0.41176471       0.29411765       0.05882353 </v>
   <v>       0.47058824       0.29411765       0.05882353 </v>
   <v>       0.35294118       0.35294118       0.05882353 </v>
   <v>       0.41176471       0.35294118       0.05882353 </v>
   <v>       0.47058824       0.35294118       0.05882353 </v>
   <v>       0.41176471       0.41176471       0.05882353 </v>
   <v>       0.47058824       0.41176471       0.05882353 </v>
   <v>       0.47058824       0.47058824       0.05882353 </v>
   <v>       0.11764706       0.11764706       0.11764706 </v>
   <v>       0.17647059       0.11764706       0.11764706 </v>
   <v>       0.23529412       0.11764706       0.11764706 </v>
   <v>       0.29411765       0.11764706       0.11764706 </v>
   <v>       0.35294118       0.11764706       0.11764706 </v>
   <v>       0.41176471       0.11764706       0.11764706 </v>
   <v>       0.47058824       0.11764706       0.11764706 </v>
   <v>       0.17647059       0.17647059       0.11764706 </v>
   <v>       0.23529412       0.17647059       0.11764706 </v>
   <v>       0.29411765       0.17647059       0.11764706 </v>
   <v>       0.35294118       0.17647059       0.11764706 </v>
   <v>       0.41176471       0.17647059       0.11764706 </v>
   <v>       0.47058824       0.17647059       0.11764706 </v>
   <v>       0.23529412       0.23529412       0.11764706 </v>
   <v>       0.29411765       0.23529412       0.11764706 </v>
   <v>       0.35294118       0.23529412       0.11764706 </v>
   <v>       0.41176471       0.23529412       0.11764706 </v>
   <v>       0.47058824       0.23529412       0.11764706 </v>
   <v>       0.29411765       0.29411765       0.11764706 </v>
   <v>       0.35294118       0.29411765       0.11764706 </v>
   <v>       0.41176471       0.29411765       0.11764706 </v>
   <v>       0.47058824       0.29411765       0.11764706 </v>
   <v>       0.35294118       0.35294118       0.11764706 </v>
   <v>       0.41176471       0.35294118       0.11764706 </v>
   <v>       0.47058824       0.35294118       0.11764706 </v>
   <v>       0.41176471       0.41176471       0.11764706 </v>
   <v>       0.47058824       0.41176471       0.11764706 </v>
   <v>       0.47058824       0.47058824       0.11764706 </v>
   <v>       0.17647059       0.17647059       0.17647059 </v>
   <v>       0.23529412       0.17647059       0.17647059 </v>
   <v>       0.29411765       0.17647059       0.17647059 </v>
   <v>       0.35294118       0.17647059       0.17647059 </v>
   <v>       0.41176471       0.17647059       0.17647059 </v>
   <v>       0.47058824       0.17647059       0.17647059 </v>
   <v>       0.23529412       0.23529412       0.17647059 </v>
   <v>       0.29411765       0.23529412       0.17647059 </v>
   <v>       0.35294118       0.23529412       0.17647059 </v>
   <v>       0.41176471       0.23529412       0.17647059 </v>
   <v>       0.47058824       0.23529412       0.17647059 </v>
   <v>       0.29411765       0.29411765       0.17647059 </v>
   <v>       0.35294118       0.29411765       0.17647059 </v>
   <v>       0.41176471       0.29411765       0.17647059 </v>
   <v>       0.47058824       0.29411765       0.17647059 </v>
   <v>       0.35294118       0.35294118       0.17647059 </v>
   <v>       0.41176471       0.35294118       0.17647059 </v>
   <v>       0.47058824       0.35294118       0.17647059 </v>
   <v>       0.41176471       0.41176471       0.17647059 </v>
   <v>       0.47058824       0.41176471       0.17647059 </v>
   <v>       0.47058824       0.47058824       0.17647059 </v>
   <v>       0.23529412       0.23529412       0.23529412 </v>
   <v>       0.29411765       0.23529412       0.23529412 </v>
   <v>       0.35294118       0.23529412       0.23529412 </v>
   <v>       0.41176471       0.23529412       0.23529412 </v>
   <v>       0.47058824       0.23529412       0.23529412 </v>
   <v>       0.29411765       0.29411765       0.23529412 </v>
   <v>       0.35294118       0.29411765       0.23529412 </v>
   <v>       0.41176471       0.29411765       0.23529412 </v>
   <v>       0.47058824       0.29411765       0.23529412 </v>
   <v>       0.35294118       0.35294118       0.23529412 </v>
   <v>       0.41176471       0.35294118       0.23529412 </v>
   <v>       0.47058824       0.35294118       0.23529412 </v>
   <v>       0.41176471       0.41176471       0.23529412 </v>
   <v>       0.47058824       0.41176471       0.23529412 </v>
   <v>       0.47058824       0.47058824       0.23529412 </v>
   <v>       0.29411765       0.29411765       0.29411765 </v>
   <v>       0.35294118       0.29411765       0.29411765 </v>
   <v>       0.41176471       0.29411765       0.29411765 </v>
   <v>       0.47058824       0.29411765       0.29411765 </v>
   <v>       0.35294118       0.35294118       0.29411765 </v>
   <v>       0.41176471       0.35294118       0.29411765 </v>
   <v>       0.47058824       0.35294118       0.29411765 </v>
   <v>       0.41176471       0.41176471       0.29411765 </v>
   <v>       0.47058824       0.41176471       0.29411765 </v>
   <v>       0.47058824       0.47058824       0.29411765 </v>
   <v>       0.35294118       0.35294118       0.35294118 </v>
   <v>       0.41176471       0.35294118       0.35294118 </v>
   <v>       0.47058824       0.35294118       0.35294118 </v>
   <v>       0.41176471       0.41176471       0.35294118 </v>
   <v>       0.47058824       0.41176471       0.35294118 </v>
   <v>       0.47058824       0.47058824       0.35294118 </v>
   <v>       0.41176471       0.41176471       0.41176471 </v>
   <v>       0.47058824       0.41176471       0.41176471 </v>
   <v>       0.47058824       0.47058824       0.41176471 </v>
   <v>       0.47058824       0.47058824       0.47058824 </v>
  </varray>
  <varray name="weights" >
   <v>       0.00020354 </v>
   <v>       0.00122125 </v>
   <v>       0.00122125 </v>
   <v>       0.00122125 </v>
   <v>       0.00122125 </v>
   <v>       0.00122125 </v>
   <v>       0.00122125 </v>
   <v>       0.00122125 </v>
   <v>       0.00122125 </v>
   <v>       0.00244250 </v>
   <v>       0.00488500 </v>
   <v>       0.00488500 </v>
   <v>       0.00488500 </v>
   <v>       0.00488500 </v>
   <v>       0.00488500 </v>
   <v>       0.00488500 </v>
   <v>       0.00488500 </v>
   <v>       0.00244250 </v>
   <v>       0.00488500 </v>
   <v>       0.00488500 </v>
   <v>       0.00488500 </v>
   <v>       0.00488500 </v>
   <v>       0.00488500 </v>
   <v>       0.00488500 </v>
   <v>       0.00244250 </v>
   <v>       0.00488500 </v>
   <v>       0.00488500 </v>
   <v>       0.00488500 </v>
   <v>       0.00488500 </v>
   <v>       0.00488500 </v>
   <v>       0.00244250 </v>
   <v>       0.00488500 </v>
   <v>       0.00488500 </v>
   <v>       0.00488500 </v>
   <v>       0.00488500 </v>
   <v>       0.00244250 </v>
   <v>       0.00488500 </v>
   <v>       0.00488500 </v>
   <v>       0.00488500 </v>
   <v>       0.00244250 </v>
   <v>       0.00488500 </v>
   <v>       0.00488500 </v>
   <v>       0.00244250 </v>
   <v>       0.00488500 </v>
   <v>       0.00244250 </v>
   <v>       0.00162833 </v>
   <v>       0.00488500 </v>
   <v>       0.00488500 </v>
   <v>       0.00488500 </v>
   <v>       0.00488500 </v>
   <v>       0.00488500 </v>
   <v>       0.00488500 </v>
   <v>       0.00488500 </v>
   <v>       0.00488500 </v>
   <v>       0.00977000 </v>
   <v>       0.00977000 </v>
   <v>       0.00977000 </v>
   <v>       0.00977000 </v>
   <v>       0.00977000 </v>
   <v>       0.00977000 </v>
   <v>       0.00488500 </v>
   <v>       0.00977000 </v>
   <v>       0.00977000 </v>
   <v>       0.00977000 </v>
   <v>       0.00977000 </v>
   <v>       0.00977000 </v>
   <v>       0.00488500 </v>
   <v>       0.00977000 </v>
   <v>       0.00977000 </v>
   <v>       0.00977000 </v>
   <v>       0.00977000 </v>
   <v>       0.00488500 </v>
   <v>       0.00977000 </v>
   <v>       0.00977000 </v>
   <v>       0.00977000 </v>
   <v>       0.00488500 </v>
   <v>       0.00977000 </v>
   <v>       0.00977000 </v>
   <v>       0.00488500 </v>
   <v>       0.00977000 </v>
   <v>       0.00488500 </v>
   <v>       0.00162833 </v>
   <v>       0.00488500 </v>
   <v>       0.00488500 </v>
   <v>       0.00488500 </v>
   <v>       0.00488500 </v>
   <v>       0.00488500 </v>
   <v>       0.00488500 </v>
   <v>       0.00488500 </v>
   <v>       0.00977000 </v>
   <v>       0.00977000 </v>
   <v>       0.00977000 </v>
   <v>       0.00977000 </v>
   <v>       0.00977000 </v>
   <v>       0.00488500 </v>
   <v>       0.00977000 </v>
   <v>       0.00977000 </v>
   <v>       0.00977000 </v>
   <v>       0.00977000 </v>
   <v>       0.00488500 </v>
   <v>       0.00977000 </v>
   <v>       0.00977000 </v>
   <v>       0.00977000 </v>
   <v>       0.00488500 </v>
   <v>       0.00977000 </v>
   <v>       0.00977000 </v>
   <v>       0.00488500 </v>
   <v>       0.00977000 </v>
   <v>       0.00488500 </v>
   <v>       0.00162833 </v>
   <v>       0.00488500 </v>
   <v>       0.00488500 </v>
   <v>       0.00488500 </v>
   <v>       0.00488500 </v>
   <v>       0.00488500 </v>
   <v>       0.00488500 </v>
   <v>       0.00977000 </v>
   <v>       0.00977000 </v>
   <v>       0.00977000 </v>
   <v>       0.00977000 </v>
   <v>       0.00488500 </v>
   <v>       0.00977000 </v>
   <v>       0.00977000 </v>
   <v>       0.00977000 </v>
   <v>       0.00488500 </v>
   <v>       0.00977000 </v>
   <v>       0.00977000 </v>
   <v>       0.00488500 </v>
   <v>       0.00977000 </v>
   <v>       0.00488500 </v>
   <v>       0.00162833 </v>
   <v>       0.00488500 </v>
   <v>       0.00488500 </v>
   <v>       0.00488500 </v>
   <v>       0.00488500 </v>
   <v>       0.00488500 </v>
   <v>       0.00977000 </v>
   <v>       0.00977000 </v>
   <v>       0.00977000 </v>
   <v>       0.00488500 </v>
   <v>       0.00977000 </v>
   <v>       0.00977000 </v>
   <v>       0.00488500 </v>
   <v>       0.00977000 </v>
   <v>       0.00488500 </v>
   <v>       0.00162833 </v>
   <v>       0.00488500 </v>
   <v>       0.00488500 </v>
   <v>       0.00488500 </v>
   <v>       0.00488500 </v>
   <v>       0.00977000 </v>
   <v>       0.00977000 </v>
   <v>       0.00488500 </v>
   <v>       0.00977000 </v>
   <v>       0.00488500 </v>
   <v>       0.00162833 </v>
   <v>       0.00488500 </v>
   <v>       0.00488500 </v>
   <v>       0.00488500 </v>
   <v>       0.00977000 </v>
   <v>       0.00488500 </v>
   <v>       0.00162833 </v>
   <v>       0.00488500 </v>
   <v>       0.00488500 </v>
   <v>       0.00162833 </v>
  </varray>
 </kpoints>
 <parameters>
  <separator name="general" >
   <i type="string" name="SYSTEM">unknown system</i>
   <i type="logical" name="LCOMPAT"> F  </i>
  </separator>
  <separator name="electronic" >
   <i type="string" name="PREC">accura</i>
   <i name="ENMAX">    500.00000000</i>
   <i name="ENAUG">    412.49600000</i>
   <i name="EDIFF">      0.00000100</i>
   <i type="int" name="IALGO">    68</i>
   <i type="int" name="IWAVPR">    11</i>
   <i type="int" name="NBANDS">    28</i>
   <i name="NELECT">     44.00000000</i>
   <i type="int" name="TURBO">     0</i>
   <i type="int" name="IRESTART">     0</i>
   <i type="int" name="NREBOOT">     0</i>
   <i type="int" name="NMIN">     0</i>
   <i name="EREF">      0.00000000</i>
   <separator name="electronic smearing" >
    <i type="int" name="ISMEAR">     1</i>
    <i name="SIGMA">      0.30000000</i>
    <i name="KSPACING">      0.50000000</i>
    <i type="logical" name="KGAMMA"> T  </i>
   </separator>
   <separator name="electronic projectors" >
    <i type="logical" name="LREAL"> F  </i>
    <v name="ROPT">      0.00000000      0.00000000</v>
    <i type="int" name="LMAXPAW">  -100</i>
    <i type="int" name="LMAXMIX">     2</i>
    <i type="logical" name="NLSPLINE"> F  </i>
   </separator>
   <separator name="electronic startup" >
    <i type="int" name="ISTART">     0</i>
    <i type="int" name="ICHARG">     2</i>
    <i type="int" name="INIWAV">     1</i>
   </separator>
   <separator name="electronic spin" >
    <i type="int" name="ISPIN">     1</i>
    <i type="logical" name="LNONCOLLINEAR"> F  </i>
    <v name="MAGMOM">      1.00000000      1.00000000      1.00000000      1.00000000</v>
    <i name="NUPDOWN">     -1.00000000</i>
    <i type="logical" name="LSORBIT"> F  </i>
    <v name="SAXIS">      0.00000000      0.00000000      1.00000000</v>
    <i type="logical" name="LSPIRAL"> F  </i>
    <v name="QSPIRAL">      0.00000000      0.00000000      0.00000000</v>
    <i type="logical" name="LZEROZ"> F  </i>
   </separator>
   <separator name="electronic exchange-correlation" >
    <i type="logical" name="LASPH"> F  </i>
    <i type="logical" name="LMETAGGA"> F  </i>
   </separator>
   <separator name="electronic convergence" >
    <i type="int" name="NELM">   100</i>
    <i type="int" name="NELMDL">     0</i>
    <i type="int" name="NELMIN">     4</i>
    <i name="ENINI">    500.00000000</i>
    <separator name="electronic convergence detail" >
     <i type="logical" name="LDIAG"> T  </i>
     <i type="logical" name="LSUBROT"> F  </i>
     <i name="WEIMIN">      0.00100000</i>
     <i name="EBREAK">      0.00000001</i>
     <i name="DEPER">      0.30000000</i>
     <i type="int" name="NRMM">     4</i>
     <i name="TIME">      0.40000000</i>
    </separator>
   </separator>
   <separator name="electronic mixer" >
    <i name="AMIX">      0.40000000</i>
    <i name="BMIX">      1.00000000</i>
    <i name="AMIN">      0.10000000</i>
    <i name="AMIX_MAG">      1.60000000</i>
    <i name="BMIX_MAG">      1.00000000</i>
    <separator name="electronic mixer details" >
     <i type="int" name="IMIX">     4</i>
     <i type="int" name="MAXMIX">   -45</i>
     <i name="WC">    100.00000000</i>
     <i type="int" name="INIMIX">     1</i>
     <i type="int" name="MIXPRE">     1</i>
     <i type="int" name="MREMOVE">     5</i>
    </separator>
   </separator>
   <separator name="electronic dipolcorrection" >
    <i type="logical" name="LDIPOL"> F  </i>
    <i type="logical" name="LMONO"> F  </i>
    <i type="int" name="IDIPOL">     0</i>
    <i name="EPSILON">      1.00000000</i>
    <v name="DIPOL">   -100.00000000   -100.00000000   -100.00000000</v>
    <i name="EFIELD">      0.00000000</i>
   </separator>
  </separator>
  <separator name="grids" >
   <i type="int" name="NGX">    30</i>
   <i type="int" name="NGY">    30</i>
   <i type="int" name="NGZ">    30</i>
   <i type="int" name="NGXF">    60</i>
   <i type="int" name="NGYF">    60</i>
   <i type="int" name="NGZF">    60</i>
   <i type="logical" name="ADDGRID"> T  </i>
  </separator>
  <separator name="ionic" >
   <i type="int" name="NSW">    30</i>
   <i type="int" name="IBRION">     2</i>
   <i type="int" name="ISIF">     3</i>
   <i name="PSTRESS">      0.00000000</i>
   <i name="EDIFFG">     -0.02000000</i>
   <i type="int" name="NFREE">     1</i>
   <i name="POTIM">      0.50000000</i>
   <i name="SMASS">     -3.00000000</i>
   <i name="SCALEE">      1.00000000</i>
  </separator>
  <separator name="ionic md" >
   <i name="TEBEG">      0.00010000</i>
   <i name="TEEND">      0.00010000</i>
   <i type="int" name="NBLOCK">     1</i>
   <i type="int" name="KBLOCK">    30</i>
   <i type="int" name="NPACO">   256</i>
   <i name="APACO">     16.00000000</i>
  </separator>
  <separator name="symmetry" >
   <i type="int" name="ISYM">     2</i>
   <i name="SYMPREC">      0.00001000</i>
  </separator>
  <separator name="dos" >
   <i type="logical" name="LORBIT"> F  </i>
   <v name="RWIGS">     -1.00000000     -1.00000000</v>
   <i type="int" name="NEDOS">   301</i>
   <i name="EMIN">     10.00000000</i>
   <i name="EMAX">    -10.00000000</i>
   <i name="EFERMI">      0.00000000</i>
  </separator>
  <separator name="writing" >
   <i type="int" name="NWRITE">     2</i>
   <i type="logical" name="LWAVE"> F  </i>
   <i type="logical" name="LCHARG"> F  </i>
   <i type="logical" name="LPARD"> F  </i>
   <i type="logical" name="LVTOT"> F  </i>
   <i type="logical" name="LVHAR"> F  </i>
   <i type="logical" name="LELF"> F  </i>
   <i type="logical" name="LOPTICS"> F  </i>
   <v name="STM">      0.00000000      0.00000000      0.00000000      0.00000000      0.00000000      0.00000000      0.00000000</v>
  </separator>
  <separator name="performance" >
   <i type="int" name="NPAR">     4</i>
   <i type="int" name="NSIM">     4</i>
   <i type="int" name="NBLK">    -1</i>
   <i type="logical" name="LPLANE"> T  </i>
   <i type="logical" name="LSCALAPACK"> T  </i>
   <i type="logical" name="LSCAAWARE"> F  </i>
   <i type="logical" name="LSCALU"> F  </i>
   <i type="logical" name="LASYNC"> F  </i>
   <i type="logical" name="LORBITALREAL"> F  </i>
  </separator>
  <separator name="miscellaneous" >
   <i type="int" name="IDIOT">     3</i>
   <i type="logical" name="LMUSIC"> F  </i>
   <v name="POMASS">    107.86800000    196.96600000</v>
   <v name="DARWINR">      0.00000000      0.00000000</v>
   <v name="DARWINV">      1.00000000      1.00000000</v>
   <i type="logical" name="LCORR"> T  </i>
  </separator>
  <i type="logical" name="GGA_COMPAT"> T  </i>
  <i type="logical" name="LBERRY"> F  </i>
  <i type="int" name="ICORELEVEL">     0</i>
  <i type="logical" name="LDAU"> F  </i>
  <i type="int" name="I_CONSTRAINED_M">     0</i>
  <separator name="electronic exchange-correlation" >
   <i type="string" name="GGA">--</i>
   <i type="int" name="VOSKOWN">     0</i>
   <i type="logical" name="LHFCALC"> F  </i>
   <i type="string" name="PRECFOCK"></i>
   <i type="logical" name="LSYMGRAD"> F  </i>
   <i type="logical" name="LHFONE"> F  </i>
   <i type="logical" name="LRHFCALC"> F  </i>
   <i type="logical" name="LTHOMAS"> F  </i>
   <i type="logical" name="LMODELHF"> F  </i>
   <i name="ENCUT4O">     -1.00000000</i>
   <i type="int" name="EXXOEP">     0</i>
   <i type="int" name="FOURORBIT">     0</i>
   <i name="AEXX">      0.00000000</i>
   <i name="HFALPHA">      0.00000000</i>
   <i name="MCALPHA">      0.00000000</i>
   <i name="ALDAX">      1.00000000</i>
   <i name="AGGAX">      1.00000000</i>
   <i name="ALDAC">      1.00000000</i>
   <i name="AGGAC">      1.00000000</i>
   <i type="int" name="NKREDX">     1</i>
   <i type="int" name="NKREDY">     1</i>
   <i type="int" name="NKREDZ">     1</i>
   <i type="logical" name="SHIFTRED"> F  </i>
   <i type="logical" name="ODDONLY"> F  </i>
   <i type="logical" name="EVENONLY"> F  </i>
   <i type="int" name="LMAXFOCK">     0</i>
   <i type="int" name="NMAXFOCKAE">     0</i>
   <i type="logical" name="LFOCKAEDFT"> F  </i>
   <i name="HFSCREEN">      0.00000000</i>
   <i name="HFSCREENC">      0.00000000</i>
   <i type="int" name="NBANDSGWLOW">     0</i>
  </separator>
  <separator name="vdW DFT" >
   <i type="logical" name="LUSE_VDW"> F  </i>
   <i name="Zab_VDW">     -0.84910000</i>
   <i name="PARAM1">      0.12340000</i>
   <i name="PARAM2">      1.00000000</i>
   <i name="PARAM3">      0.00000000</i>
  </separator>
  <separator name="model GW" >
   <i type="int" name="MODEL_GW">     0</i>
   <i name="MODEL_EPS0">     10.69954720</i>
   <i name="MODEL_ALPHA">      1.00000000</i>
  </separator>
  <separator name="linear response parameters" >
   <i type="logical" name="LEPSILON"> F  </i>
   <i type="logical" name="LRPA"> F  </i>
   <i type="logical" name="LNABLA"> F  </i>
   <i type="logical" name="LVEL"> F  </i>
   <i type="int" name="KINTER">     0</i>
   <i name="CSHIFT">      0.10000000</i>
   <i name="OMEGAMAX">     -1.00000000</i>
   <i name="DEG_THRESHOLD">      0.00200000</i>
  </separator>
  <separator name="orbital magnetization" >
   <i type="logical" name="NUCIND"> F  </i>
   <v name="MAGPOS">      0.00000000      0.00000000      0.00000000</v>
   <i type="logical" name="LNICSALL"> T  </i>
   <i type="logical" name="ORBITALMAG"> F  </i>
   <i type="logical" name="LMAGBLOCH"> F  </i>
   <i type="logical" name="LCHIMAG"> F  </i>
   <i type="logical" name="LGAUGE"> T  </i>
   <i type="int" name="MAGATOM">     0</i>
   <v name="MAGDIPOL">      0.00000000      0.00000000      0.00000000</v>
   <v name="AVECCONST">      0.00000000      0.00000000      0.00000000</v>
  </separator>
  <separator name="response functions" >
   <i type="logical" name="LADDER"> F  </i>
   <i type="logical" name="LFXC"> F  </i>
   <i type="logical" name="LHARTREE"> T  </i>
   <i type="int" name="IBSE">     0</i>
   <i type="logical" name="LTCTE"> F  </i>
   <i type="logical" name="LTETE"> F  </i>
   <i type="logical" name="LTRIPLET"> F  </i>
   <i type="logical" name="LFXCEPS"> F  </i>
   <i type="logical" name="LFXHEG"> F  </i>
   <i type="logical" name="L2ORDER"> F  </i>
   <i type="logical" name="LUSEW"> F  </i>
   <i name="ENCUTGW">     -2.00000000</i>
   <i name="ENCUTGWSOFT">     -2.00000000</i>
   <i name="ENCUTLF">     -1.00000000</i>
   <i type="int" name="LMAXMP2">    -1</i>
   <i name="SCISSOR">      0.00000000</i>
   <i type="int" name="NOMEGA">     0</i>
   <i type="int" name="NOMEGAR">     0</i>
   <i type="int" name="NBANDSGW">    -1</i>
   <i type="int" name="NBANDSO">    -1</i>
   <i type="int" name="NBANDSV">    -1</i>
   <i type="int" name="NELM">   100</i>
   <i type="int" name="DIM">     3</i>
   <i type="int" name="ANTIRES">     0</i>
   <i name="OMEGAMAX">    -30.00000000</i>
   <i name="OMEGAMIN">    -30.00000000</i>
   <i name="OMEGATL">   -200.00000000</i>
   <i type="int" name="OMEGAGRID">     0</i>
   <i name="CSHIFT">     -0.10000000</i>
   <i type="logical" name="SELFENERGY"> F  </i>
   <i type="logical" name="LSPECTRAL"> F  </i>
   <i type="logical" name="ODDONLYGW"> F  </i>
   <i type="logical" name="EVENONLYGW"> F  </i>
   <i type="int" name="NKREDLFX">     1</i>
   <i type="int" name="NKREDLFY">     1</i>
   <i type="int" name="NKREDLFZ">     1</i>
   <i type="int" name="MAXMEM">  1800</i>
   <i type="int" name="TELESCOPE">     0</i>
   <i type="int" name="TAUPAR">     1</i>
  </separator>
  <separator name="External order field" >
   <i name="OFIELD_KAPPA">      0.00000000</i>
   <v name="OFIELD_K">      0.00000000      0.00000000      0.00000000</v>
   <i name="OFIELD_Q6_NEAR">      0.00000000</i>
   <i name="OFIELD_Q6_FAR">      0.00000000</i>
   <i name="OFIELD_A">      0.00000000</i>
  </separator>
 </parameters>
 <atominfo>
  <atoms>       4 </atoms>
  <types>       2 </types>
  <array name="atoms" >
   <dimension dim="1">ion</dimension>
   <field type="string">element</field>
   <field type="int">atomtype</field>
   <set>
    <rc><c>Ag</c><c>   1</c></rc>
    <rc><c>Ag</c><c>   1</c></rc>
    <rc><c>Ag</c><c>   1</c></rc>
    <rc><c>Au</c><c>   2</c></rc>
   </set>
  </array>
  <array name="atomtypes" >
   <dimension dim="1">type</dimension>
   <field type="int">atomspertype</field>
   <field type="string">element</field>
   <field>mass</field>
   <field>valence</field>
   <field type="string">pseudopotential</field>
   <set>
    <rc><c>   3</c><c>Ag</c><c>    107.86800000</c><c>     11.00000000</c><c>  PAW_PBE Ag 02Apr2005                  </c></rc>
    <rc><c>   1</c><c>Au</c><c>    196.96600000</c><c>     11.00000000</c><c>  PAW_PBE Au 04Oct2007                  </c></rc>
   </set>
  </array>
 </atominfo>
 <structure name="initialpos" >
  <crystal>
   <varray name="basis" >
    <v>       0.00000000       4.14722929       0.00000000 </v>
    <v>       0.00000000       0.00000000       4.14722929 </v>
    <v>       4.14722929       0.00000000       0.00000000 </v>
   </varray>
   <i name="volume">     71.33031467 </i>
   <varray name="rec_basis" >
    <v>       0.00000000       0.24112484       0.00000000 </v>
    <v>       0.00000000       0.00000000       0.24112484 </v>
    <v>       0.24112484       0.00000000       0.00000000 </v>
   </varray>
  </crystal>
  <varray name="positions" >
   <v>       0.00000000       0.50000000       0.50000000 </v>
   <v>       0.50000000       0.00000000       0.50000000 </v>
   <v>       0.50000000       0.50000000       0.00000000 </v>
   <v>       0.00000000       0.00000000       0.00000000 </v>
  </varray>
 </structure>
 <calculation>
  <scstep>
   <time name="dav">    1.02    1.02</time>
   <time name="total">    1.05    1.06</time>
   <energy>
    <i name="alphaZ">    208.41238534 </i>
    <i name="ewald">  -3852.47361038 </i>
    <i name="hartreedc">   -758.13747712 </i>
    <i name="XCdc">    -16.10611800 </i>
    <i name="pawpsdc">   3884.48395133 </i>
    <i name="pawaedc">  -3723.05795752 </i>
    <i name="eentropy">     -0.00764801 </i>
    <i name="bandstr">    507.44010034 </i>
    <i name="atom">   4037.86939086 </i>
    <i name="e_fr_energy">    288.42301685 </i>
    <i name="e_wo_entrp">    288.43066486 </i>
    <i name="e_0_energy">    288.42556619 </i>
   </energy>
  </scstep>
  <scstep>
   <time name="dav">    1.07    1.07</time>
   <time name="total">    1.08    1.09</time>
   <energy>
    <i name="e_fr_energy">     -5.73559816 </i>
    <i name="e_wo_entrp">     -5.73449742 </i>
    <i name="e_0_energy">     -5.73523125 </i>
   </energy>
  </scstep>
  <scstep>
   <time name="dav">    1.09    1.09</time>
   <time name="total">    1.10    1.11</time>
   <energy>
    <i name="e_fr_energy">    -12.51477598 </i>
    <i name="e_wo_entrp">    -12.51488737 </i>
    <i name="e_0_energy">    -12.51481311 </i>
   </energy>
  </scstep>
  <scstep>
   <time name="dav">    1.07    1.07</time>
   <time name="total">    1.07    1.09</time>
   <energy>
    <i name="e_fr_energy">    -12.55047642 </i>
    <i name="e_wo_entrp">    -12.55061481 </i>
    <i name="e_0_energy">    -12.55052255 </i>
   </energy>
  </scstep>
  <scstep>
   <time name="dav">    1.08    1.08</time>
   <time name="total">    1.16    1.17</time>
   <energy>
    <i name="e_fr_energy">    -12.55077776 </i>
    <i name="e_wo_entrp">    -12.55091618 </i>
    <i name="e_0_energy">    -12.55082390 </i>
   </energy>
  </scstep>
  <scstep>
   <time name="diag">    0.29    0.29</time>
   <time name="diis">    0.37    0.37</time>
   <time name="orth">    0.05    0.05</time>
   <time name="total">    0.81    0.82</time>
   <energy>
    <i name="e_fr_energy">    -11.59830521 </i>
    <i name="e_wo_entrp">    -11.59709302 </i>
    <i name="e_0_energy">    -11.59790115 </i>
   </energy>
  </scstep>
  <scstep>
   <time name="diag">    0.29    0.29</time>
   <time name="diis">    0.36    0.36</time>
   <time name="orth">    0.05    0.05</time>
   <time name="total">    0.80    0.82</time>
   <energy>
    <i name="e_fr_energy">    -11.56398723 </i>
    <i name="e_wo_entrp">    -11.56270596 </i>
    <i name="e_0_energy">    -11.56356014 </i>
   </energy>
  </scstep>
  <scstep>
   <time name="diag">    0.29    0.29</time>
   <time name="diis">    0.36    0.36</time>
   <time name="orth">    0.05    0.05</time>
   <time name="total">    0.80    0.82</time>
   <energy>
    <i name="e_fr_energy">    -11.55433492 </i>
    <i name="e_wo_entrp">    -11.55299001 </i>
    <i name="e_0_energy">    -11.55388662 </i>
   </energy>
  </scstep>
  <scstep>
   <time name="diag">    0.29    0.29</time>
   <time name="diis">    0.37    0.37</time>
   <time name="orth">    0.05    0.05</time>
   <time name="total">    0.81    0.83</time>
   <energy>
    <i name="e_fr_energy">    -11.55426842 </i>
    <i name="e_wo_entrp">    -11.55293536 </i>
    <i name="e_0_energy">    -11.55382406 </i>
   </energy>
  </scstep>
  <scstep>
   <time name="diag">    0.29    0.29</time>
   <time name="diis">    0.36    0.36</time>
   <time name="orth">    0.05    0.05</time>
   <time name="total">    0.81    0.82</time>
   <energy>
    <i name="e_fr_energy">    -11.55427714 </i>
    <i name="e_wo_entrp">    -11.55294553 </i>
    <i name="e_0_energy">    -11.55383327 </i>
   </energy>
  </scstep>
  <scstep>
   <time name="diag">    0.29    0.29</time>
   <time name="diis">    0.30    0.30</time>
   <time name="orth">    0.05    0.05</time>
   <time name="total">    0.74    0.76</time>
   <energy>
    <i name="e_fr_energy">    -11.55428162 </i>
    <i name="e_wo_entrp">    -11.55295100 </i>
    <i name="e_0_energy">    -11.55383808 </i>
   </energy>
  </scstep>
  <scstep>
   <time name="diag">    0.29    0.29</time>
   <time name="diis">    0.23    0.23</time>
   <time name="orth">    0.05    0.05</time>
   <time name="total">    0.60    0.61</time>
   <energy>
    <i name="alphaZ">    208.41238534 </i>
    <i name="ewald">  -3852.47361038 </i>
    <i name="hartreedc">   -710.35343752 </i>
    <i name="XCdc">    -17.95143896 </i>
    <i name="pawpsdc">   4322.16697633 </i>
    <i name="pawaedc">  -4170.45871201 </i>
    <i name="eentropy">     -0.00133135 </i>
    <i name="bandstr">    171.23549603 </i>
    <i name="atom">   4037.86939086 </i>
    <i name="e_fr_energy">    -11.55428166 </i>
    <i name="e_wo_entrp">    -11.55295031 </i>
    <i name="e_0_energy">    -11.55383788 </i>
   </energy>
  </scstep>
  <structure>
   <crystal>
    <varray name="basis" >
     <v>       0.00000000       4.14722929       0.00000000 </v>
     <v>       0.00000000       0.00000000       4.14722929 </v>
     <v>       4.14722929       0.00000000       0.00000000 </v>
    </varray>
    <i name="volume">     71.33031467 </i>
    <varray name="rec_basis" >
     <v>       0.00000000       0.24112484       0.00000000 </v>
     <v>       0.00000000       0.00000000       0.24112484 </v>
     <v>       0.24112484       0.00000000       0.00000000 </v>
    </varray>
   </crystal>
   <varray name="positions" >
    <v>       0.00000000       0.50000000       0.50000000 </v>
    <v>       0.50000000       0.00000000       0.50000000 </v>
    <v>       0.50000000       0.50000000       0.00000000 </v>
    <v>       0.00000000       0.00000000       0.00000000 </v>
   </varray>
  </structure>
  <varray name="forces" >
   <v>       0.00000000       0.00000000       0.00000000 </v>
   <v>       0.00000000       0.00000000       0.00000000 </v>
   <v>       0.00000000       0.00000000       0.00000000 </v>
   <v>       0.00000000       0.00000000       0.00000000 </v>
  </varray>
  <varray name="stress" >
   <v>      -1.66245981       0.00000000       0.00000000 </v>
   <v>       0.00000000      -1.66245981       0.00000000 </v>
   <v>       0.00000000       0.00000000      -1.66245981 </v>
  </varray>
  <energy>
   <i name="e_fr_energy">    -11.55428166 </i>
   <i name="e_wo_entrp">    -11.55383788 </i>
   <i name="e_0_energy">     -0.00133135 </i>
  </energy>
  <time name="totalsc">   11.71   11.89</time>
  <eigenvalues>
   <array>
    <dimension dim="1">band</dimension>
    <dimension dim="2">kpoint</dimension>
    <dimension dim="3">spin</dimension>
    <field>eigene</field>
    <field>occ</field>
    <set>
     <set comment="spin 1">
      <set comment="kpoint 1">
       <r>    0.0455    1.0000 </r>
       <r>    1.7983    1.0000 </r>
       <r>    1.7986    1.0000 </r>
       <r>    1.7986    1.0000 </r>
       <r>    1.9498    1.0000 </r>
       <r>    1.9498    1.0000 </r>
       <r>    1.9498    1.0000 </r>
       <r>    3.4423    1.0000 </r>
       <r>    3.4423    1.0000 </r>
       <r>    3.4423    1.0000 </r>
       <r>    4.4499    1.0000 </r>
       <r>    4.4499    1.0000 </r>
       <r>    5.0814    1.0000 </r>
       <r>    5.2817    1.0000 </r>
       <r>    5.2817    1.0000 </r>
       <r>    5.2817    1.0000 </r>
       <r>    5.4593    1.0000 </r>
       <r>    5.4593    1.0000 </r>
       <r>    5.8328    1.0000 </r>
       <r>    5.8328    1.0000 </r>
       <r>    5.8328    1.0000 </r>
       <r>    9.5737    0.0000 </r>
       <r>    9.5737    0.0000 </r>
       <r>    9.5737    0.0000 </r>
       <r>   13.1427    0.0000 </r>
       <r>   14.8892    0.0000 </r>
       <r>   14.8892    0.0000 </r>
       <r>   18.3150    0.0000 </r>
      </set>
      <set comment="kpoint 2">
       <r>    0.0811    1.0000 </r>
       <r>    1.8127    1.0000 </r>
       <r>    1.8182    1.0000 </r>
       <r>    1.8188    1.0000 </r>
       <r>    1.9611    1.0000 </r>
       <r>    1.9670    1.0000 </r>
       <r>    1.9670    1.0000 </r>
       <r>    3.4279    1.0000 </r>
       <r>    3.4553    1.0000 </r>
       <r>    3.4553    1.0000 </r>
       <r>    4.4355    1.0000 </r>
       <r>    4.4553    1.0000 </r>
       <r>    5.0673    1.0000 </r>
       <r>    5.2375    1.0000 </r>
       <r>    5.2375    1.0000 </r>
       <r>    5.2817    1.0000 </r>
       <r>    5.4394    1.0000 </r>
       <r>    5.4466    1.0000 </r>
       <r>    5.7758    1.0000 </r>
       <r>    5.7758    1.0000 </r>
       <r>    5.8325    1.0000 </r>
       <r>    9.3016    0.0000 </r>
       <r>    9.6795    0.0000 </r>
       <r>    9.6795    0.0000 </r>
       <r>   13.2687    0.0000 </r>
       <r>   14.8821    0.0000 </r>
       <r>   15.0912    0.0000 </r>
       <r>   18.2447    0.0000 </r>
      </set>
      <set comment="kpoint 3">
       <r>    0.1873    1.0000 </r>
       <r>    1.8543    1.0000 </r>
       <r>    1.8755    1.0000 </r>
       <r>    1.8784    1.0000 </r>
       <r>    1.9947    1.0000 </r>
       <r>    2.0188    1.0000 </r>
       <r>    2.0188    1.0000 </r>
       <r>    3.3856    1.0000 </r>
       <r>    3.4943    1.0000 </r>
       <r>    3.4943    1.0000 </r>
       <r>    4.3936    1.0000 </r>
       <r>    4.4712    1.0000 </r>
       <r>    5.0243    1.0000 </r>
       <r>    5.1023    1.0000 </r>
       <r>    5.1023    1.0000 </r>
       <r>    5.2818    1.0000 </r>
       <r>    5.3805    1.0000 </r>
       <r>    5.4105    1.0000 </r>
       <r>    5.6319    1.0000 </r>
       <r>    5.6319    1.0000 </r>
       <r>    5.8318    1.0000 </r>
       <r>    8.6517   -0.0077 </r>
       <r>    9.9742    0.0000 </r>
       <r>    9.9742    0.0000 </r>
       <r>   13.4671    0.0000 </r>
       <r>   14.8613    0.0000 </r>
       <r>   15.7109    0.0000 </r>
       <r>   17.9140    0.0000 </r>
      </set>
      <set comment="kpoint 4">
       <r>    0.3609    1.0000 </r>
       <r>    1.9203    1.0000 </r>
       <r>    1.9671    1.0000 </r>
       <r>    1.9734    1.0000 </r>
       <r>    2.0500    1.0000 </r>
       <r>    2.1049    1.0000 </r>
       <r>    2.1049    1.0000 </r>
       <r>    3.3172    1.0000 </r>
       <r>    3.5585    1.0000 </r>
       <r>    3.5585    1.0000 </r>
       <r>    4.3281    1.0000 </r>
       <r>    4.4966    1.0000 </r>
       <r>    4.8789    1.0000 </r>
       <r>    4.8789    1.0000 </r>
       <r>    4.9512    1.0000 </r>
       <r>    5.2819    1.0000 </r>
       <r>    5.2858    1.0000 </r>
       <r>    5.3575    1.0000 </r>
       <r>    5.4511    1.0000 </r>
       <r>    5.4511    1.0000 </r>
       <r>    5.8307    1.0000 </r>
       <r>    7.8539    0.9409 </r>
       <r>   10.4100    0.0000 </r>
       <r>   10.4100    0.0000 </r>
       <r>   13.5886    0.0000 </r>
       <r>   14.8284    0.0000 </r>
       <r>   16.6630    0.0000 </r>
       <r>   17.4882    0.0000 </r>
      </set>
      <set comment="kpoint 5">
       <r>    0.5962    1.0000 </r>
       <r>    2.0049    1.0000 </r>
       <r>    2.0867    1.0000 </r>
       <r>    2.0966    1.0000 </r>
       <r>    2.1254    1.0000 </r>
       <r>    2.2250    1.0000 </r>
       <r>    2.2250    1.0000 </r>
       <r>    3.2259    1.0000 </r>
       <r>    3.6463    1.0000 </r>
       <r>    3.6463    1.0000 </r>
       <r>    4.2462    1.0000 </r>
       <r>    4.5289    1.0000 </r>
       <r>    4.5909    1.0000 </r>
       <r>    4.5909    1.0000 </r>
       <r>    4.8497    1.0000 </r>
       <r>    5.1615    1.0000 </r>
       <r>    5.2606    1.0000 </r>
       <r>    5.2606    1.0000 </r>
       <r>    5.2821    1.0000 </r>
       <r>    5.2956    1.0000 </r>
       <r>    5.8294    1.0000 </r>
       <r>    7.0298    1.0000 </r>
       <r>   10.9428    0.0000 </r>
       <r>   10.9428    0.0000 </r>
       <r>   13.6509    0.0000 </r>
       <r>   14.7864    0.0000 </r>
       <r>   16.9833    0.0000 </r>
       <r>   16.9839    0.0000 </r>
      </set>
      <set comment="kpoint 6">
       <r>    0.8822    1.0000 </r>
       <r>    2.0990    1.0000 </r>
       <r>    2.2191    1.0000 </r>
       <r>    2.2239    1.0000 </r>
       <r>    2.2365    1.0000 </r>
       <r>    2.3787    1.0000 </r>
       <r>    2.3787    1.0000 </r>
       <r>    3.1158    1.0000 </r>
       <r>    3.7537    1.0000 </r>
       <r>    3.7537    1.0000 </r>
       <r>    4.1600    1.0000 </r>
       <r>    4.2740    1.0000 </r>
       <r>    4.2740    1.0000 </r>
       <r>    4.5612    1.0000 </r>
       <r>    4.7311    1.0000 </r>
       <r>    5.0176    1.0000 </r>
       <r>    5.0655    1.0000 </r>
       <r>    5.0655    1.0000 </r>
       <r>    5.2318    1.0000 </r>
       <r>    5.2823    1.0000 </r>
       <r>    5.8281    1.0000 </r>
       <r>    6.2395    1.0000 </r>
       <r>   11.5416    0.0000 </r>
       <r>   11.5416    0.0000 </r>
       <r>   13.6852    0.0000 </r>
       <r>   14.7399    0.0000 </r>
       <r>   16.3672    0.0000 </r>
       <r>   16.3681    0.0000 </r>
      </set>
      <set comment="kpoint 7">
       <r>    1.1975    1.0000 </r>
       <r>    2.1883    1.0000 </r>
       <r>    2.3287    1.0000 </r>
       <r>    2.3633    1.0000 </r>
       <r>    2.3761    1.0000 </r>
       <r>    2.5651    1.0000 </r>
       <r>    2.5651    1.0000 </r>
       <r>    2.9915    1.0000 </r>
       <r>    3.8390    1.0000 </r>
       <r>    3.8390    1.0000 </r>
       <r>    3.9925    1.0000 </r>
       <r>    3.9925    1.0000 </r>
       <r>    4.0900    1.0000 </r>
       <r>    4.5458    1.0000 </r>
       <r>    4.6547    1.0000 </r>
       <r>    4.8685    1.0000 </r>
       <r>    4.8690    1.0000 </r>
       <r>    4.8690    1.0000 </r>
       <r>    5.1721    1.0000 </r>
       <r>    5.2825    1.0000 </r>
       <r>    5.5248    1.0000 </r>
       <r>    5.8270    1.0000 </r>
       <r>   12.1846    0.0000 </r>
       <r>   12.1846    0.0000 </r>
       <r>   13.7067    0.0000 </r>
       <r>   14.6953    0.0000 </r>
       <r>   15.7052    0.0000 </r>
       <r>   15.7052    0.0000 </r>
      </set>
      <set comment="kpoint 8">
       <r>    1.4998    1.0000 </r>
       <r>    2.2532    1.0000 </r>
       <r>    2.4511    1.0000 </r>
       <r>    2.4823    1.0000 </r>
       <r>    2.4926    1.0000 </r>
       <r>    2.7830    1.0000 </r>
       <r>    2.7830    1.0000 </r>
       <r>    2.8580    1.0000 </r>
       <r>    3.6028    1.0000 </r>
       <r>    3.6028    1.0000 </r>
       <r>    4.0547    1.0000 </r>
       <r>    4.0547    1.0000 </r>
       <r>    4.0699    1.0000 </r>
       <r>    4.4502    1.0000 </r>
       <r>    4.6710    1.0000 </r>
       <r>    4.6792    1.0000 </r>
       <r>    4.6792    1.0000 </r>
       <r>    4.7177    1.0000 </r>
       <r>    4.9465    1.0000 </r>
       <r>    5.1230    1.0000 </r>
       <r>    5.2826    1.0000 </r>
       <r>    5.8261    1.0000 </r>
       <r>   12.8534    0.0000 </r>
       <r>   12.8534    0.0000 </r>
       <r>   13.7206    0.0000 </r>
       <r>   14.6598    0.0000 </r>
       <r>   15.0210    0.0000 </r>
       <r>   15.0210    0.0000 </r>
      </set>
      <set comment="kpoint 9">
       <r>    1.7064    1.0000 </r>
       <r>    2.2785    1.0000 </r>
       <r>    2.5529    1.0000 </r>
       <r>    2.5600    1.0000 </r>
       <r>    2.5826    1.0000 </r>
       <r>    2.7206    1.0000 </r>
       <r>    3.0293    1.0000 </r>
       <r>    3.0293    1.0000 </r>
       <r>    3.3097    1.0000 </r>
       <r>    3.3097    1.0000 </r>
       <r>    4.1467    1.0000 </r>
       <r>    4.1809    1.0000 </r>
       <r>    4.1809    1.0000 </r>
       <r>    4.3834    1.0000 </r>
       <r>    4.4327    1.0000 </r>
       <r>    4.5245    1.0000 </r>
       <r>    4.5245    1.0000 </r>
       <r>    4.6910    1.0000 </r>
       <r>    4.7211    1.0000 </r>
       <r>    5.0940    1.0000 </r>
       <r>    5.2826    1.0000 </r>
       <r>    5.8257    1.0000 </r>
       <r>   13.5066    0.0000 </r>
       <r>   13.5066    0.0000 </r>
       <r>   13.7279    0.0000 </r>
       <r>   14.3592    0.0000 </r>
       <r>   14.3592    0.0000 </r>
       <r>   14.6402    0.0000 </r>
      </set>
      <set comment="kpoint 10">
       <r>    0.1166    1.0000 </r>
       <r>    1.8313    1.0000 </r>
       <r>    1.8342    1.0000 </r>
       <r>    1.8366    1.0000 </r>
       <r>    1.9777    1.0000 </r>
       <r>    1.9788    1.0000 </r>
       <r>    1.9856    1.0000 </r>
       <r>    3.4220    1.0000 </r>
       <r>    3.4602    1.0000 </r>
       <r>    3.4679    1.0000 </r>
       <r>    4.4312    1.0000 </r>
       <r>    4.4512    1.0000 </r>
       <r>    5.0508    1.0000 </r>
       <r>    5.1964    1.0000 </r>
       <r>    5.2097    1.0000 </r>
       <r>    5.2633    1.0000 </r>
       <r>    5.4252    1.0000 </r>
       <r>    5.4279    1.0000 </r>
       <r>    5.7174    1.0000 </r>
       <r>    5.7502    1.0000 </r>
       <r>    5.8061    1.0000 </r>
       <r>    9.3738    0.0000 </r>
       <r>    9.4373    0.0000 </r>
       <r>    9.7821    0.0000 </r>
       <r>   13.4073    0.0000 </r>
       <r>   14.9880    0.0000 </r>
       <r>   15.1707    0.0000 </r>
       <r>   17.8394    0.0000 </r>
      </set>
      <set comment="kpoint 11">
       <r>    0.2220    1.0000 </r>
       <r>    1.8741    1.0000 </r>
       <r>    1.8899    1.0000 </r>
       <r>    1.8923    1.0000 </r>
       <r>    2.0115    1.0000 </r>
       <r>    2.0297    1.0000 </r>
       <r>    2.0411    1.0000 </r>
       <r>    3.3844    1.0000 </r>
       <r>    3.4951    1.0000 </r>
       <r>    3.5054    1.0000 </r>
       <r>    4.3938    1.0000 </r>
       <r>    4.4642    1.0000 </r>
       <r>    4.9919    1.0000 </r>
       <r>    5.0795    1.0000 </r>
       <r>    5.0806    1.0000 </r>
       <r>    5.2542    1.0000 </r>
       <r>    5.3686    1.0000 </r>
       <r>    5.3835    1.0000 </r>
       <r>    5.5749    1.0000 </r>
       <r>    5.6278    1.0000 </r>
       <r>    5.7958    1.0000 </r>
       <r>    8.7518   -0.0023 </r>
       <r>    9.6949    0.0000 </r>
       <r>   10.0691    0.0000 </r>
       <r>   13.6246    0.0000 </r>
       <r>   15.0144    0.0000 </r>
       <r>   15.7293    0.0000 </r>
       <r>   17.3283    0.0000 </r>
      </set>
      <set comment="kpoint 12">
       <r>    0.3946    1.0000 </r>
       <r>    1.9404    1.0000 </r>
       <r>    1.9759    1.0000 </r>
       <r>    1.9861    1.0000 </r>
       <r>    2.0662    1.0000 </r>
       <r>    2.1152    1.0000 </r>
       <r>    2.1326    1.0000 </r>
       <r>    3.3178    1.0000 </r>
       <r>    3.5583    1.0000 </r>
       <r>    3.5666    1.0000 </r>
       <r>    4.3302    1.0000 </r>
       <r>    4.4900    1.0000 </r>
       <r>    4.8212    1.0000 </r>
       <r>    4.8574    1.0000 </r>
       <r>    4.9603    1.0000 </r>
       <r>    5.2483    1.0000 </r>
       <r>    5.2729    1.0000 </r>
       <r>    5.2941    1.0000 </r>
       <r>    5.4251    1.0000 </r>
       <r>    5.4602    1.0000 </r>
       <r>    5.7947    1.0000 </r>
       <r>    7.9585    0.7421 </r>
       <r>   10.1121    0.0000 </r>
       <r>   10.4962    0.0000 </r>
       <r>   13.7558    0.0000 </r>
       <r>   14.9884    0.0000 </r>
       <r>   16.6659    0.0000 </r>
       <r>   16.7791    0.0000 </r>
      </set>
      <set comment="kpoint 13">
       <r>    0.6283    1.0000 </r>
       <r>    2.0255    1.0000 </r>
       <r>    2.0895    1.0000 </r>
       <r>    2.1082    1.0000 </r>
       <r>    2.1408    1.0000 </r>
       <r>    2.2345    1.0000 </r>
       <r>    2.2577    1.0000 </r>
       <r>    3.2281    1.0000 </r>
       <r>    3.6459    1.0000 </r>
       <r>    3.6492    1.0000 </r>
       <r>    4.2514    1.0000 </r>
       <r>    4.5156    1.0000 </r>
       <r>    4.5548    1.0000 </r>
       <r>    4.5734    1.0000 </r>
       <r>    4.8508    1.0000 </r>
       <r>    5.1220    1.0000 </r>
       <r>    5.1608    1.0000 </r>
       <r>    5.2145    1.0000 </r>
       <r>    5.3065    1.0000 </r>
       <r>    5.3250    1.0000 </r>
       <r>    5.7944    1.0000 </r>
       <r>    7.1442    1.0001 </r>
       <r>   10.6149    0.0000 </r>
       <r>   11.0214    0.0000 </r>
       <r>   13.8222    0.0000 </r>
       <r>   14.9441    0.0000 </r>
       <r>   16.2278    0.0000 </r>
       <r>   17.0430    0.0000 </r>
      </set>
      <set comment="kpoint 14">
       <r>    0.9122    1.0000 </r>
       <r>    2.1203    1.0000 </r>
       <r>    2.2236    1.0000 </r>
       <r>    2.2336    1.0000 </r>
       <r>    2.2477    1.0000 </r>
       <r>    2.3871    1.0000 </r>
       <r>    2.4121    1.0000 </r>
       <r>    3.1196    1.0000 </r>
       <r>    3.7453    1.0000 </r>
       <r>    3.7533    1.0000 </r>
       <r>    4.1674    1.0000 </r>
       <r>    4.2418    1.0000 </r>
       <r>    4.2614    1.0000 </r>
       <r>    4.5576    1.0000 </r>
       <r>    4.7288    1.0000 </r>
       <r>    4.9289    1.0000 </r>
       <r>    5.0189    1.0000 </r>
       <r>    5.0571    1.0000 </r>
       <r>    5.2472    1.0000 </r>
       <r>    5.2694    1.0000 </r>
       <r>    5.7939    1.0000 </r>
       <r>    6.3723    1.0000 </r>
       <r>   11.1677    0.0000 </r>
       <r>   11.6139    0.0000 </r>
       <r>   13.8533    0.0000 </r>
       <r>   14.8782    0.0000 </r>
       <r>   15.7187    0.0000 </r>
       <r>   16.4233    0.0000 </r>
      </set>
      <set comment="kpoint 15">
       <r>    1.2253    1.0000 </r>
       <r>    2.2105    1.0000 </r>
       <r>    2.3421    1.0000 </r>
       <r>    2.3654    1.0000 </r>
       <r>    2.3881    1.0000 </r>
       <r>    2.5721    1.0000 </r>
       <r>    2.5917    1.0000 </r>
       <r>    2.9969    1.0000 </r>
       <r>    3.8102    1.0000 </r>
       <r>    3.8374    1.0000 </r>
       <r>    3.9393    1.0000 </r>
       <r>    3.9858    1.0000 </r>
       <r>    4.1416    1.0000 </r>
       <r>    4.5425    1.0000 </r>
       <r>    4.6229    1.0000 </r>
       <r>    4.7397    1.0000 </r>
       <r>    4.8651    1.0000 </r>
       <r>    4.8769    1.0000 </r>
       <r>    5.1756    1.0000 </r>
       <r>    5.2646    1.0000 </r>
       <r>    5.6916    1.0000 </r>
       <r>    5.7934    1.0000 </r>
       <r>   11.7422    0.0000 </r>
       <r>   12.2521    0.0000 </r>
       <r>   13.8491    0.0000 </r>
       <r>   14.7636    0.0000 </r>
       <r>   15.3008    0.0000 </r>
       <r>   15.7606    0.0000 </r>
      </set>
      <set comment="kpoint 16">
       <r>    1.5259    1.0000 </r>
       <r>    2.2760    1.0000 </r>
       <r>    2.4632    1.0000 </r>
       <r>    2.4909    1.0000 </r>
       <r>    2.5061    1.0000 </r>
       <r>    2.7881    1.0000 </r>
       <r>    2.7962    1.0000 </r>
       <r>    2.8652    1.0000 </r>
       <r>    3.5797    1.0000 </r>
       <r>    3.6000    1.0000 </r>
       <r>    3.9227    1.0000 </r>
       <r>    4.0535    1.0000 </r>
       <r>    4.1942    1.0000 </r>
       <r>    4.4290    1.0000 </r>
       <r>    4.4670    1.0000 </r>
       <r>    4.6763    1.0000 </r>
       <r>    4.6807    1.0000 </r>
       <r>    4.7649    1.0000 </r>
       <r>    5.0772    1.0000 </r>
       <r>    5.1944    1.0000 </r>
       <r>    5.2632    1.0000 </r>
       <r>    5.7930    1.0000 </r>
       <r>   12.3051    0.0000 </r>
       <r>   12.9174    0.0000 </r>
       <r>   13.7680    0.0000 </r>
       <r>   14.5616    0.0000 </r>
       <r>   15.0672    0.0000 </r>
       <r>   15.0764    0.0000 </r>
      </set>
      <set comment="kpoint 17">
       <r>    1.7317    1.0000 </r>
       <r>    2.3013    1.0000 </r>
       <r>    2.5674    1.0000 </r>
       <r>    2.5741    1.0000 </r>
       <r>    2.5932    1.0000 </r>
       <r>    2.7294    1.0000 </r>
       <r>    3.0276    1.0000 </r>
       <r>    3.0322    1.0000 </r>
       <r>    3.2960    1.0000 </r>
       <r>    3.3100    1.0000 </r>
       <r>    3.9816    1.0000 </r>
       <r>    4.1806    1.0000 </r>
       <r>    4.2065    1.0000 </r>
       <r>    4.3449    1.0000 </r>
       <r>    4.3887    1.0000 </r>
       <r>    4.5214    1.0000 </r>
       <r>    4.6118    1.0000 </r>
       <r>    4.7302    1.0000 </r>
       <r>    4.8267    1.0000 </r>
       <r>    5.1039    1.0000 </r>
       <r>    5.2627    1.0000 </r>
       <r>    5.7927    1.0000 </r>
       <r>   12.7744    0.0000 </r>
       <r>   13.5632    0.0000 </r>
       <r>   13.5696    0.0000 </r>
       <r>   14.4054    0.0000 </r>
       <r>   14.4140    0.0000 </r>
       <r>   14.9899    0.0000 </r>
      </set>
      <set comment="kpoint 18">
       <r>    0.3255    1.0000 </r>
       <r>    1.9275    1.0000 </r>
       <r>    1.9323    1.0000 </r>
       <r>    1.9394    1.0000 </r>
       <r>    2.0601    1.0000 </r>
       <r>    2.0639    1.0000 </r>
       <r>    2.1058    1.0000 </r>
       <r>    3.3652    1.0000 </r>
       <r>    3.5132    1.0000 </r>
       <r>    3.5381    1.0000 </r>
       <r>    4.3783    1.0000 </r>
       <r>    4.4596    1.0000 </r>
       <r>    4.8844    1.0000 </r>
       <r>    4.9797    1.0000 </r>
       <r>    5.0250    1.0000 </r>
       <r>    5.2083    1.0000 </r>
       <r>    5.2719    1.0000 </r>
       <r>    5.3402    1.0000 </r>
       <r>    5.4596    1.0000 </r>
       <r>    5.5874    1.0000 </r>
       <r>    5.7283    1.0000 </r>
       <r>    8.9579   -0.0001 </r>
       <r>    9.1074    0.0000 </r>
       <r>   10.3375    0.0000 </r>
       <r>   13.8514    0.0000 </r>
       <r>   15.4027    0.0000 </r>
       <r>   15.9108    0.0000 </r>
       <r>   16.6817    0.0000 </r>
      </set>
      <set comment="kpoint 19">
       <r>    0.4946    1.0000 </r>
       <r>    1.9960    1.0000 </r>
       <r>    2.0046    1.0000 </r>
       <r>    2.0309    1.0000 </r>
       <r>    2.1147    1.0000 </r>
       <r>    2.1460    1.0000 </r>
       <r>    2.2078    1.0000 </r>
       <r>    3.3121    1.0000 </r>
       <r>    3.5659    1.0000 </r>
       <r>    3.5908    1.0000 </r>
       <r>    4.3279    1.0000 </r>
       <r>    4.4785    1.0000 </r>
       <r>    4.6941    1.0000 </r>
       <r>    4.7804    1.0000 </r>
       <r>    4.9429    1.0000 </r>
       <r>    5.0880    1.0000 </r>
       <r>    5.1796    1.0000 </r>
       <r>    5.2676    1.0000 </r>
       <r>    5.3689    1.0000 </r>
       <r>    5.4662    1.0000 </r>
       <r>    5.7024    1.0000 </r>
       <r>    8.2346    0.0713 </r>
       <r>    9.4348    0.0000 </r>
       <r>   10.7428    0.0000 </r>
       <r>   13.9516    0.0000 </r>
       <r>   15.5198    0.0000 </r>
       <r>   16.0724    0.0000 </r>
       <r>   16.6874    0.0000 </r>
      </set>
      <set comment="kpoint 20">
       <r>    0.7235    1.0000 </r>
       <r>    2.0840    1.0000 </r>
       <r>    2.1026    1.0000 </r>
       <r>    2.1539    1.0000 </r>
       <r>    2.1871    1.0000 </r>
       <r>    2.2627    1.0000 </r>
       <r>    2.3403    1.0000 </r>
       <r>    3.2307    1.0000 </r>
       <r>    3.6490    1.0000 </r>
       <r>    3.6586    1.0000 </r>
       <r>    4.2578    1.0000 </r>
       <r>    4.4257    1.0000 </r>
       <r>    4.5157    1.0000 </r>
       <r>    4.5170    1.0000 </r>
       <r>    4.8324    1.0000 </r>
       <r>    4.8914    1.0000 </r>
       <r>    5.1418    1.0000 </r>
       <r>    5.1547    1.0000 </r>
       <r>    5.2966    1.0000 </r>
       <r>    5.3208    1.0000 </r>
       <r>    5.6984    1.0000 </r>
       <r>    7.4350    1.0069 </r>
       <r>    9.8985    0.0000 </r>
       <r>   11.2480    0.0000 </r>
       <r>   13.9410    0.0000 </r>
       <r>   15.3778    0.0000 </r>
       <r>   15.6513    0.0000 </r>
       <r>   17.2105    0.0000 </r>
      </set>
      <set comment="kpoint 21">
       <r>    1.0012    1.0000 </r>
       <r>    2.1822    1.0000 </r>
       <r>    2.2257    1.0000 </r>
       <r>    2.2770    1.0000 </r>
       <r>    2.2949    1.0000 </r>
       <r>    2.4119    1.0000 </r>
       <r>    2.4950    1.0000 </r>
       <r>    3.1287    1.0000 </r>
       <r>    3.7277    1.0000 </r>
       <r>    3.7545    1.0000 </r>
       <r>    4.1164    1.0000 </r>
       <r>    4.2163    1.0000 </r>
       <r>    4.2214    1.0000 </r>
       <r>    4.5076    1.0000 </r>
       <r>    4.6907    1.0000 </r>
       <r>    4.7449    1.0000 </r>
       <r>    5.0194    1.0000 </r>
       <r>    5.0294    1.0000 </r>
       <r>    5.2231    1.0000 </r>
       <r>    5.2377    1.0000 </r>
       <r>    5.6980    1.0000 </r>
       <r>    6.6851    1.0000 </r>
       <r>   10.4016    0.0000 </r>
       <r>   11.8239    0.0000 </r>
       <r>   13.8020    0.0000 </r>
       <r>   15.0412    0.0000 </r>
       <r>   15.5219    0.0000 </r>
       <r>   16.5883    0.0000 </r>
      </set>
      <set comment="kpoint 22">
       <r>    1.3074    1.0000 </r>
       <r>    2.2756    1.0000 </r>
       <r>    2.3665    1.0000 </r>
       <r>    2.3819    1.0000 </r>
       <r>    2.4372    1.0000 </r>
       <r>    2.5925    1.0000 </r>
       <r>    2.6623    1.0000 </r>
       <r>    3.0120    1.0000 </r>
       <r>    3.7499    1.0000 </r>
       <r>    3.8327    1.0000 </r>
       <r>    3.8433    1.0000 </r>
       <r>    3.9662    1.0000 </r>
       <r>    4.2030    1.0000 </r>
       <r>    4.3630    1.0000 </r>
       <r>    4.5726    1.0000 </r>
       <r>    4.7002    1.0000 </r>
       <r>    4.8529    1.0000 </r>
       <r>    4.8855    1.0000 </r>
       <r>    5.1457    1.0000 </r>
       <r>    5.2153    1.0000 </r>
       <r>    5.6981    1.0000 </r>
       <r>    6.0308    1.0000 </r>
       <r>   10.9194    0.0000 </r>
       <r>   12.4489    0.0000 </r>
       <r>   13.4983    0.0000 </r>
       <r>   14.8500    0.0000 </r>
       <r>   15.4112    0.0000 </r>
       <r>   15.9239    0.0000 </r>
      </set>
      <set comment="kpoint 23">
       <r>    1.6021    1.0000 </r>
       <r>    2.3432    1.0000 </r>
       <r>    2.4989    1.0000 </r>
       <r>    2.5052    1.0000 </r>
       <r>    2.5562    1.0000 </r>
       <r>    2.8032    1.0000 </r>
       <r>    2.8367    1.0000 </r>
       <r>    2.8858    1.0000 </r>
       <r>    3.5167    1.0000 </r>
       <r>    3.5911    1.0000 </r>
       <r>    3.7967    1.0000 </r>
       <r>    4.0508    1.0000 </r>
       <r>    4.1416    1.0000 </r>
       <r>    4.2964    1.0000 </r>
       <r>    4.4644    1.0000 </r>
       <r>    4.6676    1.0000 </r>
       <r>    4.6807    1.0000 </r>
       <r>    4.8048    1.0000 </r>
       <r>    5.0742    1.0000 </r>
       <r>    5.2082    1.0000 </r>
       <r>    5.5194    1.0000 </r>
       <r>    5.6982    1.0000 </r>
       <r>   11.4293    0.0000 </r>
       <r>   13.0843    0.0000 </r>
       <r>   13.1048    0.0000 </r>
       <r>   14.8046    0.0000 </r>
       <r>   15.2397    0.0000 </r>
       <r>   15.2914    0.0000 </r>
      </set>
      <set comment="kpoint 24">
       <r>    1.8057    1.0000 </r>
       <r>    2.3683    1.0000 </r>
       <r>    2.6029    1.0000 </r>
       <r>    2.6206    1.0000 </r>
       <r>    2.6245    1.0000 </r>
       <r>    2.7553    1.0000 </r>
       <r>    3.0261    1.0000 </r>
       <r>    3.0407    1.0000 </r>
       <r>    3.2587    1.0000 </r>
       <r>    3.3104    1.0000 </r>
       <r>    3.8111    1.0000 </r>
       <r>    3.9707    1.0000 </r>
       <r>    4.1803    1.0000 </r>
       <r>    4.3800    1.0000 </r>
       <r>    4.4521    1.0000 </r>
       <r>    4.5122    1.0000 </r>
       <r>    4.5983    1.0000 </r>
       <r>    4.7775    1.0000 </r>
       <r>    5.0548    1.0000 </r>
       <r>    5.2055    1.0000 </r>
       <r>    5.2057    1.0000 </r>
       <r>    5.6982    1.0000 </r>
       <r>   11.8717    0.0000 </r>
       <r>   12.6781    0.0000 </r>
       <r>   13.7542    0.0000 </r>
       <r>   14.5755    0.0000 </r>
       <r>   14.8179    0.0000 </r>
       <r>   15.2028    0.0000 </r>
      </set>
      <set comment="kpoint 25">
       <r>    0.6579    1.0000 </r>
       <r>    2.0520    1.0000 </r>
       <r>    2.0881    1.0000 </r>
       <r>    2.1095    1.0000 </r>
       <r>    2.1923    1.0000 </r>
       <r>    2.1994    1.0000 </r>
       <r>    2.3187    1.0000 </r>
       <r>    3.2828    1.0000 </r>
       <r>    3.5995    1.0000 </r>
       <r>    3.6290    1.0000 </r>
       <r>    4.3000    1.0000 </r>
       <r>    4.4761    1.0000 </r>
       <r>    4.5118    1.0000 </r>
       <r>    4.6277    1.0000 </r>
       <r>    4.8521    1.0000 </r>
       <r>    4.8862    1.0000 </r>
       <r>    5.1175    1.0000 </r>
       <r>    5.2274    1.0000 </r>
       <r>    5.2944    1.0000 </r>
       <r>    5.4294    1.0000 </r>
       <r>    5.6057    1.0000 </r>
       <r>    8.5432   -0.0208 </r>
       <r>    8.7129   -0.0038 </r>
       <r>   11.1214    0.0000 </r>
       <r>   13.9481    0.0000 </r>
       <r>   15.4245    0.0000 </r>
       <r>   16.2254    0.0000 </r>
       <r>   16.8632    0.0000 </r>
      </set>
      <set comment="kpoint 26">
       <r>    0.8784    1.0000 </r>
       <r>    2.1329    1.0000 </r>
       <r>    2.1845    1.0000 </r>
       <r>    2.2294    1.0000 </r>
       <r>    2.2638    1.0000 </r>
       <r>    2.3088    1.0000 </r>
       <r>    2.4558    1.0000 </r>
       <r>    3.2223    1.0000 </r>
       <r>    3.6678    1.0000 </r>
       <r>    3.6754    1.0000 </r>
       <r>    4.2358    1.0000 </r>
       <r>    4.2823    1.0000 </r>
       <r>    4.4070    1.0000 </r>
       <r>    4.4350    1.0000 </r>
       <r>    4.6924    1.0000 </r>
       <r>    4.7966    1.0000 </r>
       <r>    5.0643    1.0000 </r>
       <r>    5.1388    1.0000 </r>
       <r>    5.2257    1.0000 </r>
       <r>    5.3165    1.0000 </r>
       <r>    5.5664    1.0000 </r>
       <r>    7.8213    0.9784 </r>
       <r>    9.0803    0.0000 </r>
       <r>   11.6007    0.0000 </r>
       <r>   13.7216    0.0000 </r>
       <r>   15.0322    0.0000 </r>
       <r>   16.3186    0.0000 </r>
       <r>   17.4821    0.0000 </r>
      </set>
      <set comment="kpoint 27">
       <r>    1.1453    1.0000 </r>
       <r>    2.2414    1.0000 </r>
       <r>    2.2880    1.0000 </r>
       <r>    2.3487    1.0000 </r>
       <r>    2.3727    1.0000 </r>
       <r>    2.4523    1.0000 </r>
       <r>    2.6087    1.0000 </r>
       <r>    3.1361    1.0000 </r>
       <r>    3.7132    1.0000 </r>
       <r>    3.7652    1.0000 </r>
       <r>    3.9836    1.0000 </r>
       <r>    4.1481    1.0000 </r>
       <r>    4.2102    1.0000 </r>
       <r>    4.2736    1.0000 </r>
       <r>    4.6682    1.0000 </r>
       <r>    4.7080    1.0000 </r>
       <r>    4.9799    1.0000 </r>
       <r>    5.0157    1.0000 </r>
       <r>    5.1601    1.0000 </r>
       <r>    5.2014    1.0000 </r>
       <r>    5.5576    1.0000 </r>
       <r>    7.0772    1.0000 </r>
       <r>    9.5559    0.0000 </r>
       <r>   12.1541    0.0000 </r>
       <r>   13.2891    0.0000 </r>
       <r>   14.8825    0.0000 </r>
       <r>   16.1344    0.0000 </r>
       <r>   16.8522    0.0000 </r>
      </set>
      <set comment="kpoint 28">
       <r>    1.4392    1.0000 </r>
       <r>    2.3674    1.0000 </r>
       <r>    2.3931    1.0000 </r>
       <r>    2.4476    1.0000 </r>
       <r>    2.5186    1.0000 </r>
       <r>    2.6258    1.0000 </r>
       <r>    2.7635    1.0000 </r>
       <r>    3.0322    1.0000 </r>
       <r>    3.6759    1.0000 </r>
       <r>    3.7415    1.0000 </r>
       <r>    3.8212    1.0000 </r>
       <r>    3.9388    1.0000 </r>
       <r>    4.0667    1.0000 </r>
       <r>    4.2232    1.0000 </r>
       <r>    4.5590    1.0000 </r>
       <r>    4.7320    1.0000 </r>
       <r>    4.8301    1.0000 </r>
       <r>    4.9039    1.0000 </r>
       <r>    5.0963    1.0000 </r>
       <r>    5.1464    1.0000 </r>
       <r>    5.5552    1.0000 </r>
       <r>    6.4223    1.0000 </r>
       <r>   10.0475    0.0000 </r>
       <r>   12.7609    0.0000 </r>
       <r>   12.7683    0.0000 </r>
       <r>   14.8829    0.0000 </r>
       <r>   15.8707    0.0000 </r>
       <r>   16.1865    0.0000 </r>
      </set>
      <set comment="kpoint 29">
       <r>    1.7230    1.0000 </r>
       <r>    2.4500    1.0000 </r>
       <r>    2.5262    1.0000 </r>
       <r>    2.5575    1.0000 </r>
       <r>    2.6396    1.0000 </r>
       <r>    2.8274    1.0000 </r>
       <r>    2.9058    1.0000 </r>
       <r>    2.9172    1.0000 </r>
       <r>    3.4270    1.0000 </r>
       <r>    3.5739    1.0000 </r>
       <r>    3.6944    1.0000 </r>
       <r>    3.8787    1.0000 </r>
       <r>    4.0496    1.0000 </r>
       <r>    4.3018    1.0000 </r>
       <r>    4.4581    1.0000 </r>
       <r>    4.6529    1.0000 </r>
       <r>    4.6737    1.0000 </r>
       <r>    4.8558    1.0000 </r>
       <r>    5.0946    1.0000 </r>
       <r>    5.1264    1.0000 </r>
       <r>    5.5544    1.0000 </r>
       <r>    5.8885    1.0000 </r>
       <r>   10.5380    0.0000 </r>
       <r>   12.2431    0.0000 </r>
       <r>   13.4032    0.0000 </r>
       <r>   14.9610    0.0000 </r>
       <r>   15.5028    0.0000 </r>
       <r>   15.6051    0.0000 </r>
      </set>
      <set comment="kpoint 30">
       <r>    1.9218    1.0000 </r>
       <r>    2.4744    1.0000 </r>
       <r>    2.6504    1.0000 </r>
       <r>    2.6751    1.0000 </r>
       <r>    2.6962    1.0000 </r>
       <r>    2.7965    1.0000 </r>
       <r>    3.0359    1.0000 </r>
       <r>    3.0536    1.0000 </r>
       <r>    3.2087    1.0000 </r>
       <r>    3.3093    1.0000 </r>
       <r>    3.6637    1.0000 </r>
       <r>    3.7543    1.0000 </r>
       <r>    4.1818    1.0000 </r>
       <r>    4.3705    1.0000 </r>
       <r>    4.4523    1.0000 </r>
       <r>    4.4977    1.0000 </r>
       <r>    4.5681    1.0000 </r>
       <r>    4.8007    1.0000 </r>
       <r>    5.1195    1.0000 </r>
       <r>    5.2260    1.0000 </r>
       <r>    5.4986    1.0000 </r>
       <r>    5.5541    1.0000 </r>
       <r>   10.9756    0.0000 </r>
       <r>   11.7860    0.0000 </r>
       <r>   14.0481    0.0000 </r>
       <r>   14.8366    0.0000 </r>
       <r>   15.0730    0.0000 </r>
       <r>   15.3952    0.0000 </r>
      </set>
      <set comment="kpoint 31">
       <r>    1.0867    1.0000 </r>
       <r>    2.1966    1.0000 </r>
       <r>    2.3016    1.0000 </r>
       <r>    2.3363    1.0000 </r>
       <r>    2.3667    1.0000 </r>
       <r>    2.3754    1.0000 </r>
       <r>    2.5938    1.0000 </r>
       <r>    3.1905    1.0000 </r>
       <r>    3.6966    1.0000 </r>
       <r>    3.7159    1.0000 </r>
       <r>    4.0697    1.0000 </r>
       <r>    4.2073    1.0000 </r>
       <r>    4.2147    1.0000 </r>
       <r>    4.2429    1.0000 </r>
       <r>    4.6948    1.0000 </r>
       <r>    4.7192    1.0000 </r>
       <r>    4.9925    1.0000 </r>
       <r>    5.0981    1.0000 </r>
       <r>    5.1361    1.0000 </r>
       <r>    5.2718    1.0000 </r>
       <r>    5.4480    1.0000 </r>
       <r>    8.1979    0.1312 </r>
       <r>    8.3294   -0.0171 </r>
       <r>   12.0535    0.0000 </r>
       <r>   13.2137    0.0000 </r>
       <r>   14.8783    0.0000 </r>
       <r>   16.8904    0.0000 </r>
       <r>   17.3746    0.0000 </r>
      </set>
      <set comment="kpoint 32">
       <r>    1.3374    1.0000 </r>
       <r>    2.2887    1.0000 </r>
       <r>    2.4175    1.0000 </r>
       <r>    2.4481    1.0000 </r>
       <r>    2.4773    1.0000 </r>
       <r>    2.5071    1.0000 </r>
       <r>    2.7424    1.0000 </r>
       <r>    3.1316    1.0000 </r>
       <r>    3.7072    1.0000 </r>
       <r>    3.7964    1.0000 </r>
       <r>    3.8252    1.0000 </r>
       <r>    3.9802    1.0000 </r>
       <r>    4.0357    1.0000 </r>
       <r>    4.1757    1.0000 </r>
       <r>    4.6200    1.0000 </r>
       <r>    4.7576    1.0000 </r>
       <r>    4.9140    1.0000 </r>
       <r>    5.0027    1.0000 </r>
       <r>    5.0826    1.0000 </r>
       <r>    5.1651    1.0000 </r>
       <r>    5.3984    1.0000 </r>
       <r>    7.5064    1.0141 </r>
       <r>    8.7294   -0.0030 </r>
       <r>   12.5828    0.0000 </r>
       <r>   12.6031    0.0000 </r>
       <r>   14.8826    0.0000 </r>
       <r>   16.6740    0.0000 </r>
       <r>   17.1944    0.0000 </r>
      </set>
      <set comment="kpoint 33">
       <r>    1.6123    1.0000 </r>
       <r>    2.4078    1.0000 </r>
       <r>    2.5235    1.0000 </r>
       <r>    2.5380    1.0000 </r>
       <r>    2.6277    1.0000 </r>
       <r>    2.6703    1.0000 </r>
       <r>    2.8852    1.0000 </r>
       <r>    3.0504    1.0000 </r>
       <r>    3.5571    1.0000 </r>
       <r>    3.6885    1.0000 </r>
       <r>    3.7836    1.0000 </r>
       <r>    3.7882    1.0000 </r>
       <r>    3.9261    1.0000 </r>
       <r>    4.1811    1.0000 </r>
       <r>    4.5136    1.0000 </r>
       <r>    4.7474    1.0000 </r>
       <r>    4.7932    1.0000 </r>
       <r>    4.9204    1.0000 </r>
       <r>    5.0741    1.0000 </r>
       <r>    5.0973    1.0000 </r>
       <r>    5.3841    1.0000 </r>
       <r>    6.8386    1.0000 </r>
       <r>    9.2055    0.0000 </r>
       <r>   11.9931    0.0000 </r>
       <r>   13.1693    0.0000 </r>
       <r>   14.9651    0.0000 </r>
       <r>   16.2756    0.0000 </r>
       <r>   16.5342    0.0000 </r>
      </set>
      <set comment="kpoint 34">
       <r>    1.8780    1.0000 </r>
       <r>    2.5468    1.0000 </r>
       <r>    2.5986    1.0000 </r>
       <r>    2.6373    1.0000 </r>
       <r>    2.7519    1.0000 </r>
       <r>    2.8591    1.0000 </r>
       <r>    2.9543    1.0000 </r>
       <r>    3.0005    1.0000 </r>
       <r>    3.3234    1.0000 </r>
       <r>    3.5447    1.0000 </r>
       <r>    3.6149    1.0000 </r>
       <r>    3.6460    1.0000 </r>
       <r>    4.0553    1.0000 </r>
       <r>    4.2494    1.0000 </r>
       <r>    4.4226    1.0000 </r>
       <r>    4.6315    1.0000 </r>
       <r>    4.6370    1.0000 </r>
       <r>    4.8396    1.0000 </r>
       <r>    5.0314    1.0000 </r>
       <r>    5.2403    1.0000 </r>
       <r>    5.3787    1.0000 </r>
       <r>    6.2781    1.0000 </r>
       <r>    9.6858    0.0000 </r>
       <r>   11.4201    0.0000 </r>
       <r>   13.7959    0.0000 </r>
       <r>   15.1028    0.0000 </r>
       <r>   15.8534    0.0000 </r>
       <r>   15.9094    0.0000 </r>
      </set>
      <set comment="kpoint 35">
       <r>    2.0672    1.0000 </r>
       <r>    2.6097    1.0000 </r>
       <r>    2.6985    1.0000 </r>
       <r>    2.7426    1.0000 </r>
       <r>    2.7898    1.0000 </r>
       <r>    2.8499    1.0000 </r>
       <r>    3.0693    1.0000 </r>
       <r>    3.0726    1.0000 </r>
       <r>    3.1631    1.0000 </r>
       <r>    3.3044    1.0000 </r>
       <r>    3.5409    1.0000 </r>
       <r>    3.5781    1.0000 </r>
       <r>    4.1883    1.0000 </r>
       <r>    4.3366    1.0000 </r>
       <r>    4.3899    1.0000 </r>
       <r>    4.4789    1.0000 </r>
       <r>    4.5154    1.0000 </r>
       <r>    4.7702    1.0000 </r>
       <r>    5.0158    1.0000 </r>
       <r>    5.3767    1.0000 </r>
       <r>    5.4655    1.0000 </r>
       <r>    5.8470    1.0000 </r>
       <r>   10.1220    0.0000 </r>
       <r>   10.9372    0.0000 </r>
       <r>   14.4351    0.0000 </r>
       <r>   15.1863    0.0000 </r>
       <r>   15.2776    0.0000 </r>
       <r>   15.6167    0.0000 </r>
      </set>
      <set comment="kpoint 36">
       <r>    1.5662    1.0000 </r>
       <r>    2.3619    1.0000 </r>
       <r>    2.5599    1.0000 </r>
       <r>    2.5712    1.0000 </r>
       <r>    2.5770    1.0000 </r>
       <r>    2.6074    1.0000 </r>
       <r>    2.8840    1.0000 </r>
       <r>    3.1062    1.0000 </r>
       <r>    3.6461    1.0000 </r>
       <r>    3.6903    1.0000 </r>
       <r>    3.7249    1.0000 </r>
       <r>    3.8579    1.0000 </r>
       <r>    3.8839    1.0000 </r>
       <r>    4.1269    1.0000 </r>
       <r>    4.5359    1.0000 </r>
       <r>    4.7782    1.0000 </r>
       <r>    4.8377    1.0000 </r>
       <r>    4.9503    1.0000 </r>
       <r>    5.0934    1.0000 </r>
       <r>    5.1063    1.0000 </r>
       <r>    5.2666    1.0000 </r>
       <r>    7.9274    0.8130 </r>
       <r>    7.9908    0.6600 </r>
       <r>   11.9081    0.0000 </r>
       <r>   13.0894    0.0000 </r>
       <r>   14.9603    0.0000 </r>
       <r>   17.0468    0.0000 </r>
       <r>   17.2966    0.0000 </r>
      </set>
      <set comment="kpoint 37">
       <r>    1.8135    1.0000 </r>
       <r>    2.4623    1.0000 </r>
       <r>    2.6514    1.0000 </r>
       <r>    2.6842    1.0000 </r>
       <r>    2.7243    1.0000 </r>
       <r>    2.7588    1.0000 </r>
       <r>    3.0150    1.0000 </r>
       <r>    3.0578    1.0000 </r>
       <r>    3.4201    1.0000 </r>
       <r>    3.5286    1.0000 </r>
       <r>    3.6732    1.0000 </r>
       <r>    3.7003    1.0000 </r>
       <r>    3.9531    1.0000 </r>
       <r>    4.1117    1.0000 </r>
       <r>    4.4421    1.0000 </r>
       <r>    4.6911    1.0000 </r>
       <r>    4.7390    1.0000 </r>
       <r>    4.8654    1.0000 </r>
       <r>    5.0092    1.0000 </r>
       <r>    5.2096    1.0000 </r>
       <r>    5.2468    1.0000 </r>
       <r>    7.2725    1.0008 </r>
       <r>    8.4240   -0.0354 </r>
       <r>   11.2505    0.0000 </r>
       <r>   13.6556    0.0000 </r>
       <r>   15.0918    0.0000 </r>
       <r>   16.6596    0.0000 </r>
       <r>   16.9401    0.0000 </r>
      </set>
      <set comment="kpoint 38">
       <r>    2.0507    1.0000 </r>
       <r>    2.5884    1.0000 </r>
       <r>    2.7358    1.0000 </r>
       <r>    2.7603    1.0000 </r>
       <r>    2.8878    1.0000 </r>
       <r>    2.8963    1.0000 </r>
       <r>    2.9903    1.0000 </r>
       <r>    3.1070    1.0000 </r>
       <r>    3.2205    1.0000 </r>
       <r>    3.4235    1.0000 </r>
       <r>    3.4985    1.0000 </r>
       <r>    3.5932    1.0000 </r>
       <r>    4.0757    1.0000 </r>
       <r>    4.1623    1.0000 </r>
       <r>    4.3602    1.0000 </r>
       <r>    4.5580    1.0000 </r>
       <r>    4.6014    1.0000 </r>
       <r>    4.7769    1.0000 </r>
       <r>    4.9383    1.0000 </r>
       <r>    5.1906    1.0000 </r>
       <r>    5.4764    1.0000 </r>
       <r>    6.6860    1.0000 </r>
       <r>    8.8956   -0.0002 </r>
       <r>   10.6481    0.0000 </r>
       <r>   14.2658    0.0000 </r>
       <r>   15.2736    0.0000 </r>
       <r>   16.2281    0.0000 </r>
       <r>   16.2750    0.0000 </r>
      </set>
      <set comment="kpoint 39">
       <r>    2.2208    1.0000 </r>
       <r>    2.7317    1.0000 </r>
       <r>    2.7630    1.0000 </r>
       <r>    2.8234    1.0000 </r>
       <r>    2.8764    1.0000 </r>
       <r>    2.9103    1.0000 </r>
       <r>    3.0851    1.0000 </r>
       <r>    3.1323    1.0000 </r>
       <r>    3.1643    1.0000 </r>
       <r>    3.2923    1.0000 </r>
       <r>    3.4151    1.0000 </r>
       <r>    3.4906    1.0000 </r>
       <r>    4.2043    1.0000 </r>
       <r>    4.2582    1.0000 </r>
       <r>    4.3154    1.0000 </r>
       <r>    4.4250    1.0000 </r>
       <r>    4.4570    1.0000 </r>
       <r>    4.7115    1.0000 </r>
       <r>    4.9089    1.0000 </r>
       <r>    5.1838    1.0000 </r>
       <r>    5.7571    1.0000 </r>
       <r>    6.2219    1.0000 </r>
       <r>    9.3302    0.0000 </r>
       <r>   10.1479    0.0000 </r>
       <r>   14.8975    0.0000 </r>
       <r>   15.4949    0.0000 </r>
       <r>   15.6114    0.0000 </r>
       <r>   15.8779    0.0000 </r>
      </set>
      <set comment="kpoint 40">
       <r>    2.0243    1.0000 </r>
       <r>    2.5406    1.0000 </r>
       <r>    2.7828    1.0000 </r>
       <r>    2.7877    1.0000 </r>
       <r>    2.8432    1.0000 </r>
       <r>    2.9040    1.0000 </r>
       <r>    3.0474    1.0000 </r>
       <r>    3.1268    1.0000 </r>
       <r>    3.2883    1.0000 </r>
       <r>    3.3189    1.0000 </r>
       <r>    3.5787    1.0000 </r>
       <r>    3.6533    1.0000 </r>
       <r>    4.0194    1.0000 </r>
       <r>    4.0560    1.0000 </r>
       <r>    4.3569    1.0000 </r>
       <r>    4.5800    1.0000 </r>
       <r>    4.6640    1.0000 </r>
       <r>    4.7836    1.0000 </r>
       <r>    4.9402    1.0000 </r>
       <r>    5.0735    1.0000 </r>
       <r>    5.4786    1.0000 </r>
       <r>    7.7168    1.0329 </r>
       <r>    7.7265    1.0312 </r>
       <r>   10.5620    0.0000 </r>
       <r>   14.2031    0.0000 </r>
       <r>   15.2647    0.0000 </r>
       <r>   16.9991    0.0000 </r>
       <r>   17.1508    0.0000 </r>
      </set>
      <set comment="kpoint 41">
       <r>    2.2184    1.0000 </r>
       <r>    2.6442    1.0000 </r>
       <r>    2.8491    1.0000 </r>
       <r>    2.9216    1.0000 </r>
       <r>    2.9363    1.0000 </r>
       <r>    3.0175    1.0000 </r>
       <r>    3.0395    1.0000 </r>
       <r>    3.1025    1.0000 </r>
       <r>    3.2061    1.0000 </r>
       <r>    3.2900    1.0000 </r>
       <r>    3.4308    1.0000 </r>
       <r>    3.5875    1.0000 </r>
       <r>    4.0671    1.0000 </r>
       <r>    4.1190    1.0000 </r>
       <r>    4.2783    1.0000 </r>
       <r>    4.4415    1.0000 </r>
       <r>    4.5587    1.0000 </r>
       <r>    4.6981    1.0000 </r>
       <r>    4.8595    1.0000 </r>
       <r>    5.0130    1.0000 </r>
       <r>    5.7636    1.0000 </r>
[...]
       <r>    3.5729    1.0000 </r>
       <r>    4.7321    1.0000 </r>
       <r>    4.7321    1.0000 </r>
       <r>    4.9336    1.0000 </r>
       <r>    5.1060    1.0000 </r>
       <r>    5.2702    1.0000 </r>
       <r>    5.2702    1.0000 </r>
       <r>    5.4736    1.0000 </r>
       <r>    5.4736    1.0000 </r>
       <r>    6.2746    1.0000 </r>
       <r>    8.0832    0.4033 </r>
       <r>    8.0832    0.4033 </r>
       <r>    8.1018    0.3527 </r>
       <r>   10.5535    0.0000 </r>
       <r>   12.0851    0.0000 </r>
       <r>   12.0851    0.0000 </r>
       <r>   13.2246    0.0000 </r>
      </set>
      <set comment="kpoint 163">
       <r>    1.5906    1.0000 </r>
       <r>    1.9000    1.0000 </r>
       <r>    1.9293    1.0000 </r>
       <r>    1.9435    1.0000 </r>
       <r>    3.3403    1.0000 </r>
       <r>    3.3544    1.0000 </r>
       <r>    3.3815    1.0000 </r>
       <r>    3.4376    1.0000 </r>
       <r>    3.4571    1.0000 </r>
       <r>    3.4764    1.0000 </r>
       <r>    3.5169    1.0000 </r>
       <r>    3.5544    1.0000 </r>
       <r>    4.8460    1.0000 </r>
       <r>    4.8537    1.0000 </r>
       <r>    5.0835    1.0000 </r>
       <r>    5.0901    1.0000 </r>
       <r>    5.2493    1.0000 </r>
       <r>    5.3542    1.0000 </r>
       <r>    5.4464    1.0000 </r>
       <r>    5.4770    1.0000 </r>
       <r>    6.7771    1.0000 </r>
       <r>    7.4548    1.0085 </r>
       <r>    8.1530    0.2243 </r>
       <r>    8.1790    0.1680 </r>
       <r>   10.3803    0.0000 </r>
       <r>   11.8601    0.0000 </r>
       <r>   12.2729    0.0000 </r>
       <r>   12.7354    0.0000 </r>
      </set>
      <set comment="kpoint 164">
       <r>    1.5605    1.0000 </r>
       <r>    1.8778    1.0000 </r>
       <r>    1.8914    1.0000 </r>
       <r>    1.8974    1.0000 </r>
       <r>    3.3709    1.0000 </r>
       <r>    3.3745    1.0000 </r>
       <r>    3.3939    1.0000 </r>
       <r>    3.4272    1.0000 </r>
       <r>    3.4399    1.0000 </r>
       <r>    3.4433    1.0000 </r>
       <r>    3.4862    1.0000 </r>
       <r>    3.5243    1.0000 </r>
       <r>    4.9627    1.0000 </r>
       <r>    4.9693    1.0000 </r>
       <r>    5.0803    1.0000 </r>
       <r>    5.2404    1.0000 </r>
       <r>    5.3495    1.0000 </r>
       <r>    5.3842    1.0000 </r>
       <r>    5.4357    1.0000 </r>
       <r>    5.4802    1.0000 </r>
       <r>    7.1699    1.0001 </r>
       <r>    7.6710    1.0353 </r>
       <r>    7.7090    1.0340 </r>
       <r>    7.9650    0.7260 </r>
       <r>   10.2547    0.0000 </r>
       <r>   11.9144    0.0000 </r>
       <r>   12.0552    0.0000 </r>
       <r>   12.3081    0.0000 </r>
      </set>
      <set comment="kpoint 165">
       <r>    1.5258    1.0000 </r>
       <r>    1.8481    1.0000 </r>
       <r>    1.8551    1.0000 </r>
       <r>    1.8551    1.0000 </r>
       <r>    3.3860    1.0000 </r>
       <r>    3.3860    1.0000 </r>
       <r>    3.4018    1.0000 </r>
       <r>    3.4046    1.0000 </r>
       <r>    3.4227    1.0000 </r>
       <r>    3.4227    1.0000 </r>
       <r>    3.4902    1.0000 </r>
       <r>    3.4902    1.0000 </r>
       <r>    5.0598    1.0000 </r>
       <r>    5.0598    1.0000 </r>
       <r>    5.0995    1.0000 </r>
       <r>    5.3879    1.0000 </r>
       <r>    5.4472    1.0000 </r>
       <r>    5.4472    1.0000 </r>
       <r>    5.4969    1.0000 </r>
       <r>    5.4969    1.0000 </r>
       <r>    7.4210    1.0059 </r>
       <r>    7.7023    1.0346 </r>
       <r>    7.7023    1.0346 </r>
       <r>    7.7591    1.0211 </r>
       <r>    9.9467    0.0000 </r>
       <r>   11.8396    0.0000 </r>
       <r>   11.8396    0.0000 </r>
       <r>   11.9854    0.0000 </r>
      </set>
     </set>
    </set>
   </array>
  </eigenvalues>
  <separator name="orbital magnetization" >
   <v name="MAGDIPOLOUT">      0.00000000      0.00000000      0.00000000</v>
  </separator>
  <dos>
   <i name="efermi">      8.04863297 </i>
   <total>
    <array>
     <dimension dim="1">gridpoints</dimension>
     <dimension dim="2">spin</dimension>
     <field>energy</field>
     <field>total</field>
     <field>integrated</field>
     <set>
      <set comment="spin 1">
       <r>    -2.9545     0.0000     0.0000 </r>
       <r>    -2.8728     0.0000     0.0000 </r>
       <r>    -2.7912     0.0000     0.0000 </r>
       <r>    -2.7095     0.0000     0.0000 </r>
       <r>    -2.6278     0.0000     0.0000 </r>
       <r>    -2.5462     0.0000     0.0000 </r>
       <r>    -2.4645     0.0000     0.0000 </r>
       <r>    -2.3828     0.0000     0.0000 </r>
       <r>    -2.3011     0.0000     0.0000 </r>
       <r>    -2.2195     0.0000     0.0000 </r>
       <r>    -2.1378     0.0000     0.0000 </r>
       <r>    -2.0561     0.0000     0.0000 </r>
       <r>    -1.9744     0.0000     0.0000 </r>
       <r>    -1.8928     0.0000     0.0000 </r>
       <r>    -1.8111     0.0000     0.0000 </r>
       <r>    -1.7294     0.0000     0.0000 </r>
       <r>    -1.6477     0.0000     0.0000 </r>
       <r>    -1.5661     0.0000     0.0000 </r>
       <r>    -1.4844     0.0000     0.0000 </r>
       <r>    -1.4027     0.0000     0.0000 </r>
       <r>    -1.3210     0.0000     0.0000 </r>
       <r>    -1.2394     0.0000     0.0000 </r>
       <r>    -1.1577     0.0000     0.0000 </r>
       <r>    -1.0760     0.0000     0.0000 </r>
       <r>    -0.9944     0.0000     0.0000 </r>
       <r>    -0.9127     0.0000     0.0000 </r>
       <r>    -0.8310     0.0000     0.0000 </r>
       <r>    -0.7493     0.0000     0.0000 </r>
       <r>    -0.6677    -0.0001     0.0000 </r>
       <r>    -0.5860    -0.0003     0.0000 </r>
       <r>    -0.5043    -0.0009    -0.0001 </r>
       <r>    -0.4226    -0.0021    -0.0003 </r>
       <r>    -0.3410    -0.0039    -0.0006 </r>
       <r>    -0.2593    -0.0057    -0.0011 </r>
       <r>    -0.1776    -0.0053    -0.0015 </r>
       <r>    -0.0959     0.0012    -0.0014 </r>
       <r>    -0.0143     0.0177     0.0000 </r>
       <r>     0.0674     0.0464     0.0038 </r>
       <r>     0.1491     0.0857     0.0108 </r>
       <r>     0.2307     0.1308     0.0215 </r>
       <r>     0.3124     0.1760     0.0359 </r>
       <r>     0.3941     0.2174     0.0536 </r>
       <r>     0.4758     0.2540     0.0744 </r>
       <r>     0.5574     0.2868     0.0978 </r>
       <r>     0.6391     0.3175     0.1238 </r>
       <r>     0.7208     0.3476     0.1521 </r>
       <r>     0.8025     0.3781     0.1830 </r>
       <r>     0.8841     0.4093     0.2165 </r>
       <r>     0.9658     0.4402     0.2524 </r>
       <r>     1.0475     0.4696     0.2908 </r>
       <r>     1.1292     0.4968     0.3313 </r>
       <r>     1.2108     0.5250     0.3742 </r>
       <r>     1.2925     0.5643     0.4203 </r>
       <r>     1.3742     0.6374     0.4724 </r>
       <r>     1.4558     0.7799     0.5361 </r>
       <r>     1.5375     1.0320     0.6204 </r>
       <r>     1.6192     1.4246     0.7367 </r>
       <r>     1.7009     1.9706     0.8977 </r>
       <r>     1.7825     2.6708     1.1158 </r>
       <r>     1.8642     3.5310     1.4042 </r>
       <r>     1.9459     4.5772     1.7780 </r>
       <r>     2.0276     5.8475     2.2556 </r>
       <r>     2.1092     7.3444     2.8554 </r>
       <r>     2.1909     8.9623     3.5874 </r>
       <r>     2.2726    10.4534     4.4412 </r>
       <r>     2.3543    11.4965     5.3801 </r>
       <r>     2.4359    11.8558     6.3484 </r>
       <r>     2.5176    11.5202     7.2893 </r>
       <r>     2.5993    10.7180     8.1647 </r>
       <r>     2.6809     9.8081     8.9658 </r>
       <r>     2.7626     9.1271     9.7112 </r>
       <r>     2.8443     8.8710    10.4357 </r>
       <r>     2.9260     9.0407    11.1741 </r>
       <r>     3.0076     9.4663    11.9473 </r>
       <r>     3.0893     9.9151    12.7571 </r>
       <r>     3.1710    10.2418    13.5936 </r>
       <r>     3.2527    10.4974    14.4509 </r>
       <r>     3.3343    10.9122    15.3422 </r>
       <r>     3.4160    11.7320    16.3003 </r>
       <r>     3.4977    12.9809    17.3605 </r>
       <r>     3.5794    14.3236    18.5304 </r>
       <r>     3.6610    15.1868    19.7707 </r>
       <r>     3.7427    15.1196    21.0056 </r>
       <r>     3.8244    14.1327    22.1599 </r>
       <r>     3.9060    12.7209    23.1988 </r>
       <r>     3.9877    11.5371    24.1411 </r>
       <r>     4.0694    10.9824    25.0381 </r>
       <r>     4.1511    11.0173    25.9379 </r>
       <r>     4.2327    11.2818    26.8593 </r>
       <r>     4.3144    11.3787    27.7887 </r>
       <r>     4.3961    11.1098    28.6960 </r>
       <r>     4.4778    10.5464    29.5574 </r>
       <r>     4.5594     9.9419    30.3694 </r>
       <r>     4.6411     9.5727    31.1512 </r>
       <r>     4.7228     9.6029    31.9355 </r>
       <r>     4.8045    10.0344    32.7551 </r>
       <r>     4.8861    10.7380    33.6321 </r>
       <r>     4.9678    11.5147    34.5725 </r>
       <r>     5.0495    12.1399    35.5640 </r>
       <r>     5.1311    12.4062    36.5773 </r>
       <r>     5.2128    12.1849    37.5725 </r>
       <r>     5.2945    11.4660    38.5089 </r>
       <r>     5.3762    10.3300    39.3526 </r>
       <r>     5.4578     8.8857    40.0783 </r>
       <r>     5.5395     7.2509    40.6705 </r>
       <r>     5.6212     5.5770    41.1260 </r>
       <r>     5.7029     4.0424    41.4562 </r>
       <r>     5.7845     2.7943    41.6844 </r>
       <r>     5.8662     1.8948    41.8392 </r>
       <r>     5.9479     1.3215    41.9471 </r>
       <r>     6.0296     1.0037    42.0291 </r>
       <r>     6.1112     0.8599    42.0993 </r>
       <r>     6.1929     0.8219    42.1664 </r>
       <r>     6.2746     0.8425    42.2352 </r>
       <r>     6.3563     0.8887    42.3078 </r>
       <r>     6.4379     0.9337    42.3841 </r>
       <r>     6.5196     0.9584    42.4624 </r>
       <r>     6.6013     0.9586    42.5406 </r>
       <r>     6.6829     0.9435    42.6177 </r>
       <r>     6.7646     0.9277    42.6935 </r>
       <r>     6.8463     0.9237    42.7689 </r>
       <r>     6.9280     0.9389    42.8456 </r>
       <r>     7.0096     0.9690    42.9247 </r>
       <r>     7.0913     0.9962    43.0061 </r>
       <r>     7.1730     1.0025    43.0880 </r>
       <r>     7.2547     0.9910    43.1689 </r>
       <r>     7.3363     0.9879    43.2496 </r>
       <r>     7.4180     1.0171    43.3327 </r>
       <r>     7.4997     1.0712    43.4201 </r>
       <r>     7.5814     1.1131    43.5111 </r>
       <r>     7.6630     1.1094    43.6017 </r>
       <r>     7.7447     1.0619    43.6884 </r>
       <r>     7.8264     1.0079    43.7707 </r>
       <r>     7.9080     0.9908    43.8516 </r>
       <r>     7.9897     1.0288    43.9357 </r>
       <r>     8.0714     1.1030    44.0257 </r>
       <r>     8.1531     1.1678    44.1211 </r>
       <r>     8.2347     1.1786    44.2174 </r>
       <r>     8.3164     1.1211    44.3089 </r>
       <r>     8.3981     1.0268    44.3928 </r>
       <r>     8.4798     0.9574    44.4710 </r>
       <r>     8.5614     0.9643    44.5498 </r>
       <r>     8.6431     1.0502    44.6355 </r>
       <r>     8.7248     1.1620    44.7304 </r>
       <r>     8.8065     1.2243    44.8304 </r>
       <r>     8.8881     1.1899    44.9276 </r>
       <r>     8.9698     1.0742    45.0153 </r>
       <r>     9.0515     0.9471    45.0927 </r>
       <r>     9.1331     0.8872    45.1651 </r>
       <r>     9.2148     0.9311    45.2412 </r>
       <r>     9.2965     1.0516    45.3271 </r>
       <r>     9.3782     1.1762    45.4232 </r>
       <r>     9.4598     1.2339    45.5239 </r>
       <r>     9.5415     1.1965    45.6217 </r>
       <r>     9.6232     1.0901    45.7107 </r>
       <r>     9.7049     0.9739    45.7902 </r>
       <r>     9.7865     0.9049    45.8641 </r>
       <r>     9.8682     0.9128    45.9387 </r>
       <r>     9.9499     0.9886    46.0194 </r>
       <r>    10.0316     1.0890    46.1084 </r>
       <r>    10.1132     1.1568    46.2028 </r>
       <r>    10.1949     1.1523    46.2970 </r>
       <r>    10.2766     1.0783    46.3850 </r>
       <r>    10.3582     0.9785    46.4649 </r>
       <r>    10.4399     0.9072    46.5390 </r>
       <r>    10.5216     0.8943    46.6121 </r>
       <r>    10.6033     0.9302    46.6880 </r>
       <r>    10.6849     0.9819    46.7682 </r>
       <r>    10.7666     1.0212    46.8516 </r>
       <r>    10.8483     1.0402    46.9366 </r>
       <r>    10.9300     1.0447    47.0219 </r>
       <r>    11.0116     1.0412    47.1070 </r>
       <r>    11.0933     1.0349    47.1915 </r>
       <r>    11.1750     1.0323    47.2758 </r>
       <r>    11.2567     1.0356    47.3604 </r>
       <r>    11.3383     1.0346    47.4449 </r>
       <r>    11.4200     1.0146    47.5278 </r>
       <r>    11.5017     0.9791    47.6077 </r>
       <r>    11.5833     0.9595    47.6861 </r>
       <r>    11.6650     0.9921    47.7671 </r>
       <r>    11.7467     1.0814    47.8554 </r>
       <r>    11.8284     1.1902    47.9526 </r>
       <r>    11.9100     1.2707    48.0564 </r>
       <r>    11.9917     1.3033    48.1629 </r>
       <r>    12.0734     1.3026    48.2693 </r>
       <r>    12.1551     1.2922    48.3748 </r>
       <r>    12.2367     1.2814    48.4795 </r>
       <r>    12.3184     1.2686    48.5831 </r>
       <r>    12.4001     1.2563    48.6857 </r>
       <r>    12.4818     1.2532    48.7880 </r>
       <r>    12.5634     1.2603    48.8910 </r>
       <r>    12.6451     1.2635    48.9941 </r>
       <r>    12.7268     1.2489    49.0961 </r>
       <r>    12.8084     1.2221    49.1960 </r>
       <r>    12.8901     1.2046    49.2943 </r>
       <r>    12.9718     1.2076    49.3930 </r>
       <r>    13.0535     1.2189    49.4925 </r>
       <r>    13.1351     1.2171    49.5919 </r>
       <r>    13.2168     1.1974    49.6897 </r>
       <r>    13.2985     1.1764    49.7858 </r>
       <r>    13.3802     1.1760    49.8818 </r>
       <r>    13.4618     1.2063    49.9804 </r>
       <r>    13.5435     1.2622    50.0835 </r>
       <r>    13.6252     1.3293    50.1920 </r>
       <r>    13.7069     1.3917    50.3057 </r>
       <r>    13.7885     1.4392    50.4232 </r>
       <r>    13.8702     1.4699    50.5433 </r>
       <r>    13.9519     1.4838    50.6645 </r>
       <r>    14.0336     1.4730    50.7848 </r>
       <r>    14.1152     1.4208    50.9008 </r>
       <r>    14.1969     1.3183    51.0085 </r>
       <r>    14.2786     1.1834    51.1051 </r>
       <r>    14.3602     1.0614    51.1918 </r>
       <r>    14.4419     0.9993    51.2734 </r>
       <r>    14.5236     1.0169    51.3565 </r>
       <r>    14.6053     1.0997    51.4463 </r>
       <r>    14.6869     1.2158    51.5456 </r>
       <r>    14.7686     1.3362    51.6547 </r>
       <r>    14.8503     1.4411    51.7724 </r>
       <r>    14.9320     1.5183    51.8964 </r>
       <r>    15.0136     1.5666    52.0244 </r>
       <r>    15.0953     1.6020    52.1552 </r>
       <r>    15.1770     1.6509    52.2901 </r>
       <r>    15.2587     1.7280    52.4312 </r>
       <r>    15.3403     1.8158    52.5795 </r>
       <r>    15.4220     1.8723    52.7324 </r>
       <r>    15.5037     1.8623    52.8845 </r>
       <r>    15.5853     1.7857    53.0304 </r>
       <r>    15.6670     1.6778    53.1674 </r>
       <r>    15.7487     1.5853    53.2969 </r>
       <r>    15.8304     1.5409    53.4227 </r>
       <r>    15.9120     1.5517    53.5495 </r>
       <r>    15.9937     1.6001    53.6802 </r>
       <r>    16.0754     1.6519    53.8151 </r>
       <r>    16.1571     1.6717    53.9516 </r>
       <r>    16.2387     1.6440    54.0859 </r>
       <r>    16.3204     1.5873    54.2155 </r>
       <r>    16.4021     1.5453    54.3417 </r>
       <r>    16.4838     1.5546    54.4687 </r>
       <r>    16.5654     1.6127    54.6004 </r>
       <r>    16.6471     1.6757    54.7373 </r>
       <r>    16.7288     1.6885    54.8752 </r>
       <r>    16.8104     1.6225    55.0077 </r>
       <r>    16.8921     1.4923    55.1296 </r>
       <r>    16.9738     1.3417    55.2392 </r>
       <r>    17.0555     1.2152    55.3384 </r>
       <r>    17.1371     1.1331    55.4309 </r>
       <r>    17.2188     1.0854    55.5196 </r>
       <r>    17.3005     1.0409    55.6046 </r>
       <r>    17.3822     0.9674    55.6836 </r>
       <r>    17.4638     0.8480    55.7529 </r>
       <r>    17.5455     0.6896    55.8092 </r>
       <r>    17.6272     0.5199    55.8517 </r>
       <r>    17.7089     0.3741    55.8822 </r>
       <r>    17.7905     0.2772    55.9049 </r>
       <r>    17.8722     0.2323    55.9238 </r>
       <r>    17.9539     0.2193    55.9417 </r>
       <r>    18.0355     0.2082    55.9587 </r>
       <r>    18.1172     0.1777    55.9733 </r>
       <r>    18.1989     0.1276    55.9837 </r>
       <r>    18.2806     0.0748    55.9898 </r>
       <r>    18.3622     0.0370    55.9928 </r>
       <r>    18.4439     0.0202    55.9945 </r>
       <r>    18.5256     0.0180    55.9959 </r>
       <r>    18.6073     0.0195    55.9975 </r>
       <r>    18.6889     0.0175    55.9989 </r>
       <r>    18.7706     0.0117    55.9999 </r>
       <r>    18.8523     0.0051    56.0003 </r>
       <r>    18.9340     0.0005    56.0004 </r>
       <r>    19.0156    -0.0013    56.0002 </r>
       <r>    19.0973    -0.0014    56.0001 </r>
       <r>    19.1790    -0.0009    56.0001 </r>
       <r>    19.2606    -0.0004    56.0000 </r>
       <r>    19.3423    -0.0002    56.0000 </r>
       <r>    19.4240    -0.0001    56.0000 </r>
       <r>    19.5057     0.0000    56.0000 </r>
       <r>    19.5873     0.0000    56.0000 </r>
       <r>    19.6690     0.0000    56.0000 </r>
       <r>    19.7507     0.0000    56.0000 </r>
       <r>    19.8324     0.0000    56.0000 </r>
       <r>    19.9140     0.0000    56.0000 </r>
       <r>    19.9957     0.0000    56.0000 </r>
       <r>    20.0774     0.0000    56.0000 </r>
       <r>    20.1591     0.0000    56.0000 </r>
       <r>    20.2407     0.0000    56.0000 </r>
       <r>    20.3224     0.0000    56.0000 </r>
       <r>    20.4041     0.0000    56.0000 </r>
       <r>    20.4857     0.0000    56.0000 </r>
       <r>    20.5674     0.0000    56.0000 </r>
       <r>    20.6491     0.0000    56.0000 </r>
       <r>    20.7308     0.0000    56.0000 </r>
       <r>    20.8124     0.0000    56.0000 </r>
       <r>    20.8941     0.0000    56.0000 </r>
       <r>    20.9758     0.0000    56.0000 </r>
       <r>    21.0575     0.0000    56.0000 </r>
       <r>    21.1391     0.0000    56.0000 </r>
       <r>    21.2208     0.0000    56.0000 </r>
       <r>    21.3025     0.0000    56.0000 </r>
       <r>    21.3842     0.0000    56.0000 </r>
       <r>    21.4658     0.0000    56.0000 </r>
       <r>    21.5475     0.0000    56.0000 </r>
      </set>
     </set>
    </array>
   </total>
  </dos>
 </calculation>
 <structure name="finalpos" >
  <crystal>
   <varray name="basis" >
    <v>       0.00000000       4.14722929       0.00000000 </v>
    <v>       0.00000000       0.00000000       4.14722929 </v>
    <v>       4.14722929       0.00000000       0.00000000 </v>
   </varray>
   <i name="volume">     71.33031467 </i>
   <varray name="rec_basis" >
    <v>       0.00000000       0.24112484       0.00000000 </v>
    <v>       0.00000000       0.00000000       0.24112484 </v>
    <v>       0.24112484       0.00000000       0.00000000 </v>
   </varray>
  </crystal>
  <varray name="positions" >
   <v>       0.00000000       0.50000000       0.50000000 </v>
   <v>       0.50000000       0.00000000       0.50000000 </v>
   <v>       0.50000000       0.50000000       0.00000000 </v>
   <v>       0.00000000       0.00000000       0.00000000 </v>
  </varray>
 </structure>
</modeling>
