<?xml version="1.0" encoding="ISO-8859-1"?>
<modeling>
 <generator>
  <i name="program" type="string">vasp </i>
  <i name="version" type="string">5.3.5  </i>
  <i name="subversion" type="string">31Mar14 (build Jun 20 2014 13:15:13) complex                          parallel </i>
  <i name="platform" type="string">LinuxIFC </i>
  <i name="date" type="string">2025 11 21 </i>
  <i name="time" type="string">11:28:14 </i>
 </generator>
 <incar>
  <i type="string" name="PREC">accurate</i>
  <i type="int" name="IALGO">    68</i>
  <i type="logical" name="ADDGRID"> T  </i>
  <i type="int" name="NELM">   100</i>
  <i type="int" name="NELMIN">     4</i>
  <i type="int" name="IBRION">     2</i>
  <i name="EDIFF">      0.00000100</i>
  <i name="EDIFFG">     -0.02000000</i>
  <i type="int" name="NSW">    30</i>
  <i type="int" name="ISIF">     3</i>
  <i name="ENCUT">    500.00000000</i>
  <i type="logical" name="LREAL"> F  </i>
  <i type="int" name="ISMEAR">     1</i>
  <i name="SIGMA">      0.30000000</i>
  <i type="logical" name="LWAVE"> F  </i>
  <i type="logical" name="LCHARG"> F  </i>
  <i type="int" name="NELM">   100</i>
 </incar>
 <kpoints>
  <generation param="Auto">
   <i name="subdivisionlength">     70.00000000 </i>
   <v type="int" name="divisions">      24       24        8 </v>
   <v name="usershift">      0.00000000       0.00000000       0.00000000 </v>
   <v name="genvec1">      0.04166667       0.00000000       0.00000000 </v>
   <v name="genvec2">      0.00000000       0.04166667       0.00000000 </v>
   <v name="genvec3">      0.00000000       0.00000000       0.12500000 </v>
   <v name="shift">      0.00000000       0.00000000       0.00000000 </v>
  </generation>
  <varray name="kpointlist" >
   <v>       0.00000000       0.00000000       0.00000000 </v>
   <v>       0.04166667       0.00000000       0.00000000 </v>
   <v>       0.08333333       0.00000000       0.00000000 </v>
   <v>       0.12500000       0.00000000       0.00000000 </v>
   <v>       0.16666667       0.00000000       0.00000000 </v>
   <v>       0.20833333       0.00000000       0.00000000 </v>
   <v>       0.25000000       0.00000000       0.00000000 </v>
   <v>       0.29166667       0.00000000       0.00000000 </v>
   <v>       0.33333333       0.00000000       0.00000000 </v>
   <v>       0.37500000       0.00000000       0.00000000 </v>
   <v>       0.41666667       0.00000000       0.00000000 </v>
   <v>       0.45833333       0.00000000       0.00000000 </v>
   <v>       0.50000000       0.00000000       0.00000000 </v>
   <v>       0.04166667       0.04166667       0.00000000 </v>
   <v>       0.08333333       0.04166667       0.00000000 </v>
   <v>       0.12500000       0.04166667       0.00000000 </v>
   <v>       0.16666667       0.04166667       0.00000000 </v>
   <v>       0.20833333       0.04166667       0.00000000 </v>
   <v>       0.25000000       0.04166667       0.00000000 </v>
   <v>       0.29166667       0.04166667       0.00000000 </v>
   <v>       0.33333333       0.04166667       0.00000000 </v>
   <v>       0.37500000       0.04166667       0.00000000 </v>
   <v>       0.41666667       0.04166667       0.00000000 </v>
   <v>       0.45833333       0.04166667       0.00000000 </v>
   <v>       0.50000000       0.04166667       0.00000000 </v>
   <v>       0.08333333       0.08333333       0.00000000 </v>
   <v>       0.12500000       0.08333333       0.00000000 </v>
   <v>       0.16666667       0.08333333       0.00000000 </v>
   <v>       0.20833333       0.08333333       0.00000000 </v>
   <v>       0.25000000       0.08333333       0.00000000 </v>
   <v>       0.29166667       0.08333333       0.00000000 </v>
   <v>       0.33333333       0.08333333       0.00000000 </v>
   <v>       0.37500000       0.08333333       0.00000000 </v>
   <v>       0.41666667       0.08333333       0.00000000 </v>
   <v>       0.45833333       0.08333333       0.00000000 </v>
   <v>       0.50000000       0.08333333       0.00000000 </v>
   <v>       0.12500000       0.12500000       0.00000000 </v>
   <v>       0.16666667       0.12500000       0.00000000 </v>
   <v>       0.20833333       0.12500000       0.00000000 </v>
   <v>       0.25000000       0.12500000       0.00000000 </v>
   <v>       0.29166667       0.12500000       0.00000000 </v>
   <v>       0.33333333       0.12500000       0.00000000 </v>
   <v>       0.37500000       0.12500000       0.00000000 </v>
   <v>       0.41666667       0.12500000       0.00000000 </v>
   <v>       0.45833333       0.12500000       0.00000000 </v>
   <v>       0.50000000       0.12500000       0.00000000 </v>
   <v>       0.16666667       0.16666667       0.00000000 </v>
   <v>       0.20833333       0.16666667       0.00000000 </v>
   <v>       0.25000000       0.16666667       0.00000000 </v>
   <v>       0.29166667       0.16666667       0.00000000 </v>
   <v>       0.33333333       0.16666667       0.00000000 </v>
   <v>       0.37500000       0.16666667       0.00000000 </v>
   <v>       0.41666667       0.16666667       0.00000000 </v>
   <v>       0.45833333       0.16666667       0.00000000 </v>
   <v>       0.50000000       0.16666667       0.00000000 </v>
   <v>       0.20833333       0.20833333       0.00000000 </v>
   <v>       0.25000000       0.20833333       0.00000000 </v>
   <v>       0.29166667       0.20833333       0.00000000 </v>
   <v>       0.33333333       0.20833333       0.00000000 </v>
   <v>       0.37500000       0.20833333       0.00000000 </v>
   <v>       0.41666667       0.20833333       0.00000000 </v>
   <v>       0.45833333       0.20833333       0.00000000 </v>
   <v>       0.50000000       0.20833333       0.00000000 </v>
   <v>       0.25000000       0.25000000       0.00000000 </v>
   <v>       0.29166667       0.25000000       0.00000000 </v>
   <v>       0.33333333       0.25000000       0.00000000 </v>
   <v>       0.37500000       0.25000000       0.00000000 </v>
   <v>       0.41666667       0.25000000       0.00000000 </v>
   <v>       0.45833333       0.25000000       0.00000000 </v>
   <v>       0.50000000       0.25000000       0.00000000 </v>
   <v>       0.29166667       0.29166667       0.00000000 </v>
   <v>       0.33333333       0.29166667       0.00000000 </v>
   <v>       0.37500000       0.29166667       0.00000000 </v>
   <v>       0.41666667       0.29166667       0.00000000 </v>
   <v>       0.45833333       0.29166667       0.00000000 </v>
   <v>       0.50000000       0.29166667       0.00000000 </v>
   <v>       0.33333333       0.33333333       0.00000000 </v>
   <v>       0.37500000       0.33333333       0.00000000 </v>
   <v>       0.41666667       0.33333333       0.00000000 </v>
   <v>       0.45833333       0.33333333       0.00000000 </v>
   <v>       0.50000000       0.33333333       0.00000000 </v>
   <v>       0.37500000       0.37500000       0.00000000 </v>
   <v>       0.41666667       0.37500000       0.00000000 </v>
   <v>       0.45833333       0.37500000       0.00000000 </v>
   <v>       0.50000000       0.37500000       0.00000000 </v>
   <v>       0.41666667       0.41666667       0.00000000 </v>
   <v>       0.45833333       0.41666667       0.00000000 </v>
   <v>       0.50000000       0.41666667       0.00000000 </v>
   <v>       0.45833333       0.45833333       0.00000000 </v>
   <v>       0.50000000       0.45833333       0.00000000 </v>
   <v>       0.50000000       0.50000000       0.00000000 </v>
   <v>       0.00000000       0.00000000       0.12500000 </v>
   <v>       0.04166667       0.00000000       0.12500000 </v>
   <v>       0.08333333       0.00000000       0.12500000 </v>
   <v>       0.12500000       0.00000000       0.12500000 </v>
   <v>       0.16666667       0.00000000       0.12500000 </v>
   <v>       0.20833333       0.00000000       0.12500000 </v>
   <v>       0.25000000       0.00000000       0.12500000 </v>
   <v>       0.29166667       0.00000000       0.12500000 </v>
   <v>       0.33333333       0.00000000       0.12500000 </v>
   <v>       0.37500000       0.00000000       0.12500000 </v>
   <v>       0.41666667       0.00000000       0.12500000 </v>
   <v>       0.45833333       0.00000000       0.12500000 </v>
   <v>       0.50000000       0.00000000       0.12500000 </v>
   <v>       0.04166667       0.04166667       0.12500000 </v>
   <v>       0.08333333       0.04166667       0.12500000 </v>
   <v>       0.12500000       0.04166667       0.12500000 </v>
   <v>       0.16666667       0.04166667       0.12500000 </v>
   <v>       0.20833333       0.04166667       0.12500000 </v>
   <v>       0.25000000       0.04166667       0.12500000 </v>
   <v>       0.29166667       0.04166667       0.12500000 </v>
   <v>       0.33333333       0.04166667       0.12500000 </v>
   <v>       0.37500000       0.04166667       0.12500000 </v>
   <v>       0.41666667       0.04166667       0.12500000 </v>
   <v>       0.45833333       0.04166667       0.12500000 </v>
   <v>       0.50000000       0.04166667       0.12500000 </v>
   <v>       0.08333333       0.08333333       0.12500000 </v>
   <v>       0.12500000       0.08333333       0.12500000 </v>
   <v>       0.16666667       0.08333333       0.12500000 </v>
   <v>       0.20833333       0.08333333       0.12500000 </v>
   <v>       0.25000000       0.08333333       0.12500000 </v>
   <v>       0.29166667       0.08333333       0.12500000 </v>
   <v>       0.33333333       0.08333333       0.12500000 </v>
   <v>       0.37500000       0.08333333       0.12500000 </v>
   <v>       0.41666667       0.08333333       0.12500000 </v>
   <v>       0.45833333       0.08333333       0.12500000 </v>
   <v>       0.50000000       0.08333333       0.12500000 </v>
   <v>       0.12500000       0.12500000       0.12500000 </v>
   <v>       0.16666667       0.12500000       0.12500000 </v>
   <v>       0.20833333       0.12500000       0.12500000 </v>
   <v>       0.25000000       0.12500000       0.12500000 </v>
   <v>       0.29166667       0.12500000       0.12500000 </v>
   <v>       0.33333333       0.12500000       0.12500000 </v>
   <v>       0.37500000       0.12500000       0.12500000 </v>
   <v>       0.41666667       0.12500000       0.12500000 </v>
   <v>       0.45833333       0.12500000       0.12500000 </v>
   <v>       0.50000000       0.12500000       0.12500000 </v>
   <v>       0.16666667       0.16666667       0.12500000 </v>
   <v>       0.20833333       0.16666667       0.12500000 </v>
   <v>       0.25000000       0.16666667       0.12500000 </v>
   <v>       0.29166667       0.16666667       0.12500000 </v>
   <v>       0.33333333       0.16666667       0.12500000 </v>
   <v>       0.37500000       0.16666667       0.12500000 </v>
   <v>       0.41666667       0.16666667       0.12500000 </v>
   <v>       0.45833333       0.16666667       0.12500000 </v>
   <v>       0.50000000       0.16666667       0.12500000 </v>
   <v>       0.20833333       0.20833333       0.12500000 </v>
   <v>       0.25000000       0.20833333       0.12500000 </v>
   <v>       0.29166667       0.20833333       0.12500000 </v>
   <v>       0.33333333       0.20833333       0.12500000 </v>
   <v>       0.37500000       0.20833333       0.12500000 </v>
   <v>       0.41666667       0.20833333       0.12500000 </v>
   <v>       0.45833333       0.20833333       0.12500000 </v>
   <v>       0.50000000       0.20833333       0.12500000 </v>
   <v>       0.25000000       0.25000000       0.12500000 </v>
   <v>       0.29166667       0.25000000       0.12500000 </v>
   <v>       0.33333333       0.25000000       0.12500000 </v>
   <v>       0.37500000       0.25000000       0.12500000 </v>
   <v>       0.41666667       0.25000000       0.12500000 </v>
   <v>       0.45833333       0.25000000       0.12500000 </v>
   <v>       0.50000000       0.25000000       0.12500000 </v>
   <v>       0.29166667       0.29166667       0.12500000 </v>
   <v>       0.33333333       0.29166667       0.12500000 </v>
   <v>       0.37500000       0.29166667       0.12500000 </v>
   <v>       0.41666667       0.29166667       0.12500000 </v>
   <v>       0.45833333       0.29166667       0.12500000 </v>
   <v>       0.50000000       0.29166667       0.12500000 </v>
   <v>       0.33333333       0.33333333       0.12500000 </v>
   <v>       0.37500000       0.33333333       0.12500000 </v>
   <v>       0.41666667       0.33333333       0.12500000 </v>
   <v>       0.45833333       0.33333333       0.12500000 </v>
   <v>       0.50000000       0.33333333       0.12500000 </v>
   <v>       0.37500000       0.37500000       0.12500000 </v>
   <v>       0.41666667       0.37500000       0.12500000 </v>
   <v>       0.45833333       0.37500000       0.12500000 </v>
   <v>       0.50000000       0.37500000       0.12500000 </v>
   <v>       0.41666667       0.41666667       0.12500000 </v>
   <v>       0.45833333       0.41666667       0.12500000 </v>
   <v>       0.50000000       0.41666667       0.12500000 </v>
   <v>       0.45833333       0.45833333       0.12500000 </v>
   <v>       0.50000000       0.45833333       0.12500000 </v>
   <v>       0.50000000       0.50000000       0.12500000 </v>
   <v>       0.00000000       0.00000000       0.25000000 </v>
   <v>       0.04166667       0.00000000       0.25000000 </v>
   <v>       0.08333333       0.00000000       0.25000000 </v>
   <v>       0.12500000       0.00000000       0.25000000 </v>
   <v>       0.16666667       0.00000000       0.25000000 </v>
   <v>       0.20833333       0.00000000       0.25000000 </v>
   <v>       0.25000000       0.00000000       0.25000000 </v>
   <v>       0.29166667       0.00000000       0.25000000 </v>
   <v>       0.33333333       0.00000000       0.25000000 </v>
   <v>       0.37500000       0.00000000       0.25000000 </v>
   <v>       0.41666667       0.00000000       0.25000000 </v>
   <v>       0.45833333       0.00000000       0.25000000 </v>
   <v>       0.50000000       0.00000000       0.25000000 </v>
   <v>       0.04166667       0.04166667       0.25000000 </v>
   <v>       0.08333333       0.04166667       0.25000000 </v>
   <v>       0.12500000       0.04166667       0.25000000 </v>
   <v>       0.16666667       0.04166667       0.25000000 </v>
   <v>       0.20833333       0.04166667       0.25000000 </v>
   <v>       0.25000000       0.04166667       0.25000000 </v>
   <v>       0.29166667       0.04166667       0.25000000 </v>
   <v>       0.33333333       0.04166667       0.25000000 </v>
   <v>       0.37500000       0.04166667       0.25000000 </v>
   <v>       0.41666667       0.04166667       0.25000000 </v>
   <v>       0.45833333       0.04166667       0.25000000 </v>
   <v>       0.50000000       0.04166667       0.25000000 </v>
   <v>       0.08333333       0.08333333       0.25000000 </v>
   <v>       0.12500000       0.08333333       0.25000000 </v>
   <v>       0.16666667       0.08333333       0.25000000 </v>
   <v>       0.20833333       0.08333333       0.25000000 </v>
   <v>       0.25000000       0.08333333       0.25000000 </v>
   <v>       0.29166667       0.08333333       0.25000000 </v>
   <v>       0.33333333       0.08333333       0.25000000 </v>
   <v>       0.37500000       0.08333333       0.25000000 </v>
   <v>       0.41666667       0.08333333       0.25000000 </v>
   <v>       0.45833333       0.08333333       0.25000000 </v>
   <v>       0.50000000       0.08333333       0.25000000 </v>
   <v>       0.12500000       0.12500000       0.25000000 </v>
   <v>       0.16666667       0.12500000       0.25000000 </v>
   <v>       0.20833333       0.12500000       0.25000000 </v>
   <v>       0.25000000       0.12500000       0.25000000 </v>
   <v>       0.29166667       0.12500000       0.25000000 </v>
   <v>       0.33333333       0.12500000       0.25000000 </v>
   <v>       0.37500000       0.12500000       0.25000000 </v>
   <v>       0.41666667       0.12500000       0.25000000 </v>
   <v>       0.45833333       0.12500000       0.25000000 </v>
   <v>       0.50000000       0.12500000       0.25000000 </v>
   <v>       0.16666667       0.16666667       0.25000000 </v>
   <v>       0.20833333       0.16666667       0.25000000 </v>
   <v>       0.25000000       0.16666667       0.25000000 </v>
   <v>       0.29166667       0.16666667       0.25000000 </v>
   <v>       0.33333333       0.16666667       0.25000000 </v>
   <v>       0.37500000       0.16666667       0.25000000 </v>
   <v>       0.41666667       0.16666667       0.25000000 </v>
   <v>       0.45833333       0.16666667       0.25000000 </v>
   <v>       0.50000000       0.16666667       0.25000000 </v>
   <v>       0.20833333       0.20833333       0.25000000 </v>
   <v>       0.25000000       0.20833333       0.25000000 </v>
   <v>       0.29166667       0.20833333       0.25000000 </v>
   <v>       0.33333333       0.20833333       0.25000000 </v>
   <v>       0.37500000       0.20833333       0.25000000 </v>
   <v>       0.41666667       0.20833333       0.25000000 </v>
   <v>       0.45833333       0.20833333       0.25000000 </v>
   <v>       0.50000000       0.20833333       0.25000000 </v>
   <v>       0.25000000       0.25000000       0.25000000 </v>
   <v>       0.29166667       0.25000000       0.25000000 </v>
   <v>       0.33333333       0.25000000       0.25000000 </v>
   <v>       0.37500000       0.25000000       0.25000000 </v>
   <v>       0.41666667       0.25000000       0.25000000 </v>
   <v>       0.45833333       0.25000000       0.25000000 </v>
   <v>       0.50000000       0.25000000       0.25000000 </v>
   <v>       0.29166667       0.29166667       0.25000000 </v>
   <v>       0.33333333       0.29166667       0.25000000 </v>
   <v>       0.37500000       0.29166667       0.25000000 </v>
   <v>       0.41666667       0.29166667       0.25000000 </v>
   <v>       0.45833333       0.29166667       0.25000000 </v>
   <v>       0.50000000       0.29166667       0.25000000 </v>
   <v>       0.33333333       0.33333333       0.25000000 </v>
   <v>       0.37500000       0.33333333       0.25000000 </v>
   <v>       0.41666667       0.33333333       0.25000000 </v>
   <v>       0.45833333       0.33333333       0.25000000 </v>
   <v>       0.50000000       0.33333333       0.25000000 </v>
   <v>       0.37500000       0.37500000       0.25000000 </v>
   <v>       0.41666667       0.37500000       0.25000000 </v>
   <v>       0.45833333       0.37500000       0.25000000 </v>
   <v>       0.50000000       0.37500000       0.25000000 </v>
   <v>       0.41666667       0.41666667       0.25000000 </v>
   <v>       0.45833333       0.41666667       0.25000000 </v>
   <v>       0.50000000       0.41666667       0.25000000 </v>
   <v>       0.45833333       0.45833333       0.25000000 </v>
   <v>       0.50000000       0.45833333       0.25000000 </v>
   <v>       0.50000000       0.50000000       0.25000000 </v>
   <v>       0.00000000       0.00000000       0.37500000 </v>
   <v>       0.04166667       0.00000000       0.37500000 </v>
   <v>       0.08333333       0.00000000       0.37500000 </v>
   <v>       0.12500000       0.00000000       0.37500000 </v>
   <v>       0.16666667       0.00000000       0.37500000 </v>
   <v>       0.20833333       0.00000000       0.37500000 </v>
   <v>       0.25000000       0.00000000       0.37500000 </v>
   <v>       0.29166667       0.00000000       0.37500000 </v>
   <v>       0.33333333       0.00000000       0.37500000 </v>
   <v>       0.37500000       0.00000000       0.37500000 </v>
   <v>       0.41666667       0.00000000       0.37500000 </v>
   <v>       0.45833333       0.00000000       0.37500000 </v>
   <v>       0.50000000       0.00000000       0.37500000 </v>
   <v>       0.04166667       0.04166667       0.37500000 </v>
   <v>       0.08333333       0.04166667       0.37500000 </v>
   <v>       0.12500000       0.04166667       0.37500000 </v>
   <v>       0.16666667       0.04166667       0.37500000 </v>
   <v>       0.20833333       0.04166667       0.37500000 </v>
   <v>       0.25000000       0.04166667       0.37500000 </v>
   <v>       0.29166667       0.04166667       0.37500000 </v>
   <v>       0.33333333       0.04166667       0.37500000 </v>
   <v>       0.37500000       0.04166667       0.37500000 </v>
   <v>       0.41666667       0.04166667       0.37500000 </v>
   <v>       0.45833333       0.04166667       0.37500000 </v>
   <v>       0.50000000       0.04166667       0.37500000 </v>
   <v>       0.08333333       0.08333333       0.37500000 </v>
   <v>       0.12500000       0.08333333       0.37500000 </v>
   <v>       0.16666667       0.08333333       0.37500000 </v>
   <v>       0.20833333       0.08333333       0.37500000 </v>
   <v>       0.25000000       0.08333333       0.37500000 </v>
   <v>       0.29166667       0.08333333       0.37500000 </v>
   <v>       0.33333333       0.08333333       0.37500000 </v>
   <v>       0.37500000       0.08333333       0.37500000 </v>
   <v>       0.41666667       0.08333333       0.37500000 </v>
   <v>       0.45833333       0.08333333       0.37500000 </v>
   <v>       0.50000000       0.08333333       0.37500000 </v>
   <v>       0.12500000       0.12500000       0.37500000 </v>
   <v>       0.16666667       0.12500000       0.37500000 </v>
   <v>       0.20833333       0.12500000       0.37500000 </v>
   <v>       0.25000000       0.12500000       0.37500000 </v>
   <v>       0.29166667       0.12500000       0.37500000 </v>
   <v>       0.33333333       0.12500000       0.37500000 </v>
   <v>       0.37500000       0.12500000       0.37500000 </v>
   <v>       0.41666667       0.12500000       0.37500000 </v>
   <v>       0.45833333       0.12500000       0.37500000 </v>
   <v>       0.50000000       0.12500000       0.37500000 </v>
   <v>       0.16666667       0.16666667       0.37500000 </v>
   <v>       0.20833333       0.16666667       0.37500000 </v>
   <v>       0.25000000       0.16666667       0.37500000 </v>
   <v>       0.29166667       0.16666667       0.37500000 </v>
   <v>       0.33333333       0.16666667       0.37500000 </v>
   <v>       0.37500000       0.16666667       0.37500000 </v>
   <v>       0.41666667       0.16666667       0.37500000 </v>
   <v>       0.45833333       0.16666667       0.37500000 </v>
   <v>       0.50000000       0.16666667       0.37500000 </v>
   <v>       0.20833333       0.20833333       0.37500000 </v>
   <v>       0.25000000       0.20833333       0.37500000 </v>
   <v>       0.29166667       0.20833333       0.37500000 </v>
   <v>       0.33333333       0.20833333       0.37500000 </v>
   <v>       0.37500000       0.20833333       0.37500000 </v>
   <v>       0.41666667       0.20833333       0.37500000 </v>
   <v>       0.45833333       0.20833333       0.37500000 </v>
   <v>       0.50000000       0.20833333       0.37500000 </v>
   <v>       0.25000000       0.25000000       0.37500000 </v>
   <v>       0.29166667       0.25000000       0.37500000 </v>
   <v>       0.33333333       0.25000000       0.37500000 </v>
   <v>       0.37500000       0.25000000       0.37500000 </v>
   <v>       0.41666667       0.25000000       0.37500000 </v>
   <v>       0.45833333       0.25000000       0.37500000 </v>
   <v>       0.50000000       0.25000000       0.37500000 </v>
   <v>       0.29166667       0.29166667       0.37500000 </v>
   <v>       0.33333333       0.29166667       0.37500000 </v>
   <v>       0.37500000       0.29166667       0.37500000 </v>
   <v>       0.41666667       0.29166667       0.37500000 </v>
   <v>       0.45833333       0.29166667       0.37500000 </v>
   <v>       0.50000000       0.29166667       0.37500000 </v>
   <v>       0.33333333       0.33333333       0.37500000 </v>
   <v>       0.37500000       0.33333333       0.37500000 </v>
   <v>       0.41666667       0.33333333       0.37500000 </v>
   <v>       0.45833333       0.33333333       0.37500000 </v>
   <v>       0.50000000       0.33333333       0.37500000 </v>
   <v>       0.37500000       0.37500000       0.37500000 </v>
   <v>       0.41666667       0.37500000       0.37500000 </v>
   <v>       0.45833333       0.37500000       0.37500000 </v>
   <v>       0.50000000       0.37500000       0.37500000 </v>
   <v>       0.41666667       0.41666667       0.37500000 </v>
   <v>       0.45833333       0.41666667       0.37500000 </v>
   <v>       0.50000000       0.41666667       0.37500000 </v>
   <v>       0.45833333       0.45833333       0.37500000 </v>
   <v>       0.50000000       0.45833333       0.37500000 </v>
   <v>       0.50000000       0.50000000       0.37500000 </v>
   <v>       0.00000000       0.00000000       0.50000000 </v>
   <v>       0.04166667       0.00000000       0.50000000 </v>
   <v>       0.08333333       0.00000000       0.50000000 </v>
   <v>       0.12500000       0.00000000       0.50000000 </v>
   <v>       0.16666667       0.00000000       0.50000000 </v>
   <v>       0.20833333       0.00000000       0.50000000 </v>
   <v>       0.25000000       0.00000000       0.50000000 </v>
   <v>       0.29166667       0.00000000       0.50000000 </v>
   <v>       0.33333333       0.00000000       0.50000000 </v>
   <v>       0.37500000       0.00000000       0.50000000 </v>
   <v>       0.41666667       0.00000000       0.50000000 </v>
   <v>       0.45833333       0.00000000       0.50000000 </v>
   <v>       0.50000000       0.00000000       0.50000000 </v>
   <v>       0.04166667       0.04166667       0.50000000 </v>
   <v>       0.08333333       0.04166667       0.50000000 </v>
   <v>       0.12500000       0.04166667       0.50000000 </v>
   <v>       0.16666667       0.04166667       0.50000000 </v>
   <v>       0.20833333       0.04166667       0.50000000 </v>
   <v>       0.25000000       0.04166667       0.50000000 </v>
   <v>       0.29166667       0.04166667       0.50000000 </v>
   <v>       0.33333333       0.04166667       0.50000000 </v>
   <v>       0.37500000       0.04166667       0.50000000 </v>
   <v>       0.41666667       0.04166667       0.50000000 </v>
   <v>       0.45833333       0.04166667       0.50000000 </v>
   <v>       0.50000000       0.04166667       0.50000000 </v>
   <v>       0.08333333       0.08333333       0.50000000 </v>
   <v>       0.12500000       0.08333333       0.50000000 </v>
   <v>       0.16666667       0.08333333       0.50000000 </v>
   <v>       0.20833333       0.08333333       0.50000000 </v>
   <v>       0.25000000       0.08333333       0.50000000 </v>
   <v>       0.29166667       0.08333333       0.50000000 </v>
   <v>       0.33333333       0.08333333       0.50000000 </v>
   <v>       0.37500000       0.08333333       0.50000000 </v>
   <v>       0.41666667       0.08333333       0.50000000 </v>
   <v>       0.45833333       0.08333333       0.50000000 </v>
   <v>       0.50000000       0.08333333       0.50000000 </v>
   <v>       0.12500000       0.12500000       0.50000000 </v>
   <v>       0.16666667       0.12500000       0.50000000 </v>
   <v>       0.20833333       0.12500000       0.50000000 </v>
   <v>       0.25000000       0.12500000       0.50000000 </v>
   <v>       0.29166667       0.12500000       0.50000000 </v>
   <v>       0.33333333       0.12500000       0.50000000 </v>
   <v>       0.37500000       0.12500000       0.50000000 </v>
   <v>       0.41666667       0.12500000       0.50000000 </v>
   <v>       0.45833333       0.12500000       0.50000000 </v>
   <v>       0.50000000       0.12500000       0.50000000 </v>
   <v>       0.16666667       0.16666667       0.50000000 </v>
   <v>       0.20833333       0.16666667       0.50000000 </v>
   <v>       0.25000000       0.16666667       0.50000000 </v>
   <v>       0.29166667       0.16666667       0.50000000 </v>
   <v>       0.33333333       0.16666667       0.50000000 </v>
   <v>       0.37500000       0.16666667       0.50000000 </v>
   <v>       0.41666667       0.16666667       0.50000000 </v>
   <v>       0.45833333       0.16666667       0.50000000 </v>
   <v>       0.50000000       0.16666667       0.50000000 </v>
   <v>       0.20833333       0.20833333       0.50000000 </v>
   <v>       0.25000000       0.20833333       0.50000000 </v>
   <v>       0.29166667       0.20833333       0.50000000 </v>
   <v>       0.33333333       0.20833333       0.50000000 </v>
   <v>       0.37500000       0.20833333       0.50000000 </v>
   <v>       0.41666667       0.20833333       0.50000000 </v>
   <v>       0.45833333       0.20833333       0.50000000 </v>
   <v>       0.50000000       0.20833333       0.50000000 </v>
   <v>       0.25000000       0.25000000       0.50000000 </v>
   <v>       0.29166667       0.25000000       0.50000000 </v>
   <v>       0.33333333       0.25000000       0.50000000 </v>
   <v>       0.37500000       0.25000000       0.50000000 </v>
   <v>       0.41666667       0.25000000       0.50000000 </v>
   <v>       0.45833333       0.25000000       0.50000000 </v>
   <v>       0.50000000       0.25000000       0.50000000 </v>
   <v>       0.29166667       0.29166667       0.50000000 </v>
   <v>       0.33333333       0.29166667       0.50000000 </v>
   <v>       0.37500000       0.29166667       0.50000000 </v>
   <v>       0.41666667       0.29166667       0.50000000 </v>
   <v>       0.45833333       0.29166667       0.50000000 </v>
   <v>       0.50000000       0.29166667       0.50000000 </v>
   <v>       0.33333333       0.33333333       0.50000000 </v>
   <v>       0.37500000       0.33333333       0.50000000 </v>
   <v>       0.41666667       0.33333333       0.50000000 </v>
   <v>       0.45833333       0.33333333       0.50000000 </v>
   <v>       0.50000000       0.33333333       0.50000000 </v>
   <v>       0.37500000       0.37500000       0.50000000 </v>
   <v>       0.41666667       0.37500000       0.50000000 </v>
   <v>       0.45833333       0.37500000       0.50000000 </v>
   <v>       0.50000000       0.37500000       0.50000000 </v>
   <v>       0.41666667       0.41666667       0.50000000 </v>
   <v>       0.45833333       0.41666667       0.50000000 </v>
   <v>       0.50000000       0.41666667       0.50000000 </v>
   <v>       0.45833333       0.45833333       0.50000000 </v>
   <v>       0.50000000       0.45833333       0.50000000 </v>
   <v>       0.50000000       0.50000000       0.50000000 </v>
  </varray>
  <varray name="weights" >
   <v>       0.00021701 </v>
   <v>       0.00086806 </v>
   <v>       0.00086806 </v>
   <v>       0.00086806 </v>
   <v>       0.00086806 </v>
   <v>       0.00086806 </v>
   <v>       0.00086806 </v>
   <v>       0.00086806 </v>
   <v>       0.00086806 </v>
   <v>       0.00086806 </v>
   <v>       0.00086806 </v>
   <v>       0.00086806 </v>
   <v>       0.00043403 </v>
   <v>       0.00086806 </v>
   <v>       0.00173611 </v>
   <v>       0.00173611 </v>
   <v>       0.00173611 </v>
   <v>       0.00173611 </v>
   <v>       0.00173611 </v>
   <v>       0.00173611 </v>
   <v>       0.00173611 </v>
   <v>       0.00173611 </v>
   <v>       0.00173611 </v>
   <v>       0.00173611 </v>
   <v>       0.00086806 </v>
   <v>       0.00086806 </v>
   <v>       0.00173611 </v>
   <v>       0.00173611 </v>
   <v>       0.00173611 </v>
   <v>       0.00173611 </v>
   <v>       0.00173611 </v>
   <v>       0.00173611 </v>
   <v>       0.00173611 </v>
   <v>       0.00173611 </v>
   <v>       0.00173611 </v>
   <v>       0.00086806 </v>
   <v>       0.00086806 </v>
   <v>       0.00173611 </v>
   <v>       0.00173611 </v>
   <v>       0.00173611 </v>
   <v>       0.00173611 </v>
   <v>       0.00173611 </v>
   <v>       0.00173611 </v>
   <v>       0.00173611 </v>
   <v>       0.00173611 </v>
   <v>       0.00086806 </v>
   <v>       0.00086806 </v>
   <v>       0.00173611 </v>
   <v>       0.00173611 </v>
   <v>       0.00173611 </v>
   <v>       0.00173611 </v>
   <v>       0.00173611 </v>
   <v>       0.00173611 </v>
   <v>       0.00173611 </v>
   <v>       0.00086806 </v>
   <v>       0.00086806 </v>
   <v>       0.00173611 </v>
   <v>       0.00173611 </v>
   <v>       0.00173611 </v>
   <v>       0.00173611 </v>
   <v>       0.00173611 </v>
   <v>       0.00173611 </v>
   <v>       0.00086806 </v>
   <v>       0.00086806 </v>
   <v>       0.00173611 </v>
   <v>       0.00173611 </v>
   <v>       0.00173611 </v>
   <v>       0.00173611 </v>
   <v>       0.00173611 </v>
   <v>       0.00086806 </v>
   <v>       0.00086806 </v>
   <v>       0.00173611 </v>
   <v>       0.00173611 </v>
   <v>       0.00173611 </v>
   <v>       0.00173611 </v>
   <v>       0.00086806 </v>
   <v>       0.00086806 </v>
   <v>       0.00173611 </v>
   <v>       0.00173611 </v>
   <v>       0.00173611 </v>
   <v>       0.00086806 </v>
   <v>       0.00086806 </v>
   <v>       0.00173611 </v>
   <v>       0.00173611 </v>
   <v>       0.00086806 </v>
   <v>       0.00086806 </v>
   <v>       0.00173611 </v>
   <v>       0.00086806 </v>
   <v>       0.00086806 </v>
   <v>       0.00086806 </v>
   <v>       0.00021701 </v>
   <v>       0.00043403 </v>
   <v>       0.00173611 </v>
   <v>       0.00173611 </v>
   <v>       0.00173611 </v>
   <v>       0.00173611 </v>
   <v>       0.00173611 </v>
   <v>       0.00173611 </v>
   <v>       0.00173611 </v>
   <v>       0.00173611 </v>
   <v>       0.00173611 </v>
   <v>       0.00173611 </v>
   <v>       0.00173611 </v>
   <v>       0.00086806 </v>
   <v>       0.00173611 </v>
   <v>       0.00347222 </v>
   <v>       0.00347222 </v>
   <v>       0.00347222 </v>
   <v>       0.00347222 </v>
   <v>       0.00347222 </v>
   <v>       0.00347222 </v>
   <v>       0.00347222 </v>
   <v>       0.00347222 </v>
   <v>       0.00347222 </v>
   <v>       0.00347222 </v>
   <v>       0.00173611 </v>
   <v>       0.00173611 </v>
   <v>       0.00347222 </v>
   <v>       0.00347222 </v>
   <v>       0.00347222 </v>
   <v>       0.00347222 </v>
   <v>       0.00347222 </v>
   <v>       0.00347222 </v>
   <v>       0.00347222 </v>
   <v>       0.00347222 </v>
   <v>       0.00347222 </v>
   <v>       0.00173611 </v>
   <v>       0.00173611 </v>
   <v>       0.00347222 </v>
   <v>       0.00347222 </v>
   <v>       0.00347222 </v>
   <v>       0.00347222 </v>
   <v>       0.00347222 </v>
   <v>       0.00347222 </v>
   <v>       0.00347222 </v>
   <v>       0.00347222 </v>
   <v>       0.00173611 </v>
   <v>       0.00173611 </v>
   <v>       0.00347222 </v>
   <v>       0.00347222 </v>
   <v>       0.00347222 </v>
   <v>       0.00347222 </v>
   <v>       0.00347222 </v>
   <v>       0.00347222 </v>
   <v>       0.00347222 </v>
   <v>       0.00173611 </v>
   <v>       0.00173611 </v>
   <v>       0.00347222 </v>
   <v>       0.00347222 </v>
   <v>       0.00347222 </v>
   <v>       0.00347222 </v>
   <v>       0.00347222 </v>
   <v>       0.00347222 </v>
   <v>       0.00173611 </v>
   <v>       0.00173611 </v>
   <v>       0.00347222 </v>
   <v>       0.00347222 </v>
   <v>       0.00347222 </v>
   <v>       0.00347222 </v>
   <v>       0.00347222 </v>
   <v>       0.00173611 </v>
   <v>       0.00173611 </v>
   <v>       0.00347222 </v>
   <v>       0.00347222 </v>
   <v>       0.00347222 </v>
   <v>       0.00347222 </v>
   <v>       0.00173611 </v>
   <v>       0.00173611 </v>
   <v>       0.00347222 </v>
   <v>       0.00347222 </v>
   <v>       0.00347222 </v>
   <v>       0.00173611 </v>
   <v>       0.00173611 </v>
   <v>       0.00347222 </v>
   <v>       0.00347222 </v>
   <v>       0.00173611 </v>
   <v>       0.00173611 </v>
   <v>       0.00347222 </v>
   <v>       0.00173611 </v>
   <v>       0.00173611 </v>
   <v>       0.00173611 </v>
   <v>       0.00043403 </v>
   <v>       0.00043403 </v>
   <v>       0.00173611 </v>
   <v>       0.00173611 </v>
   <v>       0.00173611 </v>
   <v>       0.00173611 </v>
   <v>       0.00173611 </v>
   <v>       0.00173611 </v>
   <v>       0.00173611 </v>
   <v>       0.00173611 </v>
   <v>       0.00173611 </v>
   <v>       0.00173611 </v>
   <v>       0.00173611 </v>
   <v>       0.00086806 </v>
   <v>       0.00173611 </v>
   <v>       0.00347222 </v>
   <v>       0.00347222 </v>
   <v>       0.00347222 </v>
   <v>       0.00347222 </v>
   <v>       0.00347222 </v>
   <v>       0.00347222 </v>
   <v>       0.00347222 </v>
   <v>       0.00347222 </v>
   <v>       0.00347222 </v>
   <v>       0.00347222 </v>
   <v>       0.00173611 </v>
   <v>       0.00173611 </v>
   <v>       0.00347222 </v>
   <v>       0.00347222 </v>
   <v>       0.00347222 </v>
   <v>       0.00347222 </v>
   <v>       0.00347222 </v>
   <v>       0.00347222 </v>
   <v>       0.00347222 </v>
   <v>       0.00347222 </v>
   <v>       0.00347222 </v>
   <v>       0.00173611 </v>
   <v>       0.00173611 </v>
   <v>       0.00347222 </v>
   <v>       0.00347222 </v>
   <v>       0.00347222 </v>
   <v>       0.00347222 </v>
   <v>       0.00347222 </v>
   <v>       0.00347222 </v>
   <v>       0.00347222 </v>
   <v>       0.00347222 </v>
   <v>       0.00173611 </v>
   <v>       0.00173611 </v>
   <v>       0.00347222 </v>
   <v>       0.00347222 </v>
   <v>       0.00347222 </v>
   <v>       0.00347222 </v>
   <v>       0.00347222 </v>
   <v>       0.00347222 </v>
   <v>       0.00347222 </v>
   <v>       0.00173611 </v>
   <v>       0.00173611 </v>
   <v>       0.00347222 </v>
   <v>       0.00347222 </v>
   <v>       0.00347222 </v>
   <v>       0.00347222 </v>
   <v>       0.00347222 </v>
   <v>       0.00347222 </v>
   <v>       0.00173611 </v>
   <v>       0.00173611 </v>
   <v>       0.00347222 </v>
   <v>       0.00347222 </v>
   <v>       0.00347222 </v>
   <v>       0.00347222 </v>
   <v>       0.00347222 </v>
   <v>       0.00173611 </v>
   <v>       0.00173611 </v>
   <v>       0.00347222 </v>
   <v>       0.00347222 </v>
   <v>       0.00347222 </v>
   <v>       0.00347222 </v>
   <v>       0.00173611 </v>
   <v>       0.00173611 </v>
   <v>       0.00347222 </v>
   <v>       0.00347222 </v>
   <v>       0.00347222 </v>
   <v>       0.00173611 </v>
   <v>       0.00173611 </v>
   <v>       0.00347222 </v>
   <v>       0.00347222 </v>
   <v>       0.00173611 </v>
   <v>       0.00173611 </v>
   <v>       0.00347222 </v>
   <v>       0.00173611 </v>
   <v>       0.00173611 </v>
   <v>       0.00173611 </v>
   <v>       0.00043403 </v>
   <v>       0.00043403 </v>
   <v>       0.00173611 </v>
   <v>       0.00173611 </v>
   <v>       0.00173611 </v>
   <v>       0.00173611 </v>
   <v>       0.00173611 </v>
   <v>       0.00173611 </v>
   <v>       0.00173611 </v>
   <v>       0.00173611 </v>
   <v>       0.00173611 </v>
   <v>       0.00173611 </v>
   <v>       0.00173611 </v>
   <v>       0.00086806 </v>
   <v>       0.00173611 </v>
   <v>       0.00347222 </v>
   <v>       0.00347222 </v>
   <v>       0.00347222 </v>
   <v>       0.00347222 </v>
   <v>       0.00347222 </v>
   <v>       0.00347222 </v>
   <v>       0.00347222 </v>
   <v>       0.00347222 </v>
   <v>       0.00347222 </v>
   <v>       0.00347222 </v>
   <v>       0.00173611 </v>
   <v>       0.00173611 </v>
   <v>       0.00347222 </v>
   <v>       0.00347222 </v>
   <v>       0.00347222 </v>
   <v>       0.00347222 </v>
   <v>       0.00347222 </v>
   <v>       0.00347222 </v>
   <v>       0.00347222 </v>
   <v>       0.00347222 </v>
   <v>       0.00347222 </v>
   <v>       0.00173611 </v>
   <v>       0.00173611 </v>
   <v>       0.00347222 </v>
   <v>       0.00347222 </v>
   <v>       0.00347222 </v>
   <v>       0.00347222 </v>
   <v>       0.00347222 </v>
   <v>       0.00347222 </v>
   <v>       0.00347222 </v>
   <v>       0.00347222 </v>
   <v>       0.00173611 </v>
   <v>       0.00173611 </v>
   <v>       0.00347222 </v>
   <v>       0.00347222 </v>
   <v>       0.00347222 </v>
   <v>       0.00347222 </v>
   <v>       0.00347222 </v>
   <v>       0.00347222 </v>
   <v>       0.00347222 </v>
   <v>       0.00173611 </v>
   <v>       0.00173611 </v>
   <v>       0.00347222 </v>
   <v>       0.00347222 </v>
   <v>       0.00347222 </v>
   <v>       0.00347222 </v>
   <v>       0.00347222 </v>
   <v>       0.00347222 </v>
   <v>       0.00173611 </v>
   <v>       0.00173611 </v>
   <v>       0.00347222 </v>
   <v>       0.00347222 </v>
   <v>       0.00347222 </v>
   <v>       0.00347222 </v>
   <v>       0.00347222 </v>
   <v>       0.00173611 </v>
   <v>       0.00173611 </v>
   <v>       0.00347222 </v>
   <v>       0.00347222 </v>
   <v>       0.00347222 </v>
   <v>       0.00347222 </v>
   <v>       0.00173611 </v>
   <v>       0.00173611 </v>
   <v>       0.00347222 </v>
   <v>       0.00347222 </v>
   <v>       0.00347222 </v>
   <v>       0.00173611 </v>
   <v>       0.00173611 </v>
   <v>       0.00347222 </v>
   <v>       0.00347222 </v>
   <v>       0.00173611 </v>
   <v>       0.00173611 </v>
   <v>       0.00347222 </v>
   <v>       0.00173611 </v>
   <v>       0.00173611 </v>
   <v>       0.00173611 </v>
   <v>       0.00043403 </v>
   <v>       0.00021701 </v>
   <v>       0.00086806 </v>
   <v>       0.00086806 </v>
   <v>       0.00086806 </v>
   <v>       0.00086806 </v>
   <v>       0.00086806 </v>
   <v>       0.00086806 </v>
   <v>       0.00086806 </v>
   <v>       0.00086806 </v>
   <v>       0.00086806 </v>
   <v>       0.00086806 </v>
   <v>       0.00086806 </v>
   <v>       0.00043403 </v>
   <v>       0.00086806 </v>
   <v>       0.00173611 </v>
   <v>       0.00173611 </v>
   <v>       0.00173611 </v>
   <v>       0.00173611 </v>
   <v>       0.00173611 </v>
   <v>       0.00173611 </v>
   <v>       0.00173611 </v>
   <v>       0.00173611 </v>
   <v>       0.00173611 </v>
   <v>       0.00173611 </v>
   <v>       0.00086806 </v>
   <v>       0.00086806 </v>
   <v>       0.00173611 </v>
   <v>       0.00173611 </v>
   <v>       0.00173611 </v>
   <v>       0.00173611 </v>
   <v>       0.00173611 </v>
   <v>       0.00173611 </v>
   <v>       0.00173611 </v>
   <v>       0.00173611 </v>
   <v>       0.00173611 </v>
   <v>       0.00086806 </v>
   <v>       0.00086806 </v>
   <v>       0.00173611 </v>
   <v>       0.00173611 </v>
   <v>       0.00173611 </v>
   <v>       0.00173611 </v>
   <v>       0.00173611 </v>
   <v>       0.00173611 </v>
   <v>       0.00173611 </v>
   <v>       0.00173611 </v>
   <v>       0.00086806 </v>
   <v>       0.00086806 </v>
   <v>       0.00173611 </v>
   <v>       0.00173611 </v>
   <v>       0.00173611 </v>
   <v>       0.00173611 </v>
   <v>       0.00173611 </v>
   <v>       0.00173611 </v>
   <v>       0.00173611 </v>
   <v>       0.00086806 </v>
   <v>       0.00086806 </v>
   <v>       0.00173611 </v>
   <v>       0.00173611 </v>
   <v>       0.00173611 </v>
   <v>       0.00173611 </v>
   <v>       0.00173611 </v>
   <v>       0.00173611 </v>
   <v>       0.00086806 </v>
   <v>       0.00086806 </v>
   <v>       0.00173611 </v>
   <v>       0.00173611 </v>
   <v>       0.00173611 </v>
   <v>       0.00173611 </v>
   <v>       0.00173611 </v>
   <v>       0.00086806 </v>
   <v>       0.00086806 </v>
   <v>       0.00173611 </v>
   <v>       0.00173611 </v>
   <v>       0.00173611 </v>
   <v>       0.00173611 </v>
   <v>       0.00086806 </v>
   <v>       0.00086806 </v>
   <v>       0.00173611 </v>
   <v>       0.00173611 </v>
   <v>       0.00173611 </v>
   <v>       0.00086806 </v>
   <v>       0.00086806 </v>
   <v>       0.00173611 </v>
   <v>       0.00173611 </v>
   <v>       0.00086806 </v>
   <v>       0.00086806 </v>
   <v>       0.00173611 </v>
   <v>       0.00086806 </v>
   <v>       0.00086806 </v>
   <v>       0.00086806 </v>
   <v>       0.00021701 </v>
  </varray>
 </kpoints>
 <parameters>
  <separator name="general" >
   <i type="string" name="SYSTEM">unknown system</i>
   <i type="logical" name="LCOMPAT"> F  </i>
  </separator>
  <separator name="electronic" >
   <i type="string" name="PREC">accura</i>
   <i name="ENMAX">    500.00000000</i>
   <i name="ENAUG">    412.49600000</i>
   <i name="EDIFF">      0.00000100</i>
   <i type="int" name="IALGO">    68</i>
   <i type="int" name="IWAVPR">    11</i>
   <i type="int" name="NBANDS">    28</i>
   <i name="NELECT">     44.00000000</i>
   <i type="int" name="TURBO">     0</i>
   <i type="int" name="IRESTART">     0</i>
   <i type="int" name="NREBOOT">     0</i>
   <i type="int" name="NMIN">     0</i>
   <i name="EREF">      0.00000000</i>
   <separator name="electronic smearing" >
    <i type="int" name="ISMEAR">     1</i>
    <i name="SIGMA">      0.30000000</i>
    <i name="KSPACING">      0.50000000</i>
    <i type="logical" name="KGAMMA"> T  </i>
   </separator>
   <separator name="electronic projectors" >
    <i type="logical" name="LREAL"> F  </i>
    <v name="ROPT">      0.00000000      0.00000000</v>
    <i type="int" name="LMAXPAW">  -100</i>
    <i type="int" name="LMAXMIX">     2</i>
    <i type="logical" name="NLSPLINE"> F  </i>
   </separator>
   <separator name="electronic startup" >
    <i type="int" name="ISTART">     0</i>
    <i type="int" name="ICHARG">     2</i>
    <i type="int" name="INIWAV">     1</i>
   </separator>
   <separator name="electronic spin" >
    <i type="int" name="ISPIN">     1</i>
    <i type="logical" name="LNONCOLLINEAR"> F  </i>
    <v name="MAGMOM">      1.00000000      1.00000000      1.00000000      1.00000000</v>
    <i name="NUPDOWN">     -1.00000000</i>
    <i type="logical" name="LSORBIT"> F  </i>
    <v name="SAXIS">      0.00000000      0.00000000      1.00000000</v>
    <i type="logical" name="LSPIRAL"> F  </i>
    <v name="QSPIRAL">      0.00000000      0.00000000      0.00000000</v>
    <i type="logical" name="LZEROZ"> F  </i>
   </separator>
   <separator name="electronic exchange-correlation" >
    <i type="logical" name="LASPH"> F  </i>
    <i type="logical" name="LMETAGGA"> F  </i>
   </separator>
   <separator name="electronic convergence" >
    <i type="int" name="NELM">   100</i>
    <i type="int" name="NELMDL">     0</i>
    <i type="int" name="NELMIN">     4</i>
    <i name="ENINI">    500.00000000</i>
    <separator name="electronic convergence detail" >
     <i type="logical" name="LDIAG"> T  </i>
     <i type="logical" name="LSUBROT"> F  </i>
     <i name="WEIMIN">      0.00100000</i>
     <i name="EBREAK">      0.00000001</i>
     <i name="DEPER">      0.30000000</i>
     <i type="int" name="NRMM">     4</i>
     <i name="TIME">      0.40000000</i>
    </separator>
   </separator>
   <separator name="electronic mixer" >
    <i name="AMIX">      0.40000000</i>
    <i name="BMIX">      1.00000000</i>
    <i name="AMIN">      0.10000000</i>
    <i name="AMIX_MAG">      1.60000000</i>
    <i name="BMIX_MAG">      1.00000000</i>
    <separator name="electronic mixer details" >
     <i type="int" name="IMIX">     4</i>
     <i type="int" name="MAXMIX">   -45</i>
     <i name="WC">    100.00000000</i>
     <i type="int" name="INIMIX">     1</i>
     <i type="int" name="MIXPRE">     1</i>
     <i type="int" name="MREMOVE">     5</i>
    </separator>
   </separator>
   <separator name="electronic dipolcorrection" >
    <i type="logical" name="LDIPOL"> F  </i>
    <i type="logical" name="LMONO"> F  </i>
    <i type="int" name="IDIPOL">     0</i>
    <i name="EPSILON">      1.00000000</i>
    <v name="DIPOL">   -100.00000000   -100.00000000   -100.00000000</v>
    <i name="EFIELD">      0.00000000</i>
   </separator>
  </separator>
  <separator name="grids" >
   <i type="int" name="NGX">    24</i>
   <i type="int" name="NGY">    24</i>
   <i type="int" name="NGZ">    64</i>
   <i type="int" name="NGXF">    48</i>
   <i type="int" name="NGYF">    48</i>
   <i type="int" name="NGZF">   128</i>
   <i type="logical" name="ADDGRID"> T  </i>
  </separator>
  <separator name="ionic" >
   <i type="int" name="NSW">    30</i>
   <i type="int" name="IBRION">     2</i>
   <i type="int" name="ISIF">     3</i>
   <i name="PSTRESS">      0.00000000</i>
   <i name="EDIFFG">     -0.02000000</i>
   <i type="int" name="NFREE">     1</i>
   <i name="POTIM">      0.50000000</i>
   <i name="SMASS">     -3.00000000</i>
   <i name="SCALEE">      1.00000000</i>
  </separator>
  <separator name="ionic md" >
   <i name="TEBEG">      0.00010000</i>
   <i name="TEEND">      0.00010000</i>
   <i type="int" name="NBLOCK">     1</i>
   <i type="int" name="KBLOCK">    30</i>
   <i type="int" name="NPACO">   256</i>
   <i name="APACO">     16.00000000</i>
  </separator>
  <separator name="symmetry" >
   <i type="int" name="ISYM">     2</i>
   <i name="SYMPREC">      0.00001000</i>
  </separator>
  <separator name="dos" >
   <i type="logical" name="LORBIT"> F  </i>
   <v name="RWIGS">     -1.00000000     -1.00000000</v>
   <i type="int" name="NEDOS">   301</i>
   <i name="EMIN">     10.00000000</i>
   <i name="EMAX">    -10.00000000</i>
   <i name="EFERMI">      0.00000000</i>
  </separator>
  <separator name="writing" >
   <i type="int" name="NWRITE">     2</i>
   <i type="logical" name="LWAVE"> F  </i>
   <i type="logical" name="LCHARG"> F  </i>
   <i type="logical" name="LPARD"> F  </i>
   <i type="logical" name="LVTOT"> F  </i>
   <i type="logical" name="LVHAR"> F  </i>
   <i type="logical" name="LELF"> F  </i>
   <i type="logical" name="LOPTICS"> F  </i>
   <v name="STM">      0.00000000      0.00000000      0.00000000      0.00000000      0.00000000      0.00000000      0.00000000</v>
  </separator>
  <separator name="performance" >
   <i type="int" name="NPAR">     4</i>
   <i type="int" name="NSIM">     4</i>
   <i type="int" name="NBLK">    -1</i>
   <i type="logical" name="LPLANE"> T  </i>
   <i type="logical" name="LSCALAPACK"> T  </i>
   <i type="logical" name="LSCAAWARE"> F  </i>
   <i type="logical" name="LSCALU"> F  </i>
   <i type="logical" name="LASYNC"> F  </i>
   <i type="logical" name="LORBITALREAL"> F  </i>
  </separator>
  <separator name="miscellaneous" >
   <i type="int" name="IDIOT">     3</i>
   <i type="logical" name="LMUSIC"> F  </i>
   <v name="POMASS">    107.86800000    196.96600000</v>
   <v name="DARWINR">      0.00000000      0.00000000</v>
   <v name="DARWINV">      1.00000000      1.00000000</v>
   <i type="logical" name="LCORR"> T  </i>
  </separator>
  <i type="logical" name="GGA_COMPAT"> T  </i>
  <i type="logical" name="LBERRY"> F  </i>
  <i type="int" name="ICORELEVEL">     0</i>
  <i type="logical" name="LDAU"> F  </i>
  <i type="int" name="I_CONSTRAINED_M">     0</i>
  <separator name="electronic exchange-correlation" >
   <i type="string" name="GGA">--</i>
   <i type="int" name="VOSKOWN">     0</i>
   <i type="logical" name="LHFCALC"> F  </i>
   <i type="string" name="PRECFOCK"></i>
   <i type="logical" name="LSYMGRAD"> F  </i>
   <i type="logical" name="LHFONE"> F  </i>
   <i type="logical" name="LRHFCALC"> F  </i>
   <i type="logical" name="LTHOMAS"> F  </i>
   <i type="logical" name="LMODELHF"> F  </i>
   <i name="ENCUT4O">     -1.00000000</i>
   <i type="int" name="EXXOEP">     0</i>
   <i type="int" name="FOURORBIT">     0</i>
   <i name="AEXX">      0.00000000</i>
   <i name="HFALPHA">      0.00000000</i>
   <i name="MCALPHA">      0.00000000</i>
   <i name="ALDAX">      1.00000000</i>
   <i name="AGGAX">      1.00000000</i>
   <i name="ALDAC">      1.00000000</i>
   <i name="AGGAC">      1.00000000</i>
   <i type="int" name="NKREDX">     1</i>
   <i type="int" name="NKREDY">     1</i>
   <i type="int" name="NKREDZ">     1</i>
   <i type="logical" name="SHIFTRED"> F  </i>
   <i type="logical" name="ODDONLY"> F  </i>
   <i type="logical" name="EVENONLY"> F  </i>
   <i type="int" name="LMAXFOCK">     0</i>
   <i type="int" name="NMAXFOCKAE">     0</i>
   <i type="logical" name="LFOCKAEDFT"> F  </i>
   <i name="HFSCREEN">      0.00000000</i>
   <i name="HFSCREENC">      0.00000000</i>
   <i type="int" name="NBANDSGWLOW">     0</i>
  </separator>
  <separator name="vdW DFT" >
   <i type="logical" name="LUSE_VDW"> F  </i>
   <i name="Zab_VDW">     -0.84910000</i>
   <i name="PARAM1">      0.12340000</i>
   <i name="PARAM2">      1.00000000</i>
   <i name="PARAM3">      0.00000000</i>
  </separator>
  <separator name="model GW" >
   <i type="int" name="MODEL_GW">     0</i>
   <i name="MODEL_EPS0">     10.72775122</i>
   <i name="MODEL_ALPHA">      1.00000000</i>
  </separator>
  <separator name="linear response parameters" >
   <i type="logical" name="LEPSILON"> F  </i>
   <i type="logical" name="LRPA"> F  </i>
   <i type="logical" name="LNABLA"> F  </i>
   <i type="logical" name="LVEL"> F  </i>
   <i type="int" name="KINTER">     0</i>
   <i name="CSHIFT">      0.10000000</i>
   <i name="OMEGAMAX">     -1.00000000</i>
   <i name="DEG_THRESHOLD">      0.00200000</i>
  </separator>
  <separator name="orbital magnetization" >
   <i type="logical" name="NUCIND"> F  </i>
   <v name="MAGPOS">      0.00000000      0.00000000      0.00000000</v>
   <i type="logical" name="LNICSALL"> T  </i>
   <i type="logical" name="ORBITALMAG"> F  </i>
   <i type="logical" name="LMAGBLOCH"> F  </i>
   <i type="logical" name="LCHIMAG"> F  </i>
   <i type="logical" name="LGAUGE"> T  </i>
   <i type="int" name="MAGATOM">     0</i>
   <v name="MAGDIPOL">      0.00000000      0.00000000      0.00000000</v>
   <v name="AVECCONST">      0.00000000      0.00000000      0.00000000</v>
  </separator>
  <separator name="response functions" >
   <i type="logical" name="LADDER"> F  </i>
   <i type="logical" name="LFXC"> F  </i>
   <i type="logical" name="LHARTREE"> T  </i>
   <i type="int" name="IBSE">     0</i>
   <i type="logical" name="LTCTE"> F  </i>
   <i type="logical" name="LTETE"> F  </i>
   <i type="logical" name="LTRIPLET"> F  </i>
   <i type="logical" name="LFXCEPS"> F  </i>
   <i type="logical" name="LFXHEG"> F  </i>
   <i type="logical" name="L2ORDER"> F  </i>
   <i type="logical" name="LUSEW"> F  </i>
   <i name="ENCUTGW">     -2.00000000</i>
   <i name="ENCUTGWSOFT">     -2.00000000</i>
   <i name="ENCUTLF">     -1.00000000</i>
   <i type="int" name="LMAXMP2">    -1</i>
   <i name="SCISSOR">      0.00000000</i>
   <i type="int" name="NOMEGA">     0</i>
   <i type="int" name="NOMEGAR">     0</i>
   <i type="int" name="NBANDSGW">    -1</i>
   <i type="int" name="NBANDSO">    -1</i>
   <i type="int" name="NBANDSV">    -1</i>
   <i type="int" name="NELM">   100</i>
   <i type="int" name="DIM">     3</i>
   <i type="int" name="ANTIRES">     0</i>
   <i name="OMEGAMAX">    -30.00000000</i>
   <i name="OMEGAMIN">    -30.00000000</i>
   <i name="OMEGATL">   -200.00000000</i>
   <i type="int" name="OMEGAGRID">     0</i>
   <i name="CSHIFT">     -0.10000000</i>
   <i type="logical" name="SELFENERGY"> F  </i>
   <i type="logical" name="LSPECTRAL"> F  </i>
   <i type="logical" name="ODDONLYGW"> F  </i>
   <i type="logical" name="EVENONLYGW"> F  </i>
   <i type="int" name="NKREDLFX">     1</i>
   <i type="int" name="NKREDLFY">     1</i>
   <i type="int" name="NKREDLFZ">     1</i>
   <i type="int" name="MAXMEM">  1800</i>
   <i type="int" name="TELESCOPE">     0</i>
   <i type="int" name="TAUPAR">     1</i>
  </separator>
  <separator name="External order field" >
   <i name="OFIELD_KAPPA">      0.00000000</i>
   <v name="OFIELD_K">      0.00000000      0.00000000      0.00000000</v>
   <i name="OFIELD_Q6_NEAR">      0.00000000</i>
   <i name="OFIELD_Q6_FAR">      0.00000000</i>
   <i name="OFIELD_A">      0.00000000</i>
  </separator>
 </parameters>
 <atominfo>
  <atoms>       4 </atoms>
  <types>       2 </types>
  <array name="atoms" >
   <dimension dim="1">ion</dimension>
   <field type="string">element</field>
   <field type="int">atomtype</field>
   <set>
    <rc><c>Ag</c><c>   1</c></rc>
    <rc><c>Au</c><c>   2</c></rc>
    <rc><c>Au</c><c>   2</c></rc>
    <rc><c>Au</c><c>   2</c></rc>
   </set>
  </array>
  <array name="atomtypes" >
   <dimension dim="1">type</dimension>
   <field type="int">atomspertype</field>
   <field type="string">element</field>
   <field>mass</field>
   <field>valence</field>
   <field type="string">pseudopotential</field>
   <set>
    <rc><c>   1</c><c>Ag</c><c>    107.86800000</c><c>     11.00000000</c><c>  PAW_PBE Ag 02Apr2005                  </c></rc>
    <rc><c>   3</c><c>Au</c><c>    196.96600000</c><c>     11.00000000</c><c>  PAW_PBE Au 04Oct2007                  </c></rc>
   </set>
  </array>
 </atominfo>
 <structure name="initialpos" >
  <crystal>
   <varray name="basis" >
    <v>       0.00000000      -2.06371139      -2.06371139 </v>
    <v>       0.00000000       2.06371139      -2.06371139 </v>
    <v>       8.39633030       0.00000000       0.00000000 </v>
   </varray>
   <i name="volume">     71.51834146 </i>
   <varray name="rec_basis" >
    <v>       0.00000000      -0.24228194      -0.24228194 </v>
    <v>       0.00000000       0.24228194      -0.24228194 </v>
    <v>       0.11909965       0.00000000       0.00000000 </v>
   </varray>
  </crystal>
  <varray name="positions" >
   <v>       0.50000000       0.50000000       0.75000000 </v>
   <v>       0.00000000       0.00000000       0.99861331 </v>
   <v>       0.50000000       0.50000000       0.25000000 </v>
   <v>       0.00000000       0.00000000       0.50138669 </v>
  </varray>
 </structure>
 <calculation>
  <scstep>
   <time name="dav">    4.09    4.09</time>
   <time name="total">    4.14    4.16</time>
   <energy>
    <i name="alphaZ">    243.01269465 </i>
    <i name="ewald">  -3848.93426361 </i>
    <i name="hartreedc">   -600.56214674 </i>
    <i name="XCdc">     35.93246007 </i>
    <i name="pawpsdc">   3625.75465938 </i>
    <i name="pawaedc">  -3510.37967870 </i>
    <i name="eentropy">     -0.00189477 </i>
    <i name="bandstr">    523.51873878 </i>
    <i name="atom">   3815.50969821 </i>
    <i name="e_fr_energy">    283.85026728 </i>
    <i name="e_wo_entrp">    283.85216205 </i>
    <i name="e_0_energy">    283.85089887 </i>
   </energy>
  </scstep>
  <scstep>
   <time name="dav">    4.20    4.20</time>
   <time name="total">    4.21    4.23</time>
   <energy>
    <i name="e_fr_energy">     -6.12567816 </i>
    <i name="e_wo_entrp">     -6.12800636 </i>
    <i name="e_0_energy">     -6.12645422 </i>
   </energy>
  </scstep>
  <scstep>
   <time name="dav">    4.29    4.29</time>
   <time name="total">    4.30    4.32</time>
   <energy>
    <i name="e_fr_energy">    -13.51585595 </i>
    <i name="e_wo_entrp">    -13.51495978 </i>
    <i name="e_0_energy">    -13.51555723 </i>
   </energy>
  </scstep>
  <scstep>
   <time name="dav">    4.14    4.14</time>
   <time name="total">    4.15    4.17</time>
   <energy>
    <i name="e_fr_energy">    -13.56641150 </i>
    <i name="e_wo_entrp">    -13.56551595 </i>
    <i name="e_0_energy">    -13.56611298 </i>
   </energy>
  </scstep>
  <scstep>
   <time name="dav">    4.14    4.15</time>
   <time name="total">    4.45    4.47</time>
   <energy>
    <i name="e_fr_energy">    -13.56684278 </i>
    <i name="e_wo_entrp">    -13.56594728 </i>
    <i name="e_0_energy">    -13.56654428 </i>
   </energy>
  </scstep>
  <scstep>
   <time name="diag">    1.13    1.13</time>
   <time name="diis">    1.71    1.72</time>
   <time name="orth">    0.18    0.18</time>
   <time name="total">    3.34    3.36</time>
   <energy>
    <i name="e_fr_energy">    -12.56457629 </i>
    <i name="e_wo_entrp">    -12.56501141 </i>
    <i name="e_0_energy">    -12.56472133 </i>
   </energy>
  </scstep>
  <scstep>
   <time name="diag">    1.13    1.13</time>
   <time name="diis">    1.70    1.70</time>
   <time name="orth">    0.17    0.17</time>
   <time name="total">    3.32    3.34</time>
   <energy>
    <i name="e_fr_energy">    -12.51360701 </i>
    <i name="e_wo_entrp">    -12.51393457 </i>
    <i name="e_0_energy">    -12.51371620 </i>
   </energy>
  </scstep>
  <scstep>
   <time name="diag">    1.12    1.12</time>
   <time name="diis">    1.71    1.71</time>
   <time name="orth">    0.17    0.17</time>
   <time name="total">    3.35    3.37</time>
   <energy>
    <i name="e_fr_energy">    -12.50564073 </i>
    <i name="e_wo_entrp">    -12.50615443 </i>
    <i name="e_0_energy">    -12.50581196 </i>
   </energy>
  </scstep>
  <scstep>
   <time name="diag">    1.13    1.13</time>
   <time name="diis">    1.71    1.71</time>
   <time name="orth">    0.17    0.17</time>
   <time name="total">    3.33    3.35</time>
   <energy>
    <i name="e_fr_energy">    -12.50434534 </i>
    <i name="e_wo_entrp">    -12.50473932 </i>
    <i name="e_0_energy">    -12.50447667 </i>
   </energy>
  </scstep>
  <scstep>
   <time name="diag">    1.13    1.13</time>
   <time name="diis">    1.71    1.76</time>
   <time name="orth">    0.17    0.17</time>
   <time name="total">    3.32    3.39</time>
   <energy>
    <i name="e_fr_energy">    -12.50433737 </i>
    <i name="e_wo_entrp">    -12.50472959 </i>
    <i name="e_0_energy">    -12.50446811 </i>
   </energy>
  </scstep>
  <scstep>
   <time name="diag">    1.13    1.13</time>
   <time name="diis">    1.70    1.70</time>
   <time name="orth">    0.17    0.17</time>
   <time name="total">    3.32    3.34</time>
   <energy>
    <i name="e_fr_energy">    -12.50434329 </i>
    <i name="e_wo_entrp">    -12.50473942 </i>
    <i name="e_0_energy">    -12.50447533 </i>
   </energy>
  </scstep>
  <scstep>
   <time name="diag">    1.13    1.13</time>
   <time name="diis">    1.17    1.17</time>
   <time name="orth">    0.17    0.17</time>
   <time name="total">    2.79    2.81</time>
   <energy>
    <i name="e_fr_energy">    -12.50434567 </i>
    <i name="e_wo_entrp">    -12.50474170 </i>
    <i name="e_0_energy">    -12.50447768 </i>
   </energy>
  </scstep>
  <scstep>
   <time name="diag">    1.12    1.13</time>
   <time name="diis">    1.08    1.08</time>
   <time name="orth">    0.18    0.18</time>
   <time name="total">    2.44    2.50</time>
   <energy>
    <i name="alphaZ">    243.01269465 </i>
    <i name="ewald">  -3848.93426361 </i>
    <i name="hartreedc">   -555.30149497 </i>
    <i name="XCdc">     33.99732909 </i>
    <i name="pawpsdc">   4169.99841361 </i>
    <i name="pawaedc">  -4064.37402922 </i>
    <i name="eentropy">      0.00039572 </i>
    <i name="bandstr">    193.58691150 </i>
    <i name="atom">   3815.50969821 </i>
    <i name="e_fr_energy">    -12.50434502 </i>
    <i name="e_wo_entrp">    -12.50474074 </i>
    <i name="e_0_energy">    -12.50447692 </i>
   </energy>
  </scstep>
  <structure>
   <crystal>
    <varray name="basis" >
     <v>       0.00000000      -2.06371139      -2.06371139 </v>
     <v>       0.00000000       2.06371139      -2.06371139 </v>
     <v>       8.39633030       0.00000000       0.00000000 </v>
    </varray>
    <i name="volume">     71.51834146 </i>
    <varray name="rec_basis" >
     <v>       0.00000000      -0.24228194      -0.24228194 </v>
     <v>       0.00000000       0.24228194      -0.24228194 </v>
     <v>       0.11909965       0.00000000       0.00000000 </v>
    </varray>
   </crystal>
   <varray name="positions" >
    <v>       0.50000000       0.50000000       0.75000000 </v>
    <v>       0.00000000       0.00000000       0.99861331 </v>
    <v>       0.50000000       0.50000000       0.25000000 </v>
    <v>       0.00000000       0.00000000       0.50138669 </v>
   </varray>
  </structure>
  <varray name="forces" >
   <v>       0.00000000       0.00000000       0.00000000 </v>
   <v>      -0.00682139       0.00000000       0.00000000 </v>
   <v>       0.00000000       0.00000000       0.00000000 </v>
   <v>       0.00682139       0.00000000       0.00000000 </v>
  </varray>
  <varray name="stress" >
   <v>      -1.09745728       0.00000000       0.00000000 </v>
   <v>       0.00000000      -0.15727737       0.00000000 </v>
   <v>       0.00000000       0.00000000      -0.15727737 </v>
  </varray>
  <energy>
   <i name="e_fr_energy">    -12.50434502 </i>
   <i name="e_wo_entrp">    -12.50447692 </i>
   <i name="e_0_energy">      0.00039572 </i>
  </energy>
  <time name="totalsc">   49.29   49.65</time>
  <eigenvalues>
   <array>
    <dimension dim="1">band</dimension>
    <dimension dim="2">kpoint</dimension>
    <dimension dim="3">spin</dimension>
    <field>eigene</field>
    <field>occ</field>
    <set>
     <set comment="spin 1">
      <set comment="kpoint 1">
       <r>   -0.5445    1.0000 </r>
       <r>    1.4442    1.0000 </r>
       <r>    1.7782    1.0000 </r>
       <r>    2.1964    1.0000 </r>
       <r>    2.3235    1.0000 </r>
       <r>    2.9457    1.0000 </r>
       <r>    3.0194    1.0000 </r>
       <r>    3.8803    1.0000 </r>
       <r>    4.0026    1.0000 </r>
       <r>    4.0026    1.0000 </r>
       <r>    4.6032    1.0000 </r>
       <r>    4.6279    1.0000 </r>
       <r>    4.9181    1.0000 </r>
       <r>    4.9181    1.0000 </r>
       <r>    5.0718    1.0000 </r>
       <r>    5.1966    1.0000 </r>
       <r>    5.1981    1.0000 </r>
       <r>    5.1981    1.0000 </r>
       <r>    5.7012    1.0000 </r>
       <r>    5.9590    1.0000 </r>
       <r>    6.3528    1.0000 </r>
       <r>    6.5634    1.0000 </r>
       <r>    6.5634    1.0000 </r>
       <r>    9.5662    0.0000 </r>
       <r>   13.9288    0.0000 </r>
       <r>   18.6704    0.0000 </r>
       <r>   18.6704    0.0000 </r>
       <r>   22.7179    0.0000 </r>
      </set>
      <set comment="kpoint 2">
       <r>   -0.5059    1.0000 </r>
       <r>    1.4741    1.0000 </r>
       <r>    1.8059    1.0000 </r>
       <r>    2.2169    1.0000 </r>
       <r>    2.3452    1.0000 </r>
       <r>    2.9594    1.0000 </r>
       <r>    3.0312    1.0000 </r>
       <r>    3.8965    1.0000 </r>
       <r>    3.9890    1.0000 </r>
       <r>    4.0126    1.0000 </r>
       <r>    4.5187    1.0000 </r>
       <r>    4.5237    1.0000 </r>
       <r>    4.9015    1.0000 </r>
       <r>    5.0230    1.0000 </r>
       <r>    5.0406    1.0000 </r>
       <r>    5.1713    1.0000 </r>
       <r>    5.2105    1.0000 </r>
       <r>    5.3195    1.0000 </r>
       <r>    5.7127    1.0000 </r>
       <r>    5.9609    1.0000 </r>
       <r>    6.3293    1.0000 </r>
       <r>    6.4595    1.0000 </r>
       <r>    6.5556    1.0000 </r>
       <r>    9.7121    0.0000 </r>
       <r>   13.9074    0.0000 </r>
       <r>   18.4492    0.0000 </r>
       <r>   18.7425    0.0000 </r>
       <r>   22.1228    0.0000 </r>
      </set>
      <set comment="kpoint 3">
       <r>   -0.3913    1.0000 </r>
       <r>    1.5568    1.0000 </r>
       <r>    1.8824    1.0000 </r>
       <r>    2.2808    1.0000 </r>
       <r>    2.4031    1.0000 </r>
       <r>    3.0059    1.0000 </r>
       <r>    3.0741    1.0000 </r>
       <r>    3.9432    1.0000 </r>
       <r>    3.9500    1.0000 </r>
       <r>    4.0425    1.0000 </r>
       <r>    4.3499    1.0000 </r>
       <r>    4.3643    1.0000 </r>
       <r>    4.8533    1.0000 </r>
       <r>    4.9206    1.0000 </r>
       <r>    5.1747    1.0000 </r>
       <r>    5.2086    1.0000 </r>
       <r>    5.2457    1.0000 </r>
       <r>    5.5286    1.0000 </r>
       <r>    5.7427    1.0000 </r>
       <r>    5.9658    1.0000 </r>
       <r>    6.2015    1.0000 </r>
       <r>    6.2636    1.0000 </r>
       <r>    6.5326    1.0000 </r>
       <r>   10.1001    0.0000 </r>
       <r>   13.8398    0.0000 </r>
       <r>   17.8804    0.0000 </r>
       <r>   18.9557    0.0000 </r>
       <r>   20.9929    0.0000 </r>
      </set>
      <set comment="kpoint 4">
       <r>   -0.2041    1.0000 </r>
       <r>    1.6709    1.0000 </r>
       <r>    1.9876    1.0000 </r>
       <r>    2.3933    1.0000 </r>
       <r>    2.4752    1.0000 </r>
       <r>    3.1026    1.0000 </r>
       <r>    3.1734    1.0000 </r>
       <r>    3.8897    1.0000 </r>
       <r>    4.0134    1.0000 </r>
       <r>    4.0909    1.0000 </r>
       <r>    4.1961    1.0000 </r>
       <r>    4.2026    1.0000 </r>
       <r>    4.7789    1.0000 </r>
       <r>    4.7970    1.0000 </r>
       <r>    5.1733    1.0000 </r>
       <r>    5.1935    1.0000 </r>
       <r>    5.4240    1.0000 </r>
       <r>    5.7709    1.0000 </r>
       <r>    5.7734    1.0000 </r>
       <r>    5.9098    1.0000 </r>
       <r>    5.9719    1.0000 </r>
       <r>    6.1734    1.0000 </r>
       <r>    6.4954    1.0000 </r>
       <r>   10.6449    0.0000 </r>
       <r>   13.7132    0.0000 </r>
       <r>   17.1422    0.0000 </r>
       <r>   19.3017    0.0000 </r>
       <r>   19.7824    0.0000 </r>
      </set>
      <set comment="kpoint 5">
       <r>    0.0495    1.0000 </r>
       <r>    1.7814    1.0000 </r>
       <r>    2.0943    1.0000 </r>
       <r>    2.5025    1.0000 </r>
       <r>    2.5887    1.0000 </r>
       <r>    3.2789    1.0000 </r>
       <r>    3.3622    1.0000 </r>
       <r>    3.8144    1.0000 </r>
       <r>    4.0618    1.0000 </r>
       <r>    4.0718    1.0000 </r>
       <r>    4.1007    1.0000 </r>
       <r>    4.1556    1.0000 </r>
       <r>    4.6644    1.0000 </r>
       <r>    4.6867    1.0000 </r>
       <r>    5.1113    1.0000 </r>
       <r>    5.2375    1.0000 </r>
       <r>    5.3392    1.0000 </r>
       <r>    5.7648    1.0000 </r>
       <r>    5.8646    1.0000 </r>
       <r>    5.9758    1.0000 </r>
       <r>    6.0234    1.0000 </r>
       <r>    6.0998    1.0000 </r>
       <r>    6.4466    1.0000 </r>
       <r>   11.2878    0.0000 </r>
       <r>   13.4981    0.0000 </r>
       <r>   16.3876    0.0000 </r>
       <r>   18.5598    0.0000 </r>
       <r>   18.9516    0.0000 </r>
      </set>
      <set comment="kpoint 6">
       <r>    0.3603    1.0000 </r>
       <r>    1.8539    1.0000 </r>
       <r>    2.1779    1.0000 </r>
       <r>    2.5374    1.0000 </r>
       <r>    2.8031    1.0000 </r>
       <r>    3.5636    1.0000 </r>
       <r>    3.6524    1.0000 </r>
       <r>    3.7305    1.0000 </r>
       <r>    3.9685    1.0000 </r>
       <r>    3.9822    1.0000 </r>
       <r>    4.1710    1.0000 </r>
       <r>    4.2299    1.0000 </r>
       <r>    4.5304    1.0000 </r>
       <r>    4.5898    1.0000 </r>
       <r>    5.0262    1.0000 </r>
       <r>    5.0333    1.0000 </r>
       <r>    5.3255    1.0000 </r>
       <r>    5.6750    1.0000 </r>
       <r>    5.9718    1.0000 </r>
       <r>    6.0558    1.0000 </r>
       <r>    6.0896    1.0000 </r>
       <r>    6.2770    1.0000 </r>
       <r>    6.3909    1.0000 </r>
       <r>   11.9967    0.0000 </r>
       <r>   13.1444    0.0000 </r>
       <r>   15.7408    0.0000 </r>
       <r>   17.3557    0.0000 </r>
       <r>   17.7910    0.0000 </r>
      </set>
      <set comment="kpoint 7">
       <r>    0.7145    1.0000 </r>
       <r>    1.8761    1.0000 </r>
       <r>    2.2132    1.0000 </r>
       <r>    2.5839    1.0000 </r>
       <r>    3.0458    1.0000 </r>
       <r>    3.6448    1.0000 </r>
       <r>    3.8871    1.0000 </r>
       <r>    3.9170    1.0000 </r>
       <r>    3.9734    1.0000 </r>
       <r>    4.0543    1.0000 </r>
       <r>    4.2155    1.0000 </r>
       <r>    4.2883    1.0000 </r>
       <r>    4.4011    1.0000 </r>
       <r>    4.5203    1.0000 </r>
       <r>    4.7021    1.0000 </r>
       <r>    4.9494    1.0000 </r>
       <r>    5.4792    1.0000 </r>
       <r>    5.5308    1.0000 </r>
       <r>    5.9514    1.0000 </r>
       <r>    6.1234    1.0000 </r>
       <r>    6.2791    1.0000 </r>
       <r>    6.3365    1.0000 </r>
       <r>    6.5281    1.0000 </r>
       <r>   12.6104    0.0000 </r>
       <r>   12.7522    0.0000 </r>
       <r>   15.2831    0.0000 </r>
       <r>   16.1805    0.0000 </r>
       <r>   16.6838    0.0000 </r>
      </set>
      <set comment="kpoint 8">
       <r>    1.0911    1.0000 </r>
       <r>    1.8587    1.0000 </r>
       <r>    2.2002    1.0000 </r>
       <r>    2.6712    1.0000 </r>
       <r>    3.2852    1.0000 </r>
       <r>    3.5653    1.0000 </r>
       <r>    3.8615    1.0000 </r>
       <r>    3.8961    1.0000 </r>
       <r>    4.2194    1.0000 </r>
       <r>    4.2671    1.0000 </r>
       <r>    4.2817    1.0000 </r>
       <r>    4.3935    1.0000 </r>
       <r>    4.4747    1.0000 </r>
       <r>    4.4939    1.0000 </r>
       <r>    4.5476    1.0000 </r>
       <r>    4.8683    1.0000 </r>
       <r>    5.3727    1.0000 </r>
       <r>    5.7130    1.0000 </r>
       <r>    5.9045    1.0000 </r>
       <r>    6.1690    1.0000 </r>
       <r>    6.2941    1.0000 </r>
       <r>    6.5044    1.0000 </r>
       <r>    6.7773    1.0000 </r>
       <r>   11.9206    0.0000 </r>
       <r>   13.5317    0.0000 </r>
       <r>   14.9539    0.0000 </r>
       <r>   15.0552    0.0000 </r>
       <r>   15.7195    0.0000 </r>
      </set>
      <set comment="kpoint 9">
       <r>    1.4510    1.0000 </r>
       <r>    1.8199    1.0000 </r>
       <r>    2.1861    1.0000 </r>
       <r>    2.7849    1.0000 </r>
       <r>    3.4964    1.0000 </r>
       <r>    3.5002    1.0000 </r>
       <r>    3.8489    1.0000 </r>
       <r>    3.8877    1.0000 </r>
       <r>    4.1407    1.0000 </r>
       <r>    4.1771    1.0000 </r>
       <r>    4.1848    1.0000 </r>
       <r>    4.1914    1.0000 </r>
       <r>    4.6505    1.0000 </r>
       <r>    4.7971    1.0000 </r>
       <r>    4.9668    1.0000 </r>
       <r>    5.0255    1.0000 </r>
       <r>    5.2215    1.0000 </r>
       <r>    5.8266    1.0000 </r>
       <r>    6.0308    1.0000 </r>
       <r>    6.2131    1.0000 </r>
       <r>    6.2693    1.0000 </r>
       <r>    6.7316    1.0000 </r>
       <r>    7.0303    1.0000 </r>
       <r>   11.1473    0.0000 </r>
       <r>   13.8193    0.0000 </r>
       <r>   14.3237    0.0000 </r>
       <r>   14.5000    0.0000 </r>
       <r>   15.3090    0.0000 </r>
      </set>
      <set comment="kpoint 10">
       <r>    1.7086    1.0000 </r>
       <r>    1.7755    1.0000 </r>
       <r>    2.2563    1.0000 </r>
       <r>    2.9039    1.0000 </r>
       <r>    3.4567    1.0000 </r>
       <r>    3.6601    1.0000 </r>
       <r>    3.8477    1.0000 </r>
       <r>    3.8901    1.0000 </r>
       <r>    3.9206    1.0000 </r>
       <r>    4.0912    1.0000 </r>
       <r>    4.1151    1.0000 </r>
       <r>    4.1221    1.0000 </r>
       <r>    4.7411    1.0000 </r>
       <r>    4.7773    1.0000 </r>
       <r>    5.0893    1.0000 </r>
       <r>    5.4120    1.0000 </r>
       <r>    5.5879    1.0000 </r>
       <r>    5.7233    1.0000 </r>
       <r>    6.2507    1.0000 </r>
       <r>    6.2588    1.0000 </r>
       <r>    6.4338    1.0000 </r>
       <r>    6.9794    1.0000 </r>
       <r>    7.2973    1.0000 </r>
       <r>   10.3522    0.0000 </r>
       <r>   12.8576    0.0000 </r>
       <r>   13.4574    0.0000 </r>
       <r>   15.2863    0.0000 </r>
       <r>   15.3872    0.0000 </r>
      </set>
      <set comment="kpoint 11">
       <r>    1.7366    1.0000 </r>
       <r>    1.7950    1.0000 </r>
       <r>    2.4604    1.0000 </r>
       <r>    3.0093    1.0000 </r>
       <r>    3.4408    1.0000 </r>
       <r>    3.7423    1.0000 </r>
       <r>    3.7657    1.0000 </r>
       <r>    3.8535    1.0000 </r>
       <r>    3.8974    1.0000 </r>
       <r>    4.0274    1.0000 </r>
       <r>    4.0445    1.0000 </r>
       <r>    4.0547    1.0000 </r>
       <r>    4.7034    1.0000 </r>
       <r>    4.9096    1.0000 </r>
       <r>    4.9849    1.0000 </r>
       <r>    5.6066    1.0000 </r>
       <r>    5.7661    1.0000 </r>
       <r>    6.0562    1.0000 </r>
       <r>    6.2561    1.0000 </r>
       <r>    6.2789    1.0000 </r>
       <r>    6.9204    1.0000 </r>
       <r>    7.2879    1.0000 </r>
       <r>    7.5811    1.0002 </r>
       <r>    9.5743    0.0000 </r>
       <r>   11.9411    0.0000 </r>
       <r>   12.6727    0.0000 </r>
       <r>   15.6755    0.0000 </r>
       <r>   16.1553    0.0000 </r>
      </set>
      <set comment="kpoint 12">
       <r>    1.7106    1.0000 </r>
       <r>    1.8030    1.0000 </r>
       <r>    2.6674    1.0000 </r>
       <r>    3.0806    1.0000 </r>
       <r>    3.4573    1.0000 </r>
       <r>    3.6076    1.0000 </r>
       <r>    3.8159    1.0000 </r>
       <r>    3.8696    1.0000 </r>
       <r>    3.9036    1.0000 </r>
       <r>    3.9676    1.0000 </r>
       <r>    3.9881    1.0000 </r>
       <r>    4.0165    1.0000 </r>
       <r>    4.6835    1.0000 </r>
       <r>    4.9165    1.0000 </r>
       <r>    5.0289    1.0000 </r>
       <r>    5.4957    1.0000 </r>
       <r>    5.9856    1.0000 </r>
       <r>    6.2562    1.0000 </r>
       <r>    6.2963    1.0000 </r>
       <r>    6.3347    1.0000 </r>
       <r>    7.4726    1.0000 </r>
       <r>    7.6413    1.0005 </r>
       <r>    7.8420    1.0078 </r>
       <r>    8.8396   -0.0343 </r>
       <r>   11.2272    0.0000 </r>
       <r>   12.1010    0.0000 </r>
       <r>   16.1279    0.0000 </r>
       <r>   17.0355    0.0000 </r>
      </set>
      <set comment="kpoint 13">
       <r>    1.7014    1.0000 </r>
       <r>    1.8009    1.0000 </r>
       <r>    2.7533    1.0000 </r>
       <r>    3.1041    1.0000 </r>
       <r>    3.4985    1.0000 </r>
       <r>    3.5267    1.0000 </r>
       <r>    3.8279    1.0000 </r>
       <r>    3.8979    1.0000 </r>
       <r>    3.9060    1.0000 </r>
       <r>    3.9151    1.0000 </r>
       <r>    3.9748    1.0000 </r>
       <r>    4.0035    1.0000 </r>
       <r>    4.6777    1.0000 </r>
       <r>    4.8923    1.0000 </r>
       <r>    5.0870    1.0000 </r>
       <r>    5.4405    1.0000 </r>
       <r>    6.0586    1.0000 </r>
       <r>    6.2566    1.0000 </r>
       <r>    6.3022    1.0000 </r>
       <r>    6.4202    1.0000 </r>
       <r>    7.8226    1.0063 </r>
       <r>    7.8620    1.0096 </r>
       <r>    8.0928    1.0350 </r>
       <r>    8.2509    0.9390 </r>
       <r>   10.9335    0.0000 </r>
       <r>   11.8835    0.0000 </r>
       <r>   16.6440    0.0000 </r>
       <r>   16.8379    0.0000 </r>
      </set>
      <set comment="kpoint 14">
       <r>   -0.4674    1.0000 </r>
       <r>    1.5045    1.0000 </r>
       <r>    1.8343    1.0000 </r>
       <r>    2.2370    1.0000 </r>
       <r>    2.3677    1.0000 </r>
       <r>    2.9721    1.0000 </r>
       <r>    3.0416    1.0000 </r>
       <r>    3.9130    1.0000 </r>
       <r>    3.9683    1.0000 </r>
       <r>    4.0293    1.0000 </r>
       <r>    4.4457    1.0000 </r>
       <r>    4.4573    1.0000 </r>
       <r>    4.9147    1.0000 </r>
       <r>    5.0118    1.0000 </r>
       <r>    5.0927    1.0000 </r>
       <r>    5.1853    1.0000 </r>
       <r>    5.1910    1.0000 </r>
       <r>    5.3611    1.0000 </r>
       <r>    5.7451    1.0000 </r>
       <r>    5.9636    1.0000 </r>
       <r>    6.3068    1.0000 </r>
       <r>    6.3566    1.0000 </r>
       <r>    6.5618    1.0000 </r>
       <r>    9.8472    0.0000 </r>
       <r>   13.8876    0.0000 </r>
       <r>   18.5179    0.0000 </r>
       <r>   18.5194    0.0000 </r>
       <r>   21.9189    0.0000 </r>
      </set>
      <set comment="kpoint 15">
       <r>   -0.3529    1.0000 </r>
       <r>    1.5891    1.0000 </r>
       <r>    1.9128    1.0000 </r>
       <r>    2.2997    1.0000 </r>
       <r>    2.4276    1.0000 </r>
       <r>    3.0154    1.0000 </r>
       <r>    3.0804    1.0000 </r>
       <r>    3.9244    1.0000 </r>
       <r>    3.9605    1.0000 </r>
       <r>    4.0615    1.0000 </r>
       <r>    4.3089    1.0000 </r>
       <r>    4.3167    1.0000 </r>
       <r>    4.8808    1.0000 </r>
       <r>    4.9334    1.0000 </r>
       <r>    5.1651    1.0000 </r>
       <r>    5.2172    1.0000 </r>
       <r>    5.2392    1.0000 </r>
       <r>    5.4592    1.0000 </r>
       <r>    5.8329    1.0000 </r>
       <r>    5.9452    1.0000 </r>
       <r>    6.1510    1.0000 </r>
       <r>    6.2468    1.0000 </r>
       <r>    6.5474    1.0000 </r>
       <r>   10.2128    0.0000 </r>
       <r>   13.8246    0.0000 </r>
       <r>   17.9431    0.0000 </r>
       <r>   18.7239    0.0000 </r>
       <r>   20.9653    0.0000 </r>
      </set>
      <set comment="kpoint 16">
       <r>   -0.1660    1.0000 </r>
[...]
       <r>    5.1711    1.0000 </r>
       <r>    5.3377    1.0000 </r>
       <r>    5.8031    1.0000 </r>
       <r>    5.8080    1.0000 </r>
       <r>    5.9278    1.0000 </r>
       <r>    5.9301    1.0000 </r>
       <r>    6.6659    1.0000 </r>
       <r>    6.6935    1.0000 </r>
       <r>    6.7064    1.0000 </r>
       <r>   10.7866    0.0000 </r>
       <r>   10.8060    0.0000 </r>
       <r>   11.0030    0.0000 </r>
       <r>   11.3941    0.0000 </r>
       <r>   13.9456    0.0000 </r>
       <r>   14.0685    0.0000 </r>
       <r>   14.1000    0.0000 </r>
       <r>   15.5843    0.0000 </r>
      </set>
      <set comment="kpoint 453">
       <r>    2.2886    1.0000 </r>
       <r>    2.3075    1.0000 </r>
       <r>    2.4057    1.0000 </r>
       <r>    2.4731    1.0000 </r>
       <r>    2.5475    1.0000 </r>
       <r>    2.6208    1.0000 </r>
       <r>    2.6504    1.0000 </r>
       <r>    2.6796    1.0000 </r>
       <r>    4.9763    1.0000 </r>
       <r>    5.0478    1.0000 </r>
       <r>    5.1855    1.0000 </r>
       <r>    5.2730    1.0000 </r>
       <r>    5.3839    1.0000 </r>
       <r>    5.7812    1.0000 </r>
       <r>    5.8220    1.0000 </r>
       <r>    5.9274    1.0000 </r>
       <r>    5.9813    1.0000 </r>
       <r>    6.7377    1.0000 </r>
       <r>    6.7706    1.0000 </r>
       <r>    6.7811    1.0000 </r>
       <r>   10.6153    0.0000 </r>
       <r>   11.0282    0.0000 </r>
       <r>   11.5777    0.0000 </r>
       <r>   11.9354    0.0000 </r>
       <r>   13.3050    0.0000 </r>
       <r>   13.6527    0.0000 </r>
       <r>   14.3101    0.0000 </r>
       <r>   15.6326    0.0000 </r>
      </set>
      <set comment="kpoint 454">
       <r>    2.2760    1.0000 </r>
       <r>    2.2938    1.0000 </r>
       <r>    2.4046    1.0000 </r>
       <r>    2.4590    1.0000 </r>
       <r>    2.5502    1.0000 </r>
       <r>    2.5727    1.0000 </r>
       <r>    2.6477    1.0000 </r>
       <r>    2.6480    1.0000 </r>
       <r>    5.0376    1.0000 </r>
       <r>    5.0489    1.0000 </r>
       <r>    5.2574    1.0000 </r>
       <r>    5.3018    1.0000 </r>
       <r>    5.3850    1.0000 </r>
       <r>    5.7824    1.0000 </r>
       <r>    5.8101    1.0000 </r>
       <r>    5.9537    1.0000 </r>
       <r>    5.9582    1.0000 </r>
       <r>    6.8030    1.0000 </r>
       <r>    6.8132    1.0000 </r>
       <r>    6.8149    1.0000 </r>
       <r>   11.1804    0.0000 </r>
       <r>   11.1886    0.0000 </r>
       <r>   11.4950    0.0000 </r>
       <r>   11.6656    0.0000 </r>
       <r>   13.5653    0.0000 </r>
       <r>   13.6445    0.0000 </r>
       <r>   13.7652    0.0000 </r>
       <r>   15.5190    0.0000 </r>
      </set>
      <set comment="kpoint 455">
       <r>    2.2618    1.0000 </r>
       <r>    2.2821    1.0000 </r>
       <r>    2.3973    1.0000 </r>
       <r>    2.4797    1.0000 </r>
       <r>    2.5242    1.0000 </r>
       <r>    2.5242    1.0000 </r>
       <r>    2.6301    1.0000 </r>
       <r>    2.6301    1.0000 </r>
       <r>    5.0756    1.0000 </r>
       <r>    5.0756    1.0000 </r>
       <r>    5.3442    1.0000 </r>
       <r>    5.3549    1.0000 </r>
       <r>    5.3549    1.0000 </r>
       <r>    5.7774    1.0000 </r>
       <r>    5.7983    1.0000 </r>
       <r>    5.9545    1.0000 </r>
       <r>    5.9613    1.0000 </r>
       <r>    6.8564    1.0000 </r>
       <r>    6.8565    1.0000 </r>
       <r>    6.8632    1.0000 </r>
       <r>   11.3695    0.0000 </r>
       <r>   11.3695    0.0000 </r>
       <r>   11.7701    0.0000 </r>
       <r>   11.7701    0.0000 </r>
       <r>   13.2569    0.0000 </r>
       <r>   13.4677    0.0000 </r>
       <r>   13.5649    0.0000 </r>
       <r>   15.4420    0.0000 </r>
      </set>
     </set>
    </set>
   </array>
  </eigenvalues>
  <separator name="orbital magnetization" >
   <v name="MAGDIPOLOUT">      0.00000000      0.00000000      0.00000000</v>
  </separator>
  <dos>
   <i name="efermi">      8.44427953 </i>
   <total>
    <array>
     <dimension dim="1">gridpoints</dimension>
     <dimension dim="2">spin</dimension>
     <field>energy</field>
     <field>total</field>
     <field>integrated</field>
     <set>
      <set comment="spin 1">
       <r>    -3.5445     0.0000     0.0000 </r>
       <r>    -3.4470     0.0000     0.0000 </r>
       <r>    -3.3494     0.0000     0.0000 </r>
       <r>    -3.2519     0.0000     0.0000 </r>
       <r>    -3.1543     0.0000     0.0000 </r>
       <r>    -3.0568     0.0000     0.0000 </r>
       <r>    -2.9593     0.0000     0.0000 </r>
       <r>    -2.8617     0.0000     0.0000 </r>
       <r>    -2.7642     0.0000     0.0000 </r>
       <r>    -2.6666     0.0000     0.0000 </r>
       <r>    -2.5691     0.0000     0.0000 </r>
       <r>    -2.4715     0.0000     0.0000 </r>
       <r>    -2.3740     0.0000     0.0000 </r>
       <r>    -2.2765     0.0000     0.0000 </r>
       <r>    -2.1789     0.0000     0.0000 </r>
       <r>    -2.0814     0.0000     0.0000 </r>
       <r>    -1.9838     0.0000     0.0000 </r>
       <r>    -1.8863     0.0000     0.0000 </r>
       <r>    -1.7888     0.0000     0.0000 </r>
       <r>    -1.6912     0.0000     0.0000 </r>
       <r>    -1.5937     0.0000     0.0000 </r>
       <r>    -1.4961     0.0000     0.0000 </r>
       <r>    -1.3986     0.0000     0.0000 </r>
       <r>    -1.3011     0.0000     0.0000 </r>
       <r>    -1.2035    -0.0002     0.0000 </r>
       <r>    -1.1060    -0.0007    -0.0001 </r>
       <r>    -1.0084    -0.0021    -0.0003 </r>
       <r>    -0.9109    -0.0044    -0.0007 </r>
       <r>    -0.8133    -0.0063    -0.0013 </r>
       <r>    -0.7158    -0.0033    -0.0017 </r>
       <r>    -0.6183     0.0117    -0.0005 </r>
       <r>    -0.5207     0.0450     0.0039 </r>
       <r>    -0.4232     0.0962     0.0133 </r>
       <r>    -0.3256     0.1574     0.0286 </r>
       <r>    -0.2281     0.2165     0.0497 </r>
       <r>    -0.1306     0.2631     0.0754 </r>
       <r>    -0.0330     0.2930     0.1040 </r>
       <r>     0.0645     0.3077     0.1340 </r>
       <r>     0.1621     0.3130     0.1645 </r>
       <r>     0.2596     0.3156     0.1953 </r>
       <r>     0.3572     0.3220     0.2267 </r>
       <r>     0.4547     0.3367     0.2595 </r>
       <r>     0.5522     0.3621     0.2949 </r>
       <r>     0.6498     0.3983     0.3337 </r>
       <r>     0.7473     0.4420     0.3768 </r>
       <r>     0.8449     0.4871     0.4243 </r>
       <r>     0.9424     0.5311     0.4761 </r>
       <r>     1.0399     0.5762     0.5323 </r>
       <r>     1.1375     0.6245     0.5932 </r>
       <r>     1.2350     0.6750     0.6591 </r>
       <r>     1.3326     0.7330     0.7306 </r>
       <r>     1.4301     0.8233     0.8109 </r>
       <r>     1.5276     0.9947     0.9079 </r>
       <r>     1.6252     1.2991     1.0346 </r>
       <r>     1.7227     1.7420     1.2045 </r>
       <r>     1.8203     2.2522     1.4242 </r>
       <r>     1.9178     2.7417     1.6917 </r>
       <r>     2.0154     3.2275     2.0065 </r>
       <r>     2.1129     3.8589     2.3829 </r>
       <r>     2.2104     4.7691     2.8481 </r>
       <r>     2.3080     5.8986     3.4234 </r>
       <r>     2.4055     7.0077     4.1070 </r>
       <r>     2.5031     7.8652     4.8742 </r>
       <r>     2.6006     8.3854     5.6921 </r>
       <r>     2.6981     8.5877     6.5297 </r>
       <r>     2.7957     8.4999     7.3588 </r>
       <r>     2.8932     8.1449     8.1533 </r>
       <r>     2.9908     7.6085     8.8954 </r>
       <r>     3.0883     7.0930     9.5873 </r>
       <r>     3.1859     6.8680    10.2572 </r>
       <r>     3.2834     7.1029    10.9500 </r>
       <r>     3.3809     7.7182    11.7029 </r>
       <r>     3.4785     8.4267    12.5248 </r>
       <r>     3.5760     8.9509    13.3979 </r>
       <r>     3.6736     9.2235    14.2976 </r>
       <r>     3.7711     9.4278    15.2172 </r>
       <r>     3.8686     9.8712    16.1800 </r>
       <r>     3.9662    10.7534    17.2289 </r>
       <r>     4.0637    11.9393    18.3935 </r>
       <r>     4.1613    12.9183    19.6536 </r>
       <r>     4.2588    13.0970    20.9311 </r>
       <r>     4.3563    12.2745    22.1284 </r>
       <r>     4.4539    10.8509    23.1868 </r>
       <r>     4.5514     9.5187    24.1152 </r>
       <r>     4.6490     8.7466    24.9684 </r>
       <r>     4.7465     8.5639    25.8037 </r>
       <r>     4.8441     8.7384    26.6561 </r>
       <r>     4.9416     9.0336    27.5372 </r>
       <r>     5.0391     9.2929    28.4437 </r>
       <r>     5.1367     9.3938    29.3599 </r>
       <r>     5.2342     9.2414    30.2613 </r>
       <r>     5.3318     8.8475    31.1243 </r>
       <r>     5.4293     8.3779    31.9415 </r>
       <r>     5.5268     8.0602    32.7277 </r>
       <r>     5.6244     8.0215    33.5102 </r>
       <r>     5.7219     8.2193    34.3119 </r>
       <r>     5.8195     8.5107    35.1420 </r>
       <r>     5.9170     8.7788    35.9983 </r>
       <r>     6.0145     9.0199    36.8781 </r>
       <r>     6.1121     9.3060    37.7859 </r>
       <r>     6.2096     9.5929    38.7216 </r>
       <r>     6.3072     9.5609    39.6541 </r>
       <r>     6.4047     8.7758    40.5101 </r>
       <r>     6.5023     7.1116    41.2038 </r>
       <r>     6.5998     4.9791    41.6895 </r>
       <r>     6.6973     3.0596    41.9879 </r>
       <r>     6.7949     1.8138    42.1649 </r>
       <r>     6.8924     1.2538    42.2872 </r>
       <r>     6.9900     1.1035    42.3948 </r>
       <r>     7.0875     1.0811    42.5002 </r>
       <r>     7.1850     1.0533    42.6030 </r>
       <r>     7.2826     1.0246    42.7029 </r>
       <r>     7.3801     1.0363    42.8040 </r>
       <r>     7.4777     1.0861    42.9100 </r>
       <r>     7.5752     1.1311    43.0203 </r>
       <r>     7.6728     1.1393    43.1314 </r>
       <r>     7.7703     1.1126    43.2399 </r>
       <r>     7.8678     1.0755    43.3448 </r>
       <r>     7.9654     1.0612    43.4483 </r>
       <r>     8.0629     1.0921    43.5549 </r>
       <r>     8.1605     1.1519    43.6672 </r>
       <r>     8.2580     1.1926    43.7836 </r>
       <r>     8.3555     1.1830    43.8990 </r>
       <r>     8.4531     1.1363    44.0098 </r>
       <r>     8.5506     1.0862    44.1157 </r>
       <r>     8.6482     1.0612    44.2192 </r>
       <r>     8.7457     1.0806    44.3247 </r>
       <r>     8.8432     1.1417    44.4360 </r>
       <r>     8.9408     1.2033    44.5534 </r>
       <r>     9.0383     1.2128    44.6717 </r>
       <r>     9.1359     1.1596    44.7848 </r>
       <r>     9.2334     1.0853    44.8907 </r>
       <r>     9.3310     1.0380    44.9919 </r>
       <r>     9.4285     1.0356    45.0929 </r>
       <r>     9.5260     1.0698    45.1973 </r>
       <r>     9.6236     1.1214    45.3067 </r>
       <r>     9.7211     1.1615    45.4200 </r>
       <r>     9.8187     1.1616    45.5333 </r>
       <r>     9.9162     1.1186    45.6424 </r>
       <r>    10.0137     1.0627    45.7460 </r>
       <r>    10.1113     1.0277    45.8463 </r>
       <r>    10.2088     1.0207    45.9458 </r>
       <r>    10.3064     1.0256    46.0459 </r>
       <r>    10.4039     1.0273    46.1461 </r>
       <r>    10.5014     1.0226    46.2458 </r>
       <r>    10.5990     1.0115    46.3445 </r>
       <r>    10.6965     0.9917    46.4412 </r>
       <r>    10.7941     0.9680    46.5356 </r>
       <r>    10.8916     0.9554    46.6288 </r>
       <r>    10.9892     0.9727    46.7237 </r>
       <r>    11.0867     1.0350    46.8246 </r>
       <r>    11.1842     1.1443    46.9363 </r>
       <r>    11.2818     1.2717    47.0603 </r>
       <r>    11.3793     1.3616    47.1931 </r>
       <r>    11.4769     1.3760    47.3273 </r>
       <r>    11.5744     1.3304    47.4571 </r>
       <r>    11.6719     1.2739    47.5814 </r>
       <r>    11.7695     1.2437    47.7027 </r>
       <r>    11.8670     1.2455    47.8242 </r>
       <r>    11.9646     1.2645    47.9475 </r>
       <r>    12.0621     1.2811    48.0725 </r>
       <r>    12.1597     1.2840    48.1977 </r>
       <r>    12.2572     1.2738    48.3220 </r>
       <r>    12.3547     1.2532    48.4442 </r>
       <r>    12.4523     1.2215    48.5633 </r>
       <r>    12.5498     1.1847    48.6789 </r>
       <r>    12.6474     1.1576    48.7918 </r>
       <r>    12.7449     1.1509    48.9041 </r>
       <r>    12.8424     1.1637    49.0176 </r>
       <r>    12.9400     1.1906    49.1337 </r>
       <r>    13.0375     1.2271    49.2534 </r>
       <r>    13.1351     1.2641    49.3767 </r>
       <r>    13.2326     1.2895    49.5025 </r>
       <r>    13.3301     1.3043    49.6297 </r>
       <r>    13.4277     1.3277    49.7592 </r>
       <r>    13.5252     1.3731    49.8932 </r>
       <r>    13.6228     1.4312    50.0328 </r>
       <r>    13.7203     1.4889    50.1780 </r>
       <r>    13.8179     1.5439    50.3286 </r>
       <r>    13.9154     1.5848    50.4832 </r>
       <r>    14.0129     1.5794    50.6372 </r>
       <r>    14.1105     1.5058    50.7841 </r>
       <r>    14.2080     1.3787    50.9186 </r>
       <r>    14.3056     1.2376    51.0393 </r>
       <r>    14.4031     1.1227    51.1488 </r>
       <r>    14.5006     1.0686    51.2531 </r>
       <r>    14.5982     1.0904    51.3594 </r>
       <r>    14.6957     1.1610    51.4727 </r>
       <r>    14.7933     1.2186    51.5915 </r>
       <r>    14.8908     1.2131    51.7099 </r>
       <r>    14.9883     1.1516    51.8222 </r>
       <r>    15.0859     1.0955    51.9290 </r>
       <r>    15.1834     1.1108    52.0374 </r>
       <r>    15.2810     1.2121    52.1556 </r>
       <r>    15.3785     1.3549    52.2878 </r>
       <r>    15.4761     1.4793    52.4321 </r>
       <r>    15.5736     1.5473    52.5830 </r>
       <r>    15.6711     1.5431    52.7335 </r>
       <r>    15.7687     1.4708    52.8770 </r>
       <r>    15.8662     1.3673    53.0104 </r>
       <r>    15.9638     1.2893    53.1361 </r>
       <r>    16.0613     1.2656    53.2596 </r>
       <r>    16.1588     1.2725    53.3837 </r>
       <r>    16.2564     1.2692    53.5075 </r>
       <r>    16.3539     1.2447    53.6289 </r>
       <r>    16.4515     1.2141    53.7473 </r>
       <r>    16.5490     1.1791    53.8623 </r>
       <r>    16.6466     1.1212    53.9717 </r>
       <r>    16.7441     1.0377    54.0729 </r>
       <r>    16.8416     0.9638    54.1669 </r>
       <r>    16.9392     0.9472    54.2593 </r>
       <r>    17.0367     1.0022    54.3571 </r>
       <r>    17.1343     1.0878    54.4632 </r>
       <r>    17.2318     1.1310    54.5735 </r>
       <r>    17.3293     1.0813    54.6790 </r>
       <r>    17.4269     0.9517    54.7718 </r>
       <r>    17.5244     0.8070    54.8505 </r>
       <r>    17.6220     0.7095    54.9197 </r>
       <r>    17.7195     0.6752    54.9856 </r>
       <r>    17.8170     0.6752    55.0514 </r>
       <r>    17.9146     0.6741    55.1172 </r>
       <r>    18.0121     0.6616    55.1817 </r>
       <r>    18.1097     0.6440    55.2445 </r>
       <r>    18.2072     0.6179    55.3048 </r>
       <r>    18.3048     0.5730    55.3607 </r>
       <r>    18.4023     0.5160    55.4110 </r>
       <r>    18.4998     0.4705    55.4569 </r>
       <r>    18.5974     0.4527    55.5011 </r>
       <r>    18.6949     0.4601    55.5459 </r>
       <r>    18.7925     0.4810    55.5929 </r>
       <r>    18.8900     0.5018    55.6418 </r>
       <r>    18.9875     0.5070    55.6913 </r>
       <r>    19.0851     0.4827    55.7383 </r>
       <r>    19.1826     0.4272    55.7800 </r>
       <r>    19.2802     0.3546    55.8146 </r>
       <r>    19.3777     0.2862    55.8425 </r>
       <r>    19.4752     0.2377    55.8657 </r>
       <r>    19.5728     0.2127    55.8865 </r>
       <r>    19.6703     0.1997    55.9059 </r>
       <r>    19.7679     0.1796    55.9234 </r>
       <r>    19.8654     0.1434    55.9374 </r>
       <r>    19.9630     0.1010    55.9473 </r>
       <r>    20.0605     0.0686    55.9540 </r>
       <r>    20.1580     0.0523    55.9591 </r>
       <r>    20.2556     0.0482    55.9638 </r>
       <r>    20.3531     0.0494    55.9686 </r>
       <r>    20.4507     0.0490    55.9734 </r>
       <r>    20.5482     0.0422    55.9775 </r>
       <r>    20.6457     0.0301    55.9804 </r>
       <r>    20.7433     0.0191    55.9823 </r>
       <r>    20.8408     0.0141    55.9837 </r>
       <r>    20.9384     0.0142    55.9850 </r>
       <r>    21.0359     0.0150    55.9865 </r>
       <r>    21.1335     0.0144    55.9879 </r>
       <r>    21.2310     0.0139    55.9893 </r>
       <r>    21.3285     0.0149    55.9907 </r>
       <r>    21.4261     0.0159    55.9923 </r>
       <r>    21.5236     0.0144    55.9937 </r>
       <r>    21.6212     0.0103    55.9947 </r>
       <r>    21.7187     0.0062    55.9953 </r>
       <r>    21.8162     0.0048    55.9958 </r>
       <r>    21.9138     0.0065    55.9964 </r>
       <r>    22.0113     0.0090    55.9973 </r>
       <r>    22.1089     0.0098    55.9982 </r>
       <r>    22.2064     0.0080    55.9990 </r>
       <r>    22.3039     0.0047    55.9995 </r>
       <r>    22.4015     0.0018    55.9997 </r>
       <r>    22.4990     0.0003    55.9997 </r>
       <r>    22.5966     0.0002    55.9997 </r>
       <r>    22.6941     0.0007    55.9998 </r>
       <r>    22.7917     0.0010    55.9999 </r>
       <r>    22.8892     0.0009    56.0000 </r>
       <r>    22.9867     0.0004    56.0000 </r>
       <r>    23.0843     0.0001    56.0000 </r>
       <r>    23.1818     0.0000    56.0000 </r>
       <r>    23.2794    -0.0001    56.0000 </r>
       <r>    23.3769     0.0000    56.0000 </r>
       <r>    23.4744     0.0000    56.0000 </r>
       <r>    23.5720     0.0000    56.0000 </r>
       <r>    23.6695     0.0000    56.0000 </r>
       <r>    23.7671     0.0000    56.0000 </r>
       <r>    23.8646     0.0000    56.0000 </r>
       <r>    23.9622     0.0000    56.0000 </r>
       <r>    24.0597     0.0000    56.0000 </r>
       <r>    24.1572     0.0000    56.0000 </r>
       <r>    24.2548     0.0000    56.0000 </r>
       <r>    24.3523     0.0000    56.0000 </r>
       <r>    24.4499     0.0000    56.0000 </r>
       <r>    24.5474     0.0000    56.0000 </r>
       <r>    24.6449     0.0000    56.0000 </r>
       <r>    24.7425     0.0000    56.0000 </r>
       <r>    24.8400     0.0000    56.0000 </r>
       <r>    24.9376     0.0000    56.0000 </r>
       <r>    25.0351     0.0000    56.0000 </r>
       <r>    25.1326     0.0000    56.0000 </r>
       <r>    25.2302     0.0000    56.0000 </r>
       <r>    25.3277     0.0000    56.0000 </r>
       <r>    25.4253     0.0000    56.0000 </r>
       <r>    25.5228     0.0000    56.0000 </r>
       <r>    25.6204     0.0000    56.0000 </r>
       <r>    25.7179     0.0000    56.0000 </r>
      </set>
     </set>
    </array>
   </total>
  </dos>
 </calculation>
 <structure name="finalpos" >
  <crystal>
   <varray name="basis" >
    <v>       0.00000000      -2.06371139      -2.06371139 </v>
    <v>       0.00000000       2.06371139      -2.06371139 </v>
    <v>       8.39633030       0.00000000       0.00000000 </v>
   </varray>
   <i name="volume">     71.51834146 </i>
   <varray name="rec_basis" >
    <v>       0.00000000      -0.24228194      -0.24228194 </v>
    <v>       0.00000000       0.24228194      -0.24228194 </v>
    <v>       0.11909965       0.00000000       0.00000000 </v>
   </varray>
  </crystal>
  <varray name="positions" >
   <v>       0.50000000       0.50000000       0.75000000 </v>
   <v>       0.00000000       0.00000000       0.99861331 </v>
   <v>       0.50000000       0.50000000       0.25000000 </v>
   <v>       0.00000000       0.00000000       0.50138669 </v>
  </varray>
 </structure>
</modeling>
