<?xml version="1.0" encoding="ISO-8859-1"?>
<modeling>
 <generator>
  <i name="program" type="string">vasp </i>
  <i name="version" type="string">5.3.5  </i>
  <i name="subversion" type="string">31Mar14 (build Jun 20 2014 13:15:13) complex                          parallel </i>
  <i name="platform" type="string">LinuxIFC </i>
  <i name="date" type="string">2025 11 21 </i>
  <i name="time" type="string">12:22:54 </i>
 </generator>
 <incar>
  <i type="string" name="PREC">accurate</i>
  <i type="int" name="IALGO">    68</i>
  <i type="logical" name="ADDGRID"> T  </i>
  <i type="int" name="NELM">   100</i>
  <i type="int" name="NELMIN">     4</i>
  <i type="int" name="IBRION">     2</i>
  <i name="EDIFF">      0.00000100</i>
  <i name="EDIFFG">     -0.02000000</i>
  <i type="int" name="NSW">    30</i>
  <i type="int" name="ISIF">     3</i>
  <i name="ENCUT">    500.00000000</i>
  <i type="logical" name="LREAL"> F  </i>
  <i type="int" name="ISMEAR">     1</i>
  <i name="SIGMA">      0.30000000</i>
  <i type="logical" name="LWAVE"> F  </i>
  <i type="logical" name="LCHARG"> F  </i>
  <i type="int" name="NELM">   100</i>
 </incar>
 <kpoints>
  <generation param="Auto">
   <i name="subdivisionlength">     70.00000000 </i>
   <v type="int" name="divisions">      24       14       10 </v>
   <v name="usershift">      0.00000000       0.00000000       0.00000000 </v>
   <v name="genvec1">      0.04166667       0.00000000       0.00000000 </v>
   <v name="genvec2">      0.00000000       0.07142857       0.00000000 </v>
   <v name="genvec3">      0.00000000       0.00000000       0.10000000 </v>
   <v name="shift">      0.00000000       0.00000000       0.00000000 </v>
  </generation>
  <varray name="kpointlist" >
   <v>       0.00000000       0.00000000       0.00000000 </v>
   <v>       0.04166667       0.00000000       0.00000000 </v>
   <v>       0.08333333       0.00000000       0.00000000 </v>
   <v>       0.12500000       0.00000000       0.00000000 </v>
   <v>       0.16666667       0.00000000       0.00000000 </v>
   <v>       0.20833333       0.00000000       0.00000000 </v>
   <v>       0.25000000       0.00000000       0.00000000 </v>
   <v>       0.29166667       0.00000000       0.00000000 </v>
   <v>       0.33333333       0.00000000       0.00000000 </v>
   <v>       0.37500000       0.00000000       0.00000000 </v>
   <v>       0.41666667       0.00000000       0.00000000 </v>
   <v>       0.45833333       0.00000000       0.00000000 </v>
   <v>       0.50000000       0.00000000       0.00000000 </v>
   <v>       0.00000000       0.07142857       0.00000000 </v>
   <v>       0.04166667       0.07142857       0.00000000 </v>
   <v>       0.08333333       0.07142857       0.00000000 </v>
   <v>       0.12500000       0.07142857       0.00000000 </v>
   <v>       0.16666667       0.07142857       0.00000000 </v>
   <v>       0.20833333       0.07142857       0.00000000 </v>
   <v>       0.25000000       0.07142857       0.00000000 </v>
   <v>       0.29166667       0.07142857       0.00000000 </v>
   <v>       0.33333333       0.07142857       0.00000000 </v>
   <v>       0.37500000       0.07142857       0.00000000 </v>
   <v>       0.41666667       0.07142857       0.00000000 </v>
   <v>       0.45833333       0.07142857       0.00000000 </v>
   <v>       0.50000000       0.07142857       0.00000000 </v>
   <v>       0.00000000       0.14285714       0.00000000 </v>
   <v>       0.04166667       0.14285714       0.00000000 </v>
   <v>       0.08333333       0.14285714       0.00000000 </v>
   <v>       0.12500000       0.14285714       0.00000000 </v>
   <v>       0.16666667       0.14285714       0.00000000 </v>
   <v>       0.20833333       0.14285714       0.00000000 </v>
   <v>       0.25000000       0.14285714       0.00000000 </v>
   <v>       0.29166667       0.14285714       0.00000000 </v>
   <v>       0.33333333       0.14285714       0.00000000 </v>
   <v>       0.37500000       0.14285714       0.00000000 </v>
   <v>       0.41666667       0.14285714       0.00000000 </v>
   <v>       0.45833333       0.14285714       0.00000000 </v>
   <v>       0.50000000       0.14285714       0.00000000 </v>
   <v>       0.00000000       0.21428571       0.00000000 </v>
   <v>       0.04166667       0.21428571       0.00000000 </v>
   <v>       0.08333333       0.21428571       0.00000000 </v>
   <v>       0.12500000       0.21428571       0.00000000 </v>
   <v>       0.16666667       0.21428571       0.00000000 </v>
   <v>       0.20833333       0.21428571       0.00000000 </v>
   <v>       0.25000000       0.21428571       0.00000000 </v>
   <v>       0.29166667       0.21428571       0.00000000 </v>
   <v>       0.33333333       0.21428571       0.00000000 </v>
   <v>       0.37500000       0.21428571       0.00000000 </v>
   <v>       0.41666667       0.21428571       0.00000000 </v>
   <v>       0.45833333       0.21428571       0.00000000 </v>
   <v>       0.50000000       0.21428571       0.00000000 </v>
   <v>       0.00000000       0.28571429       0.00000000 </v>
   <v>       0.04166667       0.28571429       0.00000000 </v>
   <v>       0.08333333       0.28571429       0.00000000 </v>
   <v>       0.12500000       0.28571429       0.00000000 </v>
   <v>       0.16666667       0.28571429       0.00000000 </v>
   <v>       0.20833333       0.28571429       0.00000000 </v>
   <v>       0.25000000       0.28571429       0.00000000 </v>
   <v>       0.29166667       0.28571429       0.00000000 </v>
   <v>       0.33333333       0.28571429       0.00000000 </v>
   <v>       0.37500000       0.28571429       0.00000000 </v>
   <v>       0.41666667       0.28571429       0.00000000 </v>
   <v>       0.45833333       0.28571429       0.00000000 </v>
   <v>       0.50000000       0.28571429       0.00000000 </v>
   <v>       0.00000000       0.35714286       0.00000000 </v>
   <v>       0.04166667       0.35714286       0.00000000 </v>
   <v>       0.08333333       0.35714286       0.00000000 </v>
   <v>       0.12500000       0.35714286       0.00000000 </v>
   <v>       0.16666667       0.35714286       0.00000000 </v>
   <v>       0.20833333       0.35714286       0.00000000 </v>
   <v>       0.25000000       0.35714286       0.00000000 </v>
   <v>       0.29166667       0.35714286       0.00000000 </v>
   <v>       0.33333333       0.35714286       0.00000000 </v>
   <v>       0.37500000       0.35714286       0.00000000 </v>
   <v>       0.41666667       0.35714286       0.00000000 </v>
   <v>       0.45833333       0.35714286       0.00000000 </v>
   <v>       0.50000000       0.35714286       0.00000000 </v>
   <v>       0.00000000       0.42857143       0.00000000 </v>
   <v>       0.04166667       0.42857143       0.00000000 </v>
   <v>       0.08333333       0.42857143       0.00000000 </v>
   <v>       0.12500000       0.42857143       0.00000000 </v>
   <v>       0.16666667       0.42857143       0.00000000 </v>
   <v>       0.20833333       0.42857143       0.00000000 </v>
   <v>       0.25000000       0.42857143       0.00000000 </v>
   <v>       0.29166667       0.42857143       0.00000000 </v>
   <v>       0.33333333       0.42857143       0.00000000 </v>
   <v>       0.37500000       0.42857143       0.00000000 </v>
   <v>       0.41666667       0.42857143       0.00000000 </v>
   <v>       0.45833333       0.42857143       0.00000000 </v>
   <v>       0.50000000       0.42857143       0.00000000 </v>
   <v>       0.00000000       0.50000000       0.00000000 </v>
   <v>       0.04166667       0.50000000       0.00000000 </v>
   <v>       0.08333333       0.50000000       0.00000000 </v>
   <v>       0.12500000       0.50000000       0.00000000 </v>
   <v>       0.16666667       0.50000000       0.00000000 </v>
   <v>       0.20833333       0.50000000       0.00000000 </v>
   <v>       0.25000000       0.50000000       0.00000000 </v>
   <v>       0.29166667       0.50000000       0.00000000 </v>
   <v>       0.33333333       0.50000000       0.00000000 </v>
   <v>       0.37500000       0.50000000       0.00000000 </v>
   <v>       0.41666667       0.50000000       0.00000000 </v>
   <v>       0.45833333       0.50000000       0.00000000 </v>
   <v>       0.50000000       0.50000000       0.00000000 </v>
   <v>       0.00000000       0.00000000       0.10000000 </v>
   <v>       0.04166667       0.00000000       0.10000000 </v>
   <v>       0.08333333       0.00000000       0.10000000 </v>
   <v>       0.12500000       0.00000000       0.10000000 </v>
   <v>       0.16666667       0.00000000       0.10000000 </v>
   <v>       0.20833333       0.00000000       0.10000000 </v>
   <v>       0.25000000       0.00000000       0.10000000 </v>
   <v>       0.29166667       0.00000000       0.10000000 </v>
   <v>       0.33333333       0.00000000       0.10000000 </v>
   <v>       0.37500000       0.00000000       0.10000000 </v>
   <v>       0.41666667       0.00000000       0.10000000 </v>
   <v>       0.45833333       0.00000000       0.10000000 </v>
   <v>       0.50000000       0.00000000       0.10000000 </v>
   <v>       0.00000000       0.07142857       0.10000000 </v>
   <v>       0.04166667       0.07142857       0.10000000 </v>
   <v>       0.08333333       0.07142857       0.10000000 </v>
   <v>       0.12500000       0.07142857       0.10000000 </v>
   <v>       0.16666667       0.07142857       0.10000000 </v>
   <v>       0.20833333       0.07142857       0.10000000 </v>
   <v>       0.25000000       0.07142857       0.10000000 </v>
   <v>       0.29166667       0.07142857       0.10000000 </v>
   <v>       0.33333333       0.07142857       0.10000000 </v>
   <v>       0.37500000       0.07142857       0.10000000 </v>
   <v>       0.41666667       0.07142857       0.10000000 </v>
   <v>       0.45833333       0.07142857       0.10000000 </v>
   <v>       0.50000000       0.07142857       0.10000000 </v>
   <v>       0.00000000       0.14285714       0.10000000 </v>
   <v>       0.04166667       0.14285714       0.10000000 </v>
   <v>       0.08333333       0.14285714       0.10000000 </v>
   <v>       0.12500000       0.14285714       0.10000000 </v>
   <v>       0.16666667       0.14285714       0.10000000 </v>
   <v>       0.20833333       0.14285714       0.10000000 </v>
   <v>       0.25000000       0.14285714       0.10000000 </v>
   <v>       0.29166667       0.14285714       0.10000000 </v>
   <v>       0.33333333       0.14285714       0.10000000 </v>
   <v>       0.37500000       0.14285714       0.10000000 </v>
   <v>       0.41666667       0.14285714       0.10000000 </v>
   <v>       0.45833333       0.14285714       0.10000000 </v>
   <v>       0.50000000       0.14285714       0.10000000 </v>
   <v>       0.00000000       0.21428571       0.10000000 </v>
   <v>       0.04166667       0.21428571       0.10000000 </v>
   <v>       0.08333333       0.21428571       0.10000000 </v>
   <v>       0.12500000       0.21428571       0.10000000 </v>
   <v>       0.16666667       0.21428571       0.10000000 </v>
   <v>       0.20833333       0.21428571       0.10000000 </v>
   <v>       0.25000000       0.21428571       0.10000000 </v>
   <v>       0.29166667       0.21428571       0.10000000 </v>
   <v>       0.33333333       0.21428571       0.10000000 </v>
   <v>       0.37500000       0.21428571       0.10000000 </v>
   <v>       0.41666667       0.21428571       0.10000000 </v>
   <v>       0.45833333       0.21428571       0.10000000 </v>
   <v>       0.50000000       0.21428571       0.10000000 </v>
   <v>       0.00000000       0.28571429       0.10000000 </v>
   <v>       0.04166667       0.28571429       0.10000000 </v>
   <v>       0.08333333       0.28571429       0.10000000 </v>
   <v>       0.12500000       0.28571429       0.10000000 </v>
   <v>       0.16666667       0.28571429       0.10000000 </v>
   <v>       0.20833333       0.28571429       0.10000000 </v>
   <v>       0.25000000       0.28571429       0.10000000 </v>
   <v>       0.29166667       0.28571429       0.10000000 </v>
   <v>       0.33333333       0.28571429       0.10000000 </v>
   <v>       0.37500000       0.28571429       0.10000000 </v>
   <v>       0.41666667       0.28571429       0.10000000 </v>
   <v>       0.45833333       0.28571429       0.10000000 </v>
   <v>       0.50000000       0.28571429       0.10000000 </v>
   <v>       0.00000000       0.35714286       0.10000000 </v>
   <v>       0.04166667       0.35714286       0.10000000 </v>
   <v>       0.08333333       0.35714286       0.10000000 </v>
   <v>       0.12500000       0.35714286       0.10000000 </v>
   <v>       0.16666667       0.35714286       0.10000000 </v>
   <v>       0.20833333       0.35714286       0.10000000 </v>
   <v>       0.25000000       0.35714286       0.10000000 </v>
   <v>       0.29166667       0.35714286       0.10000000 </v>
   <v>       0.33333333       0.35714286       0.10000000 </v>
   <v>       0.37500000       0.35714286       0.10000000 </v>
   <v>       0.41666667       0.35714286       0.10000000 </v>
   <v>       0.45833333       0.35714286       0.10000000 </v>
   <v>       0.50000000       0.35714286       0.10000000 </v>
   <v>       0.00000000       0.42857143       0.10000000 </v>
   <v>       0.04166667       0.42857143       0.10000000 </v>
   <v>       0.08333333       0.42857143       0.10000000 </v>
   <v>       0.12500000       0.42857143       0.10000000 </v>
   <v>       0.16666667       0.42857143       0.10000000 </v>
   <v>       0.20833333       0.42857143       0.10000000 </v>
   <v>       0.25000000       0.42857143       0.10000000 </v>
   <v>       0.29166667       0.42857143       0.10000000 </v>
   <v>       0.33333333       0.42857143       0.10000000 </v>
   <v>       0.37500000       0.42857143       0.10000000 </v>
   <v>       0.41666667       0.42857143       0.10000000 </v>
   <v>       0.45833333       0.42857143       0.10000000 </v>
   <v>       0.50000000       0.42857143       0.10000000 </v>
   <v>       0.00000000       0.50000000       0.10000000 </v>
   <v>       0.04166667       0.50000000       0.10000000 </v>
   <v>       0.08333333       0.50000000       0.10000000 </v>
   <v>       0.12500000       0.50000000       0.10000000 </v>
   <v>       0.16666667       0.50000000       0.10000000 </v>
   <v>       0.20833333       0.50000000       0.10000000 </v>
   <v>       0.25000000       0.50000000       0.10000000 </v>
   <v>       0.29166667       0.50000000       0.10000000 </v>
   <v>       0.33333333       0.50000000       0.10000000 </v>
   <v>       0.37500000       0.50000000       0.10000000 </v>
   <v>       0.41666667       0.50000000       0.10000000 </v>
   <v>       0.45833333       0.50000000       0.10000000 </v>
   <v>       0.50000000       0.50000000       0.10000000 </v>
   <v>       0.00000000      -0.42857143       0.10000000 </v>
   <v>       0.04166667      -0.42857143       0.10000000 </v>
   <v>       0.08333333      -0.42857143       0.10000000 </v>
   <v>       0.12500000      -0.42857143       0.10000000 </v>
   <v>       0.16666667      -0.42857143       0.10000000 </v>
   <v>       0.20833333      -0.42857143       0.10000000 </v>
   <v>       0.25000000      -0.42857143       0.10000000 </v>
   <v>       0.29166667      -0.42857143       0.10000000 </v>
   <v>       0.33333333      -0.42857143       0.10000000 </v>
   <v>       0.37500000      -0.42857143       0.10000000 </v>
   <v>       0.41666667      -0.42857143       0.10000000 </v>
   <v>       0.45833333      -0.42857143       0.10000000 </v>
   <v>       0.50000000      -0.42857143       0.10000000 </v>
   <v>       0.00000000      -0.35714286       0.10000000 </v>
   <v>       0.04166667      -0.35714286       0.10000000 </v>
   <v>       0.08333333      -0.35714286       0.10000000 </v>
   <v>       0.12500000      -0.35714286       0.10000000 </v>
   <v>       0.16666667      -0.35714286       0.10000000 </v>
   <v>       0.20833333      -0.35714286       0.10000000 </v>
   <v>       0.25000000      -0.35714286       0.10000000 </v>
   <v>       0.29166667      -0.35714286       0.10000000 </v>
   <v>       0.33333333      -0.35714286       0.10000000 </v>
   <v>       0.37500000      -0.35714286       0.10000000 </v>
   <v>       0.41666667      -0.35714286       0.10000000 </v>
   <v>       0.45833333      -0.35714286       0.10000000 </v>
   <v>       0.50000000      -0.35714286       0.10000000 </v>
   <v>       0.00000000      -0.28571429       0.10000000 </v>
   <v>       0.04166667      -0.28571429       0.10000000 </v>
   <v>       0.08333333      -0.28571429       0.10000000 </v>
   <v>       0.12500000      -0.28571429       0.10000000 </v>
   <v>       0.16666667      -0.28571429       0.10000000 </v>
   <v>       0.20833333      -0.28571429       0.10000000 </v>
   <v>       0.25000000      -0.28571429       0.10000000 </v>
   <v>       0.29166667      -0.28571429       0.10000000 </v>
   <v>       0.33333333      -0.28571429       0.10000000 </v>
   <v>       0.37500000      -0.28571429       0.10000000 </v>
   <v>       0.41666667      -0.28571429       0.10000000 </v>
   <v>       0.45833333      -0.28571429       0.10000000 </v>
   <v>       0.50000000      -0.28571429       0.10000000 </v>
   <v>       0.00000000      -0.21428571       0.10000000 </v>
   <v>       0.04166667      -0.21428571       0.10000000 </v>
   <v>       0.08333333      -0.21428571       0.10000000 </v>
   <v>       0.12500000      -0.21428571       0.10000000 </v>
   <v>       0.16666667      -0.21428571       0.10000000 </v>
   <v>       0.20833333      -0.21428571       0.10000000 </v>
   <v>       0.25000000      -0.21428571       0.10000000 </v>
   <v>       0.29166667      -0.21428571       0.10000000 </v>
   <v>       0.33333333      -0.21428571       0.10000000 </v>
   <v>       0.37500000      -0.21428571       0.10000000 </v>
   <v>       0.41666667      -0.21428571       0.10000000 </v>
   <v>       0.45833333      -0.21428571       0.10000000 </v>
   <v>       0.50000000      -0.21428571       0.10000000 </v>
   <v>       0.00000000      -0.14285714       0.10000000 </v>
   <v>       0.04166667      -0.14285714       0.10000000 </v>
   <v>       0.08333333      -0.14285714       0.10000000 </v>
   <v>       0.12500000      -0.14285714       0.10000000 </v>
   <v>       0.16666667      -0.14285714       0.10000000 </v>
   <v>       0.20833333      -0.14285714       0.10000000 </v>
   <v>       0.25000000      -0.14285714       0.10000000 </v>
   <v>       0.29166667      -0.14285714       0.10000000 </v>
   <v>       0.33333333      -0.14285714       0.10000000 </v>
   <v>       0.37500000      -0.14285714       0.10000000 </v>
   <v>       0.41666667      -0.14285714       0.10000000 </v>
   <v>       0.45833333      -0.14285714       0.10000000 </v>
   <v>       0.50000000      -0.14285714       0.10000000 </v>
   <v>       0.00000000      -0.07142857       0.10000000 </v>
   <v>       0.04166667      -0.07142857       0.10000000 </v>
   <v>       0.08333333      -0.07142857       0.10000000 </v>
   <v>       0.12500000      -0.07142857       0.10000000 </v>
   <v>       0.16666667      -0.07142857       0.10000000 </v>
   <v>       0.20833333      -0.07142857       0.10000000 </v>
   <v>       0.25000000      -0.07142857       0.10000000 </v>
   <v>       0.29166667      -0.07142857       0.10000000 </v>
   <v>       0.33333333      -0.07142857       0.10000000 </v>
   <v>       0.37500000      -0.07142857       0.10000000 </v>
   <v>       0.41666667      -0.07142857       0.10000000 </v>
   <v>       0.45833333      -0.07142857       0.10000000 </v>
   <v>       0.50000000      -0.07142857       0.10000000 </v>
   <v>       0.00000000       0.00000000       0.20000000 </v>
   <v>       0.04166667       0.00000000       0.20000000 </v>
   <v>       0.08333333       0.00000000       0.20000000 </v>
   <v>       0.12500000       0.00000000       0.20000000 </v>
   <v>       0.16666667       0.00000000       0.20000000 </v>
   <v>       0.20833333       0.00000000       0.20000000 </v>
   <v>       0.25000000       0.00000000       0.20000000 </v>
   <v>       0.29166667       0.00000000       0.20000000 </v>
   <v>       0.33333333       0.00000000       0.20000000 </v>
   <v>       0.37500000       0.00000000       0.20000000 </v>
   <v>       0.41666667       0.00000000       0.20000000 </v>
   <v>       0.45833333       0.00000000       0.20000000 </v>
   <v>       0.50000000       0.00000000       0.20000000 </v>
   <v>       0.00000000       0.07142857       0.20000000 </v>
   <v>       0.04166667       0.07142857       0.20000000 </v>
   <v>       0.08333333       0.07142857       0.20000000 </v>
   <v>       0.12500000       0.07142857       0.20000000 </v>
   <v>       0.16666667       0.07142857       0.20000000 </v>
   <v>       0.20833333       0.07142857       0.20000000 </v>
   <v>       0.25000000       0.07142857       0.20000000 </v>
   <v>       0.29166667       0.07142857       0.20000000 </v>
   <v>       0.33333333       0.07142857       0.20000000 </v>
   <v>       0.37500000       0.07142857       0.20000000 </v>
   <v>       0.41666667       0.07142857       0.20000000 </v>
   <v>       0.45833333       0.07142857       0.20000000 </v>
   <v>       0.50000000       0.07142857       0.20000000 </v>
   <v>       0.00000000       0.14285714       0.20000000 </v>
   <v>       0.04166667       0.14285714       0.20000000 </v>
   <v>       0.08333333       0.14285714       0.20000000 </v>
   <v>       0.12500000       0.14285714       0.20000000 </v>
   <v>       0.16666667       0.14285714       0.20000000 </v>
   <v>       0.20833333       0.14285714       0.20000000 </v>
   <v>       0.25000000       0.14285714       0.20000000 </v>
   <v>       0.29166667       0.14285714       0.20000000 </v>
   <v>       0.33333333       0.14285714       0.20000000 </v>
   <v>       0.37500000       0.14285714       0.20000000 </v>
   <v>       0.41666667       0.14285714       0.20000000 </v>
   <v>       0.45833333       0.14285714       0.20000000 </v>
   <v>       0.50000000       0.14285714       0.20000000 </v>
   <v>       0.00000000       0.21428571       0.20000000 </v>
   <v>       0.04166667       0.21428571       0.20000000 </v>
   <v>       0.08333333       0.21428571       0.20000000 </v>
   <v>       0.12500000       0.21428571       0.20000000 </v>
   <v>       0.16666667       0.21428571       0.20000000 </v>
   <v>       0.20833333       0.21428571       0.20000000 </v>
   <v>       0.25000000       0.21428571       0.20000000 </v>
   <v>       0.29166667       0.21428571       0.20000000 </v>
   <v>       0.33333333       0.21428571       0.20000000 </v>
   <v>       0.37500000       0.21428571       0.20000000 </v>
   <v>       0.41666667       0.21428571       0.20000000 </v>
   <v>       0.45833333       0.21428571       0.20000000 </v>
   <v>       0.50000000       0.21428571       0.20000000 </v>
   <v>       0.00000000       0.28571429       0.20000000 </v>
   <v>       0.04166667       0.28571429       0.20000000 </v>
   <v>       0.08333333       0.28571429       0.20000000 </v>
   <v>       0.12500000       0.28571429       0.20000000 </v>
   <v>       0.16666667       0.28571429       0.20000000 </v>
   <v>       0.20833333       0.28571429       0.20000000 </v>
   <v>       0.25000000       0.28571429       0.20000000 </v>
   <v>       0.29166667       0.28571429       0.20000000 </v>
   <v>       0.33333333       0.28571429       0.20000000 </v>
   <v>       0.37500000       0.28571429       0.20000000 </v>
   <v>       0.41666667       0.28571429       0.20000000 </v>
   <v>       0.45833333       0.28571429       0.20000000 </v>
   <v>       0.50000000       0.28571429       0.20000000 </v>
   <v>       0.00000000       0.35714286       0.20000000 </v>
   <v>       0.04166667       0.35714286       0.20000000 </v>
   <v>       0.08333333       0.35714286       0.20000000 </v>
   <v>       0.12500000       0.35714286       0.20000000 </v>
   <v>       0.16666667       0.35714286       0.20000000 </v>
   <v>       0.20833333       0.35714286       0.20000000 </v>
   <v>       0.25000000       0.35714286       0.20000000 </v>
   <v>       0.29166667       0.35714286       0.20000000 </v>
   <v>       0.33333333       0.35714286       0.20000000 </v>
   <v>       0.37500000       0.35714286       0.20000000 </v>
   <v>       0.41666667       0.35714286       0.20000000 </v>
   <v>       0.45833333       0.35714286       0.20000000 </v>
   <v>       0.50000000       0.35714286       0.20000000 </v>
   <v>       0.00000000       0.42857143       0.20000000 </v>
   <v>       0.04166667       0.42857143       0.20000000 </v>
   <v>       0.08333333       0.42857143       0.20000000 </v>
   <v>       0.12500000       0.42857143       0.20000000 </v>
   <v>       0.16666667       0.42857143       0.20000000 </v>
   <v>       0.20833333       0.42857143       0.20000000 </v>
   <v>       0.25000000       0.42857143       0.20000000 </v>
   <v>       0.29166667       0.42857143       0.20000000 </v>
   <v>       0.33333333       0.42857143       0.20000000 </v>
   <v>       0.37500000       0.42857143       0.20000000 </v>
   <v>       0.41666667       0.42857143       0.20000000 </v>
   <v>       0.45833333       0.42857143       0.20000000 </v>
   <v>       0.50000000       0.42857143       0.20000000 </v>
   <v>       0.00000000       0.50000000       0.20000000 </v>
   <v>       0.04166667       0.50000000       0.20000000 </v>
   <v>       0.08333333       0.50000000       0.20000000 </v>
   <v>       0.12500000       0.50000000       0.20000000 </v>
   <v>       0.16666667       0.50000000       0.20000000 </v>
   <v>       0.20833333       0.50000000       0.20000000 </v>
   <v>       0.25000000       0.50000000       0.20000000 </v>
   <v>       0.29166667       0.50000000       0.20000000 </v>
   <v>       0.33333333       0.50000000       0.20000000 </v>
   <v>       0.37500000       0.50000000       0.20000000 </v>
   <v>       0.41666667       0.50000000       0.20000000 </v>
   <v>       0.45833333       0.50000000       0.20000000 </v>
   <v>       0.50000000       0.50000000       0.20000000 </v>
   <v>       0.00000000      -0.42857143       0.20000000 </v>
   <v>       0.04166667      -0.42857143       0.20000000 </v>
   <v>       0.08333333      -0.42857143       0.20000000 </v>
   <v>       0.12500000      -0.42857143       0.20000000 </v>
   <v>       0.16666667      -0.42857143       0.20000000 </v>
   <v>       0.20833333      -0.42857143       0.20000000 </v>
   <v>       0.25000000      -0.42857143       0.20000000 </v>
   <v>       0.29166667      -0.42857143       0.20000000 </v>
   <v>       0.33333333      -0.42857143       0.20000000 </v>
   <v>       0.37500000      -0.42857143       0.20000000 </v>
   <v>       0.41666667      -0.42857143       0.20000000 </v>
   <v>       0.45833333      -0.42857143       0.20000000 </v>
   <v>       0.50000000      -0.42857143       0.20000000 </v>
   <v>       0.00000000      -0.35714286       0.20000000 </v>
   <v>       0.04166667      -0.35714286       0.20000000 </v>
   <v>       0.08333333      -0.35714286       0.20000000 </v>
   <v>       0.12500000      -0.35714286       0.20000000 </v>
   <v>       0.16666667      -0.35714286       0.20000000 </v>
   <v>       0.20833333      -0.35714286       0.20000000 </v>
   <v>       0.25000000      -0.35714286       0.20000000 </v>
   <v>       0.29166667      -0.35714286       0.20000000 </v>
   <v>       0.33333333      -0.35714286       0.20000000 </v>
   <v>       0.37500000      -0.35714286       0.20000000 </v>
   <v>       0.41666667      -0.35714286       0.20000000 </v>
   <v>       0.45833333      -0.35714286       0.20000000 </v>
   <v>       0.50000000      -0.35714286       0.20000000 </v>
   <v>       0.00000000      -0.28571429       0.20000000 </v>
   <v>       0.04166667      -0.28571429       0.20000000 </v>
   <v>       0.08333333      -0.28571429       0.20000000 </v>
   <v>       0.12500000      -0.28571429       0.20000000 </v>
   <v>       0.16666667      -0.28571429       0.20000000 </v>
   <v>       0.20833333      -0.28571429       0.20000000 </v>
   <v>       0.25000000      -0.28571429       0.20000000 </v>
   <v>       0.29166667      -0.28571429       0.20000000 </v>
   <v>       0.33333333      -0.28571429       0.20000000 </v>
   <v>       0.37500000      -0.28571429       0.20000000 </v>
   <v>       0.41666667      -0.28571429       0.20000000 </v>
   <v>       0.45833333      -0.28571429       0.20000000 </v>
   <v>       0.50000000      -0.28571429       0.20000000 </v>
   <v>       0.00000000      -0.21428571       0.20000000 </v>
   <v>       0.04166667      -0.21428571       0.20000000 </v>
   <v>       0.08333333      -0.21428571       0.20000000 </v>
   <v>       0.12500000      -0.21428571       0.20000000 </v>
   <v>       0.16666667      -0.21428571       0.20000000 </v>
   <v>       0.20833333      -0.21428571       0.20000000 </v>
   <v>       0.25000000      -0.21428571       0.20000000 </v>
   <v>       0.29166667      -0.21428571       0.20000000 </v>
   <v>       0.33333333      -0.21428571       0.20000000 </v>
   <v>       0.37500000      -0.21428571       0.20000000 </v>
   <v>       0.41666667      -0.21428571       0.20000000 </v>
   <v>       0.45833333      -0.21428571       0.20000000 </v>
   <v>       0.50000000      -0.21428571       0.20000000 </v>
   <v>       0.00000000      -0.14285714       0.20000000 </v>
   <v>       0.04166667      -0.14285714       0.20000000 </v>
   <v>       0.08333333      -0.14285714       0.20000000 </v>
   <v>       0.12500000      -0.14285714       0.20000000 </v>
   <v>       0.16666667      -0.14285714       0.20000000 </v>
   <v>       0.20833333      -0.14285714       0.20000000 </v>
   <v>       0.25000000      -0.14285714       0.20000000 </v>
   <v>       0.29166667      -0.14285714       0.20000000 </v>
   <v>       0.33333333      -0.14285714       0.20000000 </v>
   <v>       0.37500000      -0.14285714       0.20000000 </v>
   <v>       0.41666667      -0.14285714       0.20000000 </v>
   <v>       0.45833333      -0.14285714       0.20000000 </v>
   <v>       0.50000000      -0.14285714       0.20000000 </v>
   <v>       0.00000000      -0.07142857       0.20000000 </v>
   <v>       0.04166667      -0.07142857       0.20000000 </v>
   <v>       0.08333333      -0.07142857       0.20000000 </v>
   <v>       0.12500000      -0.07142857       0.20000000 </v>
   <v>       0.16666667      -0.07142857       0.20000000 </v>
   <v>       0.20833333      -0.07142857       0.20000000 </v>
   <v>       0.25000000      -0.07142857       0.20000000 </v>
   <v>       0.29166667      -0.07142857       0.20000000 </v>
   <v>       0.33333333      -0.07142857       0.20000000 </v>
   <v>       0.37500000      -0.07142857       0.20000000 </v>
   <v>       0.41666667      -0.07142857       0.20000000 </v>
   <v>       0.45833333      -0.07142857       0.20000000 </v>
   <v>       0.50000000      -0.07142857       0.20000000 </v>
   <v>       0.00000000       0.00000000       0.30000000 </v>
   <v>       0.04166667       0.00000000       0.30000000 </v>
   <v>       0.08333333       0.00000000       0.30000000 </v>
   <v>       0.12500000       0.00000000       0.30000000 </v>
   <v>       0.16666667       0.00000000       0.30000000 </v>
   <v>       0.20833333       0.00000000       0.30000000 </v>
   <v>       0.25000000       0.00000000       0.30000000 </v>
   <v>       0.29166667       0.00000000       0.30000000 </v>
   <v>       0.33333333       0.00000000       0.30000000 </v>
   <v>       0.37500000       0.00000000       0.30000000 </v>
   <v>       0.41666667       0.00000000       0.30000000 </v>
   <v>       0.45833333       0.00000000       0.30000000 </v>
   <v>       0.50000000       0.00000000       0.30000000 </v>
   <v>       0.00000000       0.07142857       0.30000000 </v>
   <v>       0.04166667       0.07142857       0.30000000 </v>
   <v>       0.08333333       0.07142857       0.30000000 </v>
   <v>       0.12500000       0.07142857       0.30000000 </v>
   <v>       0.16666667       0.07142857       0.30000000 </v>
   <v>       0.20833333       0.07142857       0.30000000 </v>
   <v>       0.25000000       0.07142857       0.30000000 </v>
   <v>       0.29166667       0.07142857       0.30000000 </v>
   <v>       0.33333333       0.07142857       0.30000000 </v>
   <v>       0.37500000       0.07142857       0.30000000 </v>
   <v>       0.41666667       0.07142857       0.30000000 </v>
   <v>       0.45833333       0.07142857       0.30000000 </v>
   <v>       0.50000000       0.07142857       0.30000000 </v>
   <v>       0.00000000       0.14285714       0.30000000 </v>
   <v>       0.04166667       0.14285714       0.30000000 </v>
   <v>       0.08333333       0.14285714       0.30000000 </v>
   <v>       0.12500000       0.14285714       0.30000000 </v>
   <v>       0.16666667       0.14285714       0.30000000 </v>
   <v>       0.20833333       0.14285714       0.30000000 </v>
   <v>       0.25000000       0.14285714       0.30000000 </v>
   <v>       0.29166667       0.14285714       0.30000000 </v>
   <v>       0.33333333       0.14285714       0.30000000 </v>
   <v>       0.37500000       0.14285714       0.30000000 </v>
   <v>       0.41666667       0.14285714       0.30000000 </v>
   <v>       0.45833333       0.14285714       0.30000000 </v>
   <v>       0.50000000       0.14285714       0.30000000 </v>
   <v>       0.00000000       0.21428571       0.30000000 </v>
   <v>       0.04166667       0.21428571       0.30000000 </v>
   <v>       0.08333333       0.21428571       0.30000000 </v>
   <v>       0.12500000       0.21428571       0.30000000 </v>
   <v>       0.16666667       0.21428571       0.30000000 </v>
   <v>       0.20833333       0.21428571       0.30000000 </v>
   <v>       0.25000000       0.21428571       0.30000000 </v>
   <v>       0.29166667       0.21428571       0.30000000 </v>
   <v>       0.33333333       0.21428571       0.30000000 </v>
   <v>       0.37500000       0.21428571       0.30000000 </v>
   <v>       0.41666667       0.21428571       0.30000000 </v>
   <v>       0.45833333       0.21428571       0.30000000 </v>
   <v>       0.50000000       0.21428571       0.30000000 </v>
   <v>       0.00000000       0.28571429       0.30000000 </v>
   <v>       0.04166667       0.28571429       0.30000000 </v>
   <v>       0.08333333       0.28571429       0.30000000 </v>
   <v>       0.12500000       0.28571429       0.30000000 </v>
   <v>       0.16666667       0.28571429       0.30000000 </v>
   <v>       0.20833333       0.28571429       0.30000000 </v>
   <v>       0.25000000       0.28571429       0.30000000 </v>
   <v>       0.29166667       0.28571429       0.30000000 </v>
   <v>       0.33333333       0.28571429       0.30000000 </v>
   <v>       0.37500000       0.28571429       0.30000000 </v>
   <v>       0.41666667       0.28571429       0.30000000 </v>
   <v>       0.45833333       0.28571429       0.30000000 </v>
   <v>       0.50000000       0.28571429       0.30000000 </v>
   <v>       0.00000000       0.35714286       0.30000000 </v>
   <v>       0.04166667       0.35714286       0.30000000 </v>
   <v>       0.08333333       0.35714286       0.30000000 </v>
   <v>       0.12500000       0.35714286       0.30000000 </v>
   <v>       0.16666667       0.35714286       0.30000000 </v>
   <v>       0.20833333       0.35714286       0.30000000 </v>
   <v>       0.25000000       0.35714286       0.30000000 </v>
   <v>       0.29166667       0.35714286       0.30000000 </v>
   <v>       0.33333333       0.35714286       0.30000000 </v>
   <v>       0.37500000       0.35714286       0.30000000 </v>
   <v>       0.41666667       0.35714286       0.30000000 </v>
   <v>       0.45833333       0.35714286       0.30000000 </v>
   <v>       0.50000000       0.35714286       0.30000000 </v>
   <v>       0.00000000       0.42857143       0.30000000 </v>
   <v>       0.04166667       0.42857143       0.30000000 </v>
   <v>       0.08333333       0.42857143       0.30000000 </v>
   <v>       0.12500000       0.42857143       0.30000000 </v>
   <v>       0.16666667       0.42857143       0.30000000 </v>
   <v>       0.20833333       0.42857143       0.30000000 </v>
   <v>       0.25000000       0.42857143       0.30000000 </v>
   <v>       0.29166667       0.42857143       0.30000000 </v>
   <v>       0.33333333       0.42857143       0.30000000 </v>
   <v>       0.37500000       0.42857143       0.30000000 </v>
   <v>       0.41666667       0.42857143       0.30000000 </v>
   <v>       0.45833333       0.42857143       0.30000000 </v>
   <v>       0.50000000       0.42857143       0.30000000 </v>
   <v>       0.00000000       0.50000000       0.30000000 </v>
   <v>       0.04166667       0.50000000       0.30000000 </v>
   <v>       0.08333333       0.50000000       0.30000000 </v>
   <v>       0.12500000       0.50000000       0.30000000 </v>
   <v>       0.16666667       0.50000000       0.30000000 </v>
   <v>       0.20833333       0.50000000       0.30000000 </v>
   <v>       0.25000000       0.50000000       0.30000000 </v>
   <v>       0.29166667       0.50000000       0.30000000 </v>
   <v>       0.33333333       0.50000000       0.30000000 </v>
   <v>       0.37500000       0.50000000       0.30000000 </v>
   <v>       0.41666667       0.50000000       0.30000000 </v>
   <v>       0.45833333       0.50000000       0.30000000 </v>
   <v>       0.50000000       0.50000000       0.30000000 </v>
   <v>       0.00000000      -0.42857143       0.30000000 </v>
   <v>       0.04166667      -0.42857143       0.30000000 </v>
   <v>       0.08333333      -0.42857143       0.30000000 </v>
   <v>       0.12500000      -0.42857143       0.30000000 </v>
   <v>       0.16666667      -0.42857143       0.30000000 </v>
   <v>       0.20833333      -0.42857143       0.30000000 </v>
   <v>       0.25000000      -0.42857143       0.30000000 </v>
   <v>       0.29166667      -0.42857143       0.30000000 </v>
   <v>       0.33333333      -0.42857143       0.30000000 </v>
   <v>       0.37500000      -0.42857143       0.30000000 </v>
   <v>       0.41666667      -0.42857143       0.30000000 </v>
   <v>       0.45833333      -0.42857143       0.30000000 </v>
   <v>       0.50000000      -0.42857143       0.30000000 </v>
   <v>       0.00000000      -0.35714286       0.30000000 </v>
   <v>       0.04166667      -0.35714286       0.30000000 </v>
   <v>       0.08333333      -0.35714286       0.30000000 </v>
   <v>       0.12500000      -0.35714286       0.30000000 </v>
   <v>       0.16666667      -0.35714286       0.30000000 </v>
   <v>       0.20833333      -0.35714286       0.30000000 </v>
   <v>       0.25000000      -0.35714286       0.30000000 </v>
   <v>       0.29166667      -0.35714286       0.30000000 </v>
   <v>       0.33333333      -0.35714286       0.30000000 </v>
   <v>       0.37500000      -0.35714286       0.30000000 </v>
   <v>       0.41666667      -0.35714286       0.30000000 </v>
   <v>       0.45833333      -0.35714286       0.30000000 </v>
   <v>       0.50000000      -0.35714286       0.30000000 </v>
   <v>       0.00000000      -0.28571429       0.30000000 </v>
   <v>       0.04166667      -0.28571429       0.30000000 </v>
   <v>       0.08333333      -0.28571429       0.30000000 </v>
   <v>       0.12500000      -0.28571429       0.30000000 </v>
   <v>       0.16666667      -0.28571429       0.30000000 </v>
   <v>       0.20833333      -0.28571429       0.30000000 </v>
   <v>       0.25000000      -0.28571429       0.30000000 </v>
   <v>       0.29166667      -0.28571429       0.30000000 </v>
   <v>       0.33333333      -0.28571429       0.30000000 </v>
   <v>       0.37500000      -0.28571429       0.30000000 </v>
   <v>       0.41666667      -0.28571429       0.30000000 </v>
   <v>       0.45833333      -0.28571429       0.30000000 </v>
   <v>       0.50000000      -0.28571429       0.30000000 </v>
   <v>       0.00000000      -0.21428571       0.30000000 </v>
   <v>       0.04166667      -0.21428571       0.30000000 </v>
   <v>       0.08333333      -0.21428571       0.30000000 </v>
   <v>       0.12500000      -0.21428571       0.30000000 </v>
   <v>       0.16666667      -0.21428571       0.30000000 </v>
   <v>       0.20833333      -0.21428571       0.30000000 </v>
   <v>       0.25000000      -0.21428571       0.30000000 </v>
   <v>       0.29166667      -0.21428571       0.30000000 </v>
   <v>       0.33333333      -0.21428571       0.30000000 </v>
   <v>       0.37500000      -0.21428571       0.30000000 </v>
   <v>       0.41666667      -0.21428571       0.30000000 </v>
   <v>       0.45833333      -0.21428571       0.30000000 </v>
   <v>       0.50000000      -0.21428571       0.30000000 </v>
   <v>       0.00000000      -0.14285714       0.30000000 </v>
   <v>       0.04166667      -0.14285714       0.30000000 </v>
   <v>       0.08333333      -0.14285714       0.30000000 </v>
   <v>       0.12500000      -0.14285714       0.30000000 </v>
   <v>       0.16666667      -0.14285714       0.30000000 </v>
   <v>       0.20833333      -0.14285714       0.30000000 </v>
   <v>       0.25000000      -0.14285714       0.30000000 </v>
   <v>       0.29166667      -0.14285714       0.30000000 </v>
   <v>       0.33333333      -0.14285714       0.30000000 </v>
   <v>       0.37500000      -0.14285714       0.30000000 </v>
   <v>       0.41666667      -0.14285714       0.30000000 </v>
   <v>       0.45833333      -0.14285714       0.30000000 </v>
   <v>       0.50000000      -0.14285714       0.30000000 </v>
   <v>       0.00000000      -0.07142857       0.30000000 </v>
   <v>       0.04166667      -0.07142857       0.30000000 </v>
   <v>       0.08333333      -0.07142857       0.30000000 </v>
   <v>       0.12500000      -0.07142857       0.30000000 </v>
   <v>       0.16666667      -0.07142857       0.30000000 </v>
   <v>       0.20833333      -0.07142857       0.30000000 </v>
   <v>       0.25000000      -0.07142857       0.30000000 </v>
   <v>       0.29166667      -0.07142857       0.30000000 </v>
   <v>       0.33333333      -0.07142857       0.30000000 </v>
   <v>       0.37500000      -0.07142857       0.30000000 </v>
   <v>       0.41666667      -0.07142857       0.30000000 </v>
   <v>       0.45833333      -0.07142857       0.30000000 </v>
   <v>       0.50000000      -0.07142857       0.30000000 </v>
   <v>       0.00000000       0.00000000       0.40000000 </v>
   <v>       0.04166667       0.00000000       0.40000000 </v>
   <v>       0.08333333       0.00000000       0.40000000 </v>
   <v>       0.12500000       0.00000000       0.40000000 </v>
   <v>       0.16666667       0.00000000       0.40000000 </v>
   <v>       0.20833333       0.00000000       0.40000000 </v>
   <v>       0.25000000       0.00000000       0.40000000 </v>
   <v>       0.29166667       0.00000000       0.40000000 </v>
   <v>       0.33333333       0.00000000       0.40000000 </v>
   <v>       0.37500000       0.00000000       0.40000000 </v>
   <v>       0.41666667       0.00000000       0.40000000 </v>
   <v>       0.45833333       0.00000000       0.40000000 </v>
   <v>       0.50000000       0.00000000       0.40000000 </v>
   <v>       0.00000000       0.07142857       0.40000000 </v>
   <v>       0.04166667       0.07142857       0.40000000 </v>
   <v>       0.08333333       0.07142857       0.40000000 </v>
   <v>       0.12500000       0.07142857       0.40000000 </v>
   <v>       0.16666667       0.07142857       0.40000000 </v>
   <v>       0.20833333       0.07142857       0.40000000 </v>
   <v>       0.25000000       0.07142857       0.40000000 </v>
   <v>       0.29166667       0.07142857       0.40000000 </v>
   <v>       0.33333333       0.07142857       0.40000000 </v>
   <v>       0.37500000       0.07142857       0.40000000 </v>
   <v>       0.41666667       0.07142857       0.40000000 </v>
   <v>       0.45833333       0.07142857       0.40000000 </v>
   <v>       0.50000000       0.07142857       0.40000000 </v>
   <v>       0.00000000       0.14285714       0.40000000 </v>
   <v>       0.04166667       0.14285714       0.40000000 </v>
   <v>       0.08333333       0.14285714       0.40000000 </v>
   <v>       0.12500000       0.14285714       0.40000000 </v>
   <v>       0.16666667       0.14285714       0.40000000 </v>
   <v>       0.20833333       0.14285714       0.40000000 </v>
   <v>       0.25000000       0.14285714       0.40000000 </v>
   <v>       0.29166667       0.14285714       0.40000000 </v>
   <v>       0.33333333       0.14285714       0.40000000 </v>
   <v>       0.37500000       0.14285714       0.40000000 </v>
   <v>       0.41666667       0.14285714       0.40000000 </v>
   <v>       0.45833333       0.14285714       0.40000000 </v>
   <v>       0.50000000       0.14285714       0.40000000 </v>
   <v>       0.00000000       0.21428571       0.40000000 </v>
   <v>       0.04166667       0.21428571       0.40000000 </v>
   <v>       0.08333333       0.21428571       0.40000000 </v>
   <v>       0.12500000       0.21428571       0.40000000 </v>
   <v>       0.16666667       0.21428571       0.40000000 </v>
   <v>       0.20833333       0.21428571       0.40000000 </v>
   <v>       0.25000000       0.21428571       0.40000000 </v>
   <v>       0.29166667       0.21428571       0.40000000 </v>
   <v>       0.33333333       0.21428571       0.40000000 </v>
   <v>       0.37500000       0.21428571       0.40000000 </v>
   <v>       0.41666667       0.21428571       0.40000000 </v>
   <v>       0.45833333       0.21428571       0.40000000 </v>
   <v>       0.50000000       0.21428571       0.40000000 </v>
   <v>       0.00000000       0.28571429       0.40000000 </v>
   <v>       0.04166667       0.28571429       0.40000000 </v>
   <v>       0.08333333       0.28571429       0.40000000 </v>
   <v>       0.12500000       0.28571429       0.40000000 </v>
   <v>       0.16666667       0.28571429       0.40000000 </v>
   <v>       0.20833333       0.28571429       0.40000000 </v>
   <v>       0.25000000       0.28571429       0.40000000 </v>
   <v>       0.29166667       0.28571429       0.40000000 </v>
   <v>       0.33333333       0.28571429       0.40000000 </v>
   <v>       0.37500000       0.28571429       0.40000000 </v>
   <v>       0.41666667       0.28571429       0.40000000 </v>
   <v>       0.45833333       0.28571429       0.40000000 </v>
   <v>       0.50000000       0.28571429       0.40000000 </v>
   <v>       0.00000000       0.35714286       0.40000000 </v>
   <v>       0.04166667       0.35714286       0.40000000 </v>
   <v>       0.08333333       0.35714286       0.40000000 </v>
   <v>       0.12500000       0.35714286       0.40000000 </v>
   <v>       0.16666667       0.35714286       0.40000000 </v>
   <v>       0.20833333       0.35714286       0.40000000 </v>
   <v>       0.25000000       0.35714286       0.40000000 </v>
   <v>       0.29166667       0.35714286       0.40000000 </v>
   <v>       0.33333333       0.35714286       0.40000000 </v>
   <v>       0.37500000       0.35714286       0.40000000 </v>
   <v>       0.41666667       0.35714286       0.40000000 </v>
   <v>       0.45833333       0.35714286       0.40000000 </v>
   <v>       0.50000000       0.35714286       0.40000000 </v>
   <v>       0.00000000       0.42857143       0.40000000 </v>
   <v>       0.04166667       0.42857143       0.40000000 </v>
   <v>       0.08333333       0.42857143       0.40000000 </v>
   <v>       0.12500000       0.42857143       0.40000000 </v>
   <v>       0.16666667       0.42857143       0.40000000 </v>
   <v>       0.20833333       0.42857143       0.40000000 </v>
   <v>       0.25000000       0.42857143       0.40000000 </v>
   <v>       0.29166667       0.42857143       0.40000000 </v>
   <v>       0.33333333       0.42857143       0.40000000 </v>
   <v>       0.37500000       0.42857143       0.40000000 </v>
   <v>       0.41666667       0.42857143       0.40000000 </v>
   <v>       0.45833333       0.42857143       0.40000000 </v>
   <v>       0.50000000       0.42857143       0.40000000 </v>
   <v>       0.00000000       0.50000000       0.40000000 </v>
   <v>       0.04166667       0.50000000       0.40000000 </v>
   <v>       0.08333333       0.50000000       0.40000000 </v>
   <v>       0.12500000       0.50000000       0.40000000 </v>
   <v>       0.16666667       0.50000000       0.40000000 </v>
   <v>       0.20833333       0.50000000       0.40000000 </v>
   <v>       0.25000000       0.50000000       0.40000000 </v>
   <v>       0.29166667       0.50000000       0.40000000 </v>
   <v>       0.33333333       0.50000000       0.40000000 </v>
   <v>       0.37500000       0.50000000       0.40000000 </v>
   <v>       0.41666667       0.50000000       0.40000000 </v>
   <v>       0.45833333       0.50000000       0.40000000 </v>
   <v>       0.50000000       0.50000000       0.40000000 </v>
   <v>       0.00000000      -0.42857143       0.40000000 </v>
   <v>       0.04166667      -0.42857143       0.40000000 </v>
   <v>       0.08333333      -0.42857143       0.40000000 </v>
   <v>       0.12500000      -0.42857143       0.40000000 </v>
   <v>       0.16666667      -0.42857143       0.40000000 </v>
   <v>       0.20833333      -0.42857143       0.40000000 </v>
   <v>       0.25000000      -0.42857143       0.40000000 </v>
   <v>       0.29166667      -0.42857143       0.40000000 </v>
   <v>       0.33333333      -0.42857143       0.40000000 </v>
   <v>       0.37500000      -0.42857143       0.40000000 </v>
   <v>       0.41666667      -0.42857143       0.40000000 </v>
   <v>       0.45833333      -0.42857143       0.40000000 </v>
   <v>       0.50000000      -0.42857143       0.40000000 </v>
   <v>       0.00000000      -0.35714286       0.40000000 </v>
   <v>       0.04166667      -0.35714286       0.40000000 </v>
   <v>       0.08333333      -0.35714286       0.40000000 </v>
   <v>       0.12500000      -0.35714286       0.40000000 </v>
   <v>       0.16666667      -0.35714286       0.40000000 </v>
   <v>       0.20833333      -0.35714286       0.40000000 </v>
   <v>       0.25000000      -0.35714286       0.40000000 </v>
   <v>       0.29166667      -0.35714286       0.40000000 </v>
   <v>       0.33333333      -0.35714286       0.40000000 </v>
   <v>       0.37500000      -0.35714286       0.40000000 </v>
   <v>       0.41666667      -0.35714286       0.40000000 </v>
   <v>       0.45833333      -0.35714286       0.40000000 </v>
   <v>       0.50000000      -0.35714286       0.40000000 </v>
   <v>       0.00000000      -0.28571429       0.40000000 </v>
   <v>       0.04166667      -0.28571429       0.40000000 </v>
   <v>       0.08333333      -0.28571429       0.40000000 </v>
   <v>       0.12500000      -0.28571429       0.40000000 </v>
   <v>       0.16666667      -0.28571429       0.40000000 </v>
   <v>       0.20833333      -0.28571429       0.40000000 </v>
   <v>       0.25000000      -0.28571429       0.40000000 </v>
   <v>       0.29166667      -0.28571429       0.40000000 </v>
   <v>       0.33333333      -0.28571429       0.40000000 </v>
   <v>       0.37500000      -0.28571429       0.40000000 </v>
   <v>       0.41666667      -0.28571429       0.40000000 </v>
   <v>       0.45833333      -0.28571429       0.40000000 </v>
   <v>       0.50000000      -0.28571429       0.40000000 </v>
   <v>       0.00000000      -0.21428571       0.40000000 </v>
   <v>       0.04166667      -0.21428571       0.40000000 </v>
   <v>       0.08333333      -0.21428571       0.40000000 </v>
   <v>       0.12500000      -0.21428571       0.40000000 </v>
   <v>       0.16666667      -0.21428571       0.40000000 </v>
   <v>       0.20833333      -0.21428571       0.40000000 </v>
   <v>       0.25000000      -0.21428571       0.40000000 </v>
   <v>       0.29166667      -0.21428571       0.40000000 </v>
   <v>       0.33333333      -0.21428571       0.40000000 </v>
   <v>       0.37500000      -0.21428571       0.40000000 </v>
   <v>       0.41666667      -0.21428571       0.40000000 </v>
   <v>       0.45833333      -0.21428571       0.40000000 </v>
   <v>       0.50000000      -0.21428571       0.40000000 </v>
   <v>       0.00000000      -0.14285714       0.40000000 </v>
   <v>       0.04166667      -0.14285714       0.40000000 </v>
   <v>       0.08333333      -0.14285714       0.40000000 </v>
   <v>       0.12500000      -0.14285714       0.40000000 </v>
   <v>       0.16666667      -0.14285714       0.40000000 </v>
   <v>       0.20833333      -0.14285714       0.40000000 </v>
   <v>       0.25000000      -0.14285714       0.40000000 </v>
   <v>       0.29166667      -0.14285714       0.40000000 </v>
   <v>       0.33333333      -0.14285714       0.40000000 </v>
   <v>       0.37500000      -0.14285714       0.40000000 </v>
   <v>       0.41666667      -0.14285714       0.40000000 </v>
   <v>       0.45833333      -0.14285714       0.40000000 </v>
   <v>       0.50000000      -0.14285714       0.40000000 </v>
   <v>       0.00000000      -0.07142857       0.40000000 </v>
   <v>       0.04166667      -0.07142857       0.40000000 </v>
   <v>       0.08333333      -0.07142857       0.40000000 </v>
   <v>       0.12500000      -0.07142857       0.40000000 </v>
   <v>       0.16666667      -0.07142857       0.40000000 </v>
   <v>       0.20833333      -0.07142857       0.40000000 </v>
   <v>       0.25000000      -0.07142857       0.40000000 </v>
   <v>       0.29166667      -0.07142857       0.40000000 </v>
   <v>       0.33333333      -0.07142857       0.40000000 </v>
   <v>       0.37500000      -0.07142857       0.40000000 </v>
   <v>       0.41666667      -0.07142857       0.40000000 </v>
   <v>       0.45833333      -0.07142857       0.40000000 </v>
   <v>       0.50000000      -0.07142857       0.40000000 </v>
   <v>       0.00000000       0.00000000       0.50000000 </v>
   <v>       0.04166667       0.00000000       0.50000000 </v>
   <v>       0.08333333       0.00000000       0.50000000 </v>
   <v>       0.12500000       0.00000000       0.50000000 </v>
   <v>       0.16666667       0.00000000       0.50000000 </v>
   <v>       0.20833333       0.00000000       0.50000000 </v>
   <v>       0.25000000       0.00000000       0.50000000 </v>
   <v>       0.29166667       0.00000000       0.50000000 </v>
   <v>       0.33333333       0.00000000       0.50000000 </v>
   <v>       0.37500000       0.00000000       0.50000000 </v>
   <v>       0.41666667       0.00000000       0.50000000 </v>
   <v>       0.45833333       0.00000000       0.50000000 </v>
   <v>       0.50000000       0.00000000       0.50000000 </v>
   <v>       0.00000000       0.07142857       0.50000000 </v>
   <v>       0.04166667       0.07142857       0.50000000 </v>
   <v>       0.08333333       0.07142857       0.50000000 </v>
   <v>       0.12500000       0.07142857       0.50000000 </v>
   <v>       0.16666667       0.07142857       0.50000000 </v>
   <v>       0.20833333       0.07142857       0.50000000 </v>
   <v>       0.25000000       0.07142857       0.50000000 </v>
   <v>       0.29166667       0.07142857       0.50000000 </v>
   <v>       0.33333333       0.07142857       0.50000000 </v>
   <v>       0.37500000       0.07142857       0.50000000 </v>
   <v>       0.41666667       0.07142857       0.50000000 </v>
   <v>       0.45833333       0.07142857       0.50000000 </v>
   <v>       0.50000000       0.07142857       0.50000000 </v>
   <v>       0.00000000       0.14285714       0.50000000 </v>
   <v>       0.04166667       0.14285714       0.50000000 </v>
   <v>       0.08333333       0.14285714       0.50000000 </v>
   <v>       0.12500000       0.14285714       0.50000000 </v>
   <v>       0.16666667       0.14285714       0.50000000 </v>
   <v>       0.20833333       0.14285714       0.50000000 </v>
   <v>       0.25000000       0.14285714       0.50000000 </v>
   <v>       0.29166667       0.14285714       0.50000000 </v>
   <v>       0.33333333       0.14285714       0.50000000 </v>
   <v>       0.37500000       0.14285714       0.50000000 </v>
   <v>       0.41666667       0.14285714       0.50000000 </v>
   <v>       0.45833333       0.14285714       0.50000000 </v>
   <v>       0.50000000       0.14285714       0.50000000 </v>
   <v>       0.00000000       0.21428571       0.50000000 </v>
   <v>       0.04166667       0.21428571       0.50000000 </v>
   <v>       0.08333333       0.21428571       0.50000000 </v>
   <v>       0.12500000       0.21428571       0.50000000 </v>
   <v>       0.16666667       0.21428571       0.50000000 </v>
   <v>       0.20833333       0.21428571       0.50000000 </v>
   <v>       0.25000000       0.21428571       0.50000000 </v>
   <v>       0.29166667       0.21428571       0.50000000 </v>
   <v>       0.33333333       0.21428571       0.50000000 </v>
   <v>       0.37500000       0.21428571       0.50000000 </v>
   <v>       0.41666667       0.21428571       0.50000000 </v>
   <v>       0.45833333       0.21428571       0.50000000 </v>
   <v>       0.50000000       0.21428571       0.50000000 </v>
   <v>       0.00000000       0.28571429       0.50000000 </v>
   <v>       0.04166667       0.28571429       0.50000000 </v>
   <v>       0.08333333       0.28571429       0.50000000 </v>
   <v>       0.12500000       0.28571429       0.50000000 </v>
   <v>       0.16666667       0.28571429       0.50000000 </v>
   <v>       0.20833333       0.28571429       0.50000000 </v>
   <v>       0.25000000       0.28571429       0.50000000 </v>
   <v>       0.29166667       0.28571429       0.50000000 </v>
   <v>       0.33333333       0.28571429       0.50000000 </v>
   <v>       0.37500000       0.28571429       0.50000000 </v>
   <v>       0.41666667       0.28571429       0.50000000 </v>
   <v>       0.45833333       0.28571429       0.50000000 </v>
   <v>       0.50000000       0.28571429       0.50000000 </v>
   <v>       0.00000000       0.35714286       0.50000000 </v>
   <v>       0.04166667       0.35714286       0.50000000 </v>
   <v>       0.08333333       0.35714286       0.50000000 </v>
   <v>       0.12500000       0.35714286       0.50000000 </v>
   <v>       0.16666667       0.35714286       0.50000000 </v>
   <v>       0.20833333       0.35714286       0.50000000 </v>
   <v>       0.25000000       0.35714286       0.50000000 </v>
   <v>       0.29166667       0.35714286       0.50000000 </v>
   <v>       0.33333333       0.35714286       0.50000000 </v>
   <v>       0.37500000       0.35714286       0.50000000 </v>
   <v>       0.41666667       0.35714286       0.50000000 </v>
   <v>       0.45833333       0.35714286       0.50000000 </v>
   <v>       0.50000000       0.35714286       0.50000000 </v>
   <v>       0.00000000       0.42857143       0.50000000 </v>
   <v>       0.04166667       0.42857143       0.50000000 </v>
   <v>       0.08333333       0.42857143       0.50000000 </v>
   <v>       0.12500000       0.42857143       0.50000000 </v>
   <v>       0.16666667       0.42857143       0.50000000 </v>
   <v>       0.20833333       0.42857143       0.50000000 </v>
   <v>       0.25000000       0.42857143       0.50000000 </v>
   <v>       0.29166667       0.42857143       0.50000000 </v>
   <v>       0.33333333       0.42857143       0.50000000 </v>
   <v>       0.37500000       0.42857143       0.50000000 </v>
   <v>       0.41666667       0.42857143       0.50000000 </v>
   <v>       0.45833333       0.42857143       0.50000000 </v>
   <v>       0.50000000       0.42857143       0.50000000 </v>
   <v>       0.00000000       0.50000000       0.50000000 </v>
   <v>       0.04166667       0.50000000       0.50000000 </v>
   <v>       0.08333333       0.50000000       0.50000000 </v>
   <v>       0.12500000       0.50000000       0.50000000 </v>
   <v>       0.16666667       0.50000000       0.50000000 </v>
   <v>       0.20833333       0.50000000       0.50000000 </v>
   <v>       0.25000000       0.50000000       0.50000000 </v>
   <v>       0.29166667       0.50000000       0.50000000 </v>
   <v>       0.33333333       0.50000000       0.50000000 </v>
   <v>       0.37500000       0.50000000       0.50000000 </v>
   <v>       0.41666667       0.50000000       0.50000000 </v>
   <v>       0.45833333       0.50000000       0.50000000 </v>
   <v>       0.50000000       0.50000000       0.50000000 </v>
  </varray>
  <varray name="weights" >
   <v>       0.00029762 </v>
   <v>       0.00059524 </v>
   <v>       0.00059524 </v>
   <v>       0.00059524 </v>
   <v>       0.00059524 </v>
   <v>       0.00059524 </v>
   <v>       0.00059524 </v>
   <v>       0.00059524 </v>
   <v>       0.00059524 </v>
   <v>       0.00059524 </v>
   <v>       0.00059524 </v>
   <v>       0.00059524 </v>
   <v>       0.00029762 </v>
   <v>       0.00059524 </v>
   <v>       0.00119048 </v>
   <v>       0.00119048 </v>
   <v>       0.00119048 </v>
   <v>       0.00119048 </v>
   <v>       0.00119048 </v>
   <v>       0.00119048 </v>
   <v>       0.00119048 </v>
   <v>       0.00119048 </v>
   <v>       0.00119048 </v>
   <v>       0.00119048 </v>
   <v>       0.00119048 </v>
   <v>       0.00059524 </v>
   <v>       0.00059524 </v>
   <v>       0.00119048 </v>
   <v>       0.00119048 </v>
   <v>       0.00119048 </v>
   <v>       0.00119048 </v>
   <v>       0.00119048 </v>
   <v>       0.00119048 </v>
   <v>       0.00119048 </v>
   <v>       0.00119048 </v>
   <v>       0.00119048 </v>
   <v>       0.00119048 </v>
   <v>       0.00119048 </v>
   <v>       0.00059524 </v>
   <v>       0.00059524 </v>
   <v>       0.00119048 </v>
   <v>       0.00119048 </v>
   <v>       0.00119048 </v>
   <v>       0.00119048 </v>
   <v>       0.00119048 </v>
   <v>       0.00119048 </v>
   <v>       0.00119048 </v>
   <v>       0.00119048 </v>
   <v>       0.00119048 </v>
   <v>       0.00119048 </v>
   <v>       0.00119048 </v>
   <v>       0.00059524 </v>
   <v>       0.00059524 </v>
   <v>       0.00119048 </v>
   <v>       0.00119048 </v>
   <v>       0.00119048 </v>
   <v>       0.00119048 </v>
   <v>       0.00119048 </v>
   <v>       0.00119048 </v>
   <v>       0.00119048 </v>
   <v>       0.00119048 </v>
   <v>       0.00119048 </v>
   <v>       0.00119048 </v>
   <v>       0.00119048 </v>
   <v>       0.00059524 </v>
   <v>       0.00059524 </v>
   <v>       0.00119048 </v>
   <v>       0.00119048 </v>
   <v>       0.00119048 </v>
   <v>       0.00119048 </v>
   <v>       0.00119048 </v>
   <v>       0.00119048 </v>
   <v>       0.00119048 </v>
   <v>       0.00119048 </v>
   <v>       0.00119048 </v>
   <v>       0.00119048 </v>
   <v>       0.00119048 </v>
   <v>       0.00059524 </v>
   <v>       0.00059524 </v>
   <v>       0.00119048 </v>
   <v>       0.00119048 </v>
   <v>       0.00119048 </v>
   <v>       0.00119048 </v>
   <v>       0.00119048 </v>
   <v>       0.00119048 </v>
   <v>       0.00119048 </v>
   <v>       0.00119048 </v>
   <v>       0.00119048 </v>
   <v>       0.00119048 </v>
   <v>       0.00119048 </v>
   <v>       0.00059524 </v>
   <v>       0.00029762 </v>
   <v>       0.00059524 </v>
   <v>       0.00059524 </v>
   <v>       0.00059524 </v>
   <v>       0.00059524 </v>
   <v>       0.00059524 </v>
   <v>       0.00059524 </v>
   <v>       0.00059524 </v>
   <v>       0.00059524 </v>
   <v>       0.00059524 </v>
   <v>       0.00059524 </v>
   <v>       0.00059524 </v>
   <v>       0.00029762 </v>
   <v>       0.00059524 </v>
   <v>       0.00119048 </v>
   <v>       0.00119048 </v>
   <v>       0.00119048 </v>
   <v>       0.00119048 </v>
   <v>       0.00119048 </v>
   <v>       0.00119048 </v>
   <v>       0.00119048 </v>
   <v>       0.00119048 </v>
   <v>       0.00119048 </v>
   <v>       0.00119048 </v>
   <v>       0.00119048 </v>
   <v>       0.00059524 </v>
   <v>       0.00059524 </v>
   <v>       0.00119048 </v>
   <v>       0.00119048 </v>
   <v>       0.00119048 </v>
   <v>       0.00119048 </v>
   <v>       0.00119048 </v>
   <v>       0.00119048 </v>
   <v>       0.00119048 </v>
   <v>       0.00119048 </v>
   <v>       0.00119048 </v>
   <v>       0.00119048 </v>
   <v>       0.00119048 </v>
   <v>       0.00059524 </v>
   <v>       0.00059524 </v>
   <v>       0.00119048 </v>
   <v>       0.00119048 </v>
   <v>       0.00119048 </v>
   <v>       0.00119048 </v>
   <v>       0.00119048 </v>
   <v>       0.00119048 </v>
   <v>       0.00119048 </v>
   <v>       0.00119048 </v>
   <v>       0.00119048 </v>
   <v>       0.00119048 </v>
   <v>       0.00119048 </v>
   <v>       0.00059524 </v>
   <v>       0.00059524 </v>
   <v>       0.00119048 </v>
   <v>       0.00119048 </v>
   <v>       0.00119048 </v>
   <v>       0.00119048 </v>
   <v>       0.00119048 </v>
   <v>       0.00119048 </v>
   <v>       0.00119048 </v>
   <v>       0.00119048 </v>
   <v>       0.00119048 </v>
   <v>       0.00119048 </v>
   <v>       0.00119048 </v>
   <v>       0.00059524 </v>
   <v>       0.00059524 </v>
   <v>       0.00119048 </v>
   <v>       0.00119048 </v>
   <v>       0.00119048 </v>
   <v>       0.00119048 </v>
   <v>       0.00119048 </v>
   <v>       0.00119048 </v>
   <v>       0.00119048 </v>
   <v>       0.00119048 </v>
   <v>       0.00119048 </v>
   <v>       0.00119048 </v>
   <v>       0.00119048 </v>
   <v>       0.00059524 </v>
   <v>       0.00059524 </v>
   <v>       0.00119048 </v>
   <v>       0.00119048 </v>
   <v>       0.00119048 </v>
   <v>       0.00119048 </v>
   <v>       0.00119048 </v>
   <v>       0.00119048 </v>
   <v>       0.00119048 </v>
   <v>       0.00119048 </v>
   <v>       0.00119048 </v>
   <v>       0.00119048 </v>
   <v>       0.00119048 </v>
   <v>       0.00059524 </v>
   <v>       0.00059524 </v>
   <v>       0.00119048 </v>
   <v>       0.00119048 </v>
   <v>       0.00119048 </v>
   <v>       0.00119048 </v>
   <v>       0.00119048 </v>
   <v>       0.00119048 </v>
   <v>       0.00119048 </v>
   <v>       0.00119048 </v>
   <v>       0.00119048 </v>
   <v>       0.00119048 </v>
   <v>       0.00119048 </v>
   <v>       0.00059524 </v>
   <v>       0.00059524 </v>
   <v>       0.00119048 </v>
   <v>       0.00119048 </v>
   <v>       0.00119048 </v>
   <v>       0.00119048 </v>
   <v>       0.00119048 </v>
   <v>       0.00119048 </v>
   <v>       0.00119048 </v>
   <v>       0.00119048 </v>
   <v>       0.00119048 </v>
   <v>       0.00119048 </v>
   <v>       0.00119048 </v>
   <v>       0.00059524 </v>
   <v>       0.00059524 </v>
   <v>       0.00119048 </v>
   <v>       0.00119048 </v>
   <v>       0.00119048 </v>
   <v>       0.00119048 </v>
   <v>       0.00119048 </v>
   <v>       0.00119048 </v>
   <v>       0.00119048 </v>
   <v>       0.00119048 </v>
   <v>       0.00119048 </v>
   <v>       0.00119048 </v>
   <v>       0.00119048 </v>
   <v>       0.00059524 </v>
   <v>       0.00059524 </v>
   <v>       0.00119048 </v>
   <v>       0.00119048 </v>
   <v>       0.00119048 </v>
   <v>       0.00119048 </v>
   <v>       0.00119048 </v>
   <v>       0.00119048 </v>
   <v>       0.00119048 </v>
   <v>       0.00119048 </v>
   <v>       0.00119048 </v>
   <v>       0.00119048 </v>
   <v>       0.00119048 </v>
   <v>       0.00059524 </v>
   <v>       0.00059524 </v>
   <v>       0.00119048 </v>
   <v>       0.00119048 </v>
   <v>       0.00119048 </v>
   <v>       0.00119048 </v>
   <v>       0.00119048 </v>
   <v>       0.00119048 </v>
   <v>       0.00119048 </v>
   <v>       0.00119048 </v>
   <v>       0.00119048 </v>
   <v>       0.00119048 </v>
   <v>       0.00119048 </v>
   <v>       0.00059524 </v>
   <v>       0.00059524 </v>
   <v>       0.00119048 </v>
   <v>       0.00119048 </v>
   <v>       0.00119048 </v>
   <v>       0.00119048 </v>
   <v>       0.00119048 </v>
   <v>       0.00119048 </v>
   <v>       0.00119048 </v>
   <v>       0.00119048 </v>
   <v>       0.00119048 </v>
   <v>       0.00119048 </v>
   <v>       0.00119048 </v>
   <v>       0.00059524 </v>
   <v>       0.00059524 </v>
   <v>       0.00119048 </v>
   <v>       0.00119048 </v>
   <v>       0.00119048 </v>
   <v>       0.00119048 </v>
   <v>       0.00119048 </v>
   <v>       0.00119048 </v>
   <v>       0.00119048 </v>
   <v>       0.00119048 </v>
   <v>       0.00119048 </v>
   <v>       0.00119048 </v>
   <v>       0.00119048 </v>
   <v>       0.00059524 </v>
   <v>       0.00059524 </v>
   <v>       0.00119048 </v>
   <v>       0.00119048 </v>
   <v>       0.00119048 </v>
   <v>       0.00119048 </v>
   <v>       0.00119048 </v>
   <v>       0.00119048 </v>
   <v>       0.00119048 </v>
   <v>       0.00119048 </v>
   <v>       0.00119048 </v>
   <v>       0.00119048 </v>
   <v>       0.00119048 </v>
   <v>       0.00059524 </v>
   <v>       0.00059524 </v>
   <v>       0.00119048 </v>
   <v>       0.00119048 </v>
   <v>       0.00119048 </v>
   <v>       0.00119048 </v>
   <v>       0.00119048 </v>
   <v>       0.00119048 </v>
   <v>       0.00119048 </v>
   <v>       0.00119048 </v>
   <v>       0.00119048 </v>
   <v>       0.00119048 </v>
   <v>       0.00119048 </v>
   <v>       0.00059524 </v>
   <v>       0.00059524 </v>
   <v>       0.00119048 </v>
   <v>       0.00119048 </v>
   <v>       0.00119048 </v>
   <v>       0.00119048 </v>
   <v>       0.00119048 </v>
   <v>       0.00119048 </v>
   <v>       0.00119048 </v>
   <v>       0.00119048 </v>
   <v>       0.00119048 </v>
   <v>       0.00119048 </v>
   <v>       0.00119048 </v>
   <v>       0.00059524 </v>
   <v>       0.00059524 </v>
   <v>       0.00119048 </v>
   <v>       0.00119048 </v>
   <v>       0.00119048 </v>
   <v>       0.00119048 </v>
   <v>       0.00119048 </v>
   <v>       0.00119048 </v>
   <v>       0.00119048 </v>
   <v>       0.00119048 </v>
   <v>       0.00119048 </v>
   <v>       0.00119048 </v>
   <v>       0.00119048 </v>
   <v>       0.00059524 </v>
   <v>       0.00059524 </v>
   <v>       0.00119048 </v>
   <v>       0.00119048 </v>
   <v>       0.00119048 </v>
   <v>       0.00119048 </v>
   <v>       0.00119048 </v>
   <v>       0.00119048 </v>
   <v>       0.00119048 </v>
   <v>       0.00119048 </v>
   <v>       0.00119048 </v>
   <v>       0.00119048 </v>
   <v>       0.00119048 </v>
   <v>       0.00059524 </v>
   <v>       0.00059524 </v>
   <v>       0.00119048 </v>
   <v>       0.00119048 </v>
   <v>       0.00119048 </v>
   <v>       0.00119048 </v>
   <v>       0.00119048 </v>
   <v>       0.00119048 </v>
   <v>       0.00119048 </v>
   <v>       0.00119048 </v>
   <v>       0.00119048 </v>
   <v>       0.00119048 </v>
   <v>       0.00119048 </v>
   <v>       0.00059524 </v>
   <v>       0.00059524 </v>
   <v>       0.00119048 </v>
   <v>       0.00119048 </v>
   <v>       0.00119048 </v>
   <v>       0.00119048 </v>
   <v>       0.00119048 </v>
   <v>       0.00119048 </v>
   <v>       0.00119048 </v>
   <v>       0.00119048 </v>
   <v>       0.00119048 </v>
   <v>       0.00119048 </v>
   <v>       0.00119048 </v>
   <v>       0.00059524 </v>
   <v>       0.00059524 </v>
   <v>       0.00119048 </v>
   <v>       0.00119048 </v>
   <v>       0.00119048 </v>
   <v>       0.00119048 </v>
   <v>       0.00119048 </v>
   <v>       0.00119048 </v>
   <v>       0.00119048 </v>
   <v>       0.00119048 </v>
   <v>       0.00119048 </v>
   <v>       0.00119048 </v>
   <v>       0.00119048 </v>
   <v>       0.00059524 </v>
   <v>       0.00059524 </v>
   <v>       0.00119048 </v>
   <v>       0.00119048 </v>
   <v>       0.00119048 </v>
   <v>       0.00119048 </v>
   <v>       0.00119048 </v>
   <v>       0.00119048 </v>
   <v>       0.00119048 </v>
   <v>       0.00119048 </v>
   <v>       0.00119048 </v>
   <v>       0.00119048 </v>
   <v>       0.00119048 </v>
   <v>       0.00059524 </v>
   <v>       0.00059524 </v>
   <v>       0.00119048 </v>
   <v>       0.00119048 </v>
   <v>       0.00119048 </v>
   <v>       0.00119048 </v>
   <v>       0.00119048 </v>
   <v>       0.00119048 </v>
   <v>       0.00119048 </v>
   <v>       0.00119048 </v>
   <v>       0.00119048 </v>
   <v>       0.00119048 </v>
   <v>       0.00119048 </v>
   <v>       0.00059524 </v>
   <v>       0.00059524 </v>
   <v>       0.00119048 </v>
   <v>       0.00119048 </v>
   <v>       0.00119048 </v>
   <v>       0.00119048 </v>
   <v>       0.00119048 </v>
   <v>       0.00119048 </v>
   <v>       0.00119048 </v>
   <v>       0.00119048 </v>
   <v>       0.00119048 </v>
   <v>       0.00119048 </v>
   <v>       0.00119048 </v>
   <v>       0.00059524 </v>
   <v>       0.00059524 </v>
   <v>       0.00119048 </v>
   <v>       0.00119048 </v>
   <v>       0.00119048 </v>
   <v>       0.00119048 </v>
   <v>       0.00119048 </v>
   <v>       0.00119048 </v>
   <v>       0.00119048 </v>
   <v>       0.00119048 </v>
   <v>       0.00119048 </v>
   <v>       0.00119048 </v>
   <v>       0.00119048 </v>
   <v>       0.00059524 </v>
   <v>       0.00059524 </v>
   <v>       0.00119048 </v>
   <v>       0.00119048 </v>
   <v>       0.00119048 </v>
   <v>       0.00119048 </v>
   <v>       0.00119048 </v>
   <v>       0.00119048 </v>
   <v>       0.00119048 </v>
   <v>       0.00119048 </v>
   <v>       0.00119048 </v>
   <v>       0.00119048 </v>
   <v>       0.00119048 </v>
   <v>       0.00059524 </v>
   <v>       0.00059524 </v>
   <v>       0.00119048 </v>
   <v>       0.00119048 </v>
   <v>       0.00119048 </v>
   <v>       0.00119048 </v>
   <v>       0.00119048 </v>
   <v>       0.00119048 </v>
   <v>       0.00119048 </v>
   <v>       0.00119048 </v>
   <v>       0.00119048 </v>
   <v>       0.00119048 </v>
   <v>       0.00119048 </v>
   <v>       0.00059524 </v>
   <v>       0.00059524 </v>
   <v>       0.00119048 </v>
   <v>       0.00119048 </v>
   <v>       0.00119048 </v>
   <v>       0.00119048 </v>
   <v>       0.00119048 </v>
   <v>       0.00119048 </v>
   <v>       0.00119048 </v>
   <v>       0.00119048 </v>
   <v>       0.00119048 </v>
   <v>       0.00119048 </v>
   <v>       0.00119048 </v>
   <v>       0.00059524 </v>
   <v>       0.00059524 </v>
   <v>       0.00119048 </v>
   <v>       0.00119048 </v>
   <v>       0.00119048 </v>
   <v>       0.00119048 </v>
   <v>       0.00119048 </v>
   <v>       0.00119048 </v>
   <v>       0.00119048 </v>
   <v>       0.00119048 </v>
   <v>       0.00119048 </v>
   <v>       0.00119048 </v>
   <v>       0.00119048 </v>
   <v>       0.00059524 </v>
   <v>       0.00059524 </v>
   <v>       0.00119048 </v>
   <v>       0.00119048 </v>
   <v>       0.00119048 </v>
   <v>       0.00119048 </v>
   <v>       0.00119048 </v>
   <v>       0.00119048 </v>
   <v>       0.00119048 </v>
   <v>       0.00119048 </v>
   <v>       0.00119048 </v>
   <v>       0.00119048 </v>
   <v>       0.00119048 </v>
   <v>       0.00059524 </v>
   <v>       0.00059524 </v>
   <v>       0.00119048 </v>
   <v>       0.00119048 </v>
   <v>       0.00119048 </v>
   <v>       0.00119048 </v>
   <v>       0.00119048 </v>
   <v>       0.00119048 </v>
   <v>       0.00119048 </v>
   <v>       0.00119048 </v>
   <v>       0.00119048 </v>
   <v>       0.00119048 </v>
   <v>       0.00119048 </v>
   <v>       0.00059524 </v>
   <v>       0.00059524 </v>
   <v>       0.00119048 </v>
   <v>       0.00119048 </v>
   <v>       0.00119048 </v>
   <v>       0.00119048 </v>
   <v>       0.00119048 </v>
   <v>       0.00119048 </v>
   <v>       0.00119048 </v>
   <v>       0.00119048 </v>
   <v>       0.00119048 </v>
   <v>       0.00119048 </v>
   <v>       0.00119048 </v>
   <v>       0.00059524 </v>
   <v>       0.00059524 </v>
   <v>       0.00119048 </v>
   <v>       0.00119048 </v>
   <v>       0.00119048 </v>
   <v>       0.00119048 </v>
   <v>       0.00119048 </v>
   <v>       0.00119048 </v>
   <v>       0.00119048 </v>
   <v>       0.00119048 </v>
   <v>       0.00119048 </v>
   <v>       0.00119048 </v>
   <v>       0.00119048 </v>
   <v>       0.00059524 </v>
   <v>       0.00059524 </v>
   <v>       0.00119048 </v>
   <v>       0.00119048 </v>
   <v>       0.00119048 </v>
   <v>       0.00119048 </v>
   <v>       0.00119048 </v>
   <v>       0.00119048 </v>
   <v>       0.00119048 </v>
   <v>       0.00119048 </v>
   <v>       0.00119048 </v>
   <v>       0.00119048 </v>
   <v>       0.00119048 </v>
   <v>       0.00059524 </v>
   <v>       0.00059524 </v>
   <v>       0.00119048 </v>
   <v>       0.00119048 </v>
   <v>       0.00119048 </v>
   <v>       0.00119048 </v>
   <v>       0.00119048 </v>
   <v>       0.00119048 </v>
   <v>       0.00119048 </v>
   <v>       0.00119048 </v>
   <v>       0.00119048 </v>
   <v>       0.00119048 </v>
   <v>       0.00119048 </v>
   <v>       0.00059524 </v>
   <v>       0.00059524 </v>
   <v>       0.00119048 </v>
   <v>       0.00119048 </v>
   <v>       0.00119048 </v>
   <v>       0.00119048 </v>
   <v>       0.00119048 </v>
   <v>       0.00119048 </v>
   <v>       0.00119048 </v>
   <v>       0.00119048 </v>
   <v>       0.00119048 </v>
   <v>       0.00119048 </v>
   <v>       0.00119048 </v>
   <v>       0.00059524 </v>
   <v>       0.00059524 </v>
   <v>       0.00119048 </v>
   <v>       0.00119048 </v>
   <v>       0.00119048 </v>
   <v>       0.00119048 </v>
   <v>       0.00119048 </v>
   <v>       0.00119048 </v>
   <v>       0.00119048 </v>
   <v>       0.00119048 </v>
   <v>       0.00119048 </v>
   <v>       0.00119048 </v>
   <v>       0.00119048 </v>
   <v>       0.00059524 </v>
   <v>       0.00059524 </v>
   <v>       0.00119048 </v>
   <v>       0.00119048 </v>
   <v>       0.00119048 </v>
   <v>       0.00119048 </v>
   <v>       0.00119048 </v>
   <v>       0.00119048 </v>
   <v>       0.00119048 </v>
   <v>       0.00119048 </v>
   <v>       0.00119048 </v>
   <v>       0.00119048 </v>
   <v>       0.00119048 </v>
   <v>       0.00059524 </v>
   <v>       0.00059524 </v>
   <v>       0.00119048 </v>
   <v>       0.00119048 </v>
   <v>       0.00119048 </v>
   <v>       0.00119048 </v>
   <v>       0.00119048 </v>
   <v>       0.00119048 </v>
   <v>       0.00119048 </v>
   <v>       0.00119048 </v>
   <v>       0.00119048 </v>
   <v>       0.00119048 </v>
   <v>       0.00119048 </v>
   <v>       0.00059524 </v>
   <v>       0.00059524 </v>
   <v>       0.00119048 </v>
   <v>       0.00119048 </v>
   <v>       0.00119048 </v>
   <v>       0.00119048 </v>
   <v>       0.00119048 </v>
   <v>       0.00119048 </v>
   <v>       0.00119048 </v>
   <v>       0.00119048 </v>
   <v>       0.00119048 </v>
   <v>       0.00119048 </v>
   <v>       0.00119048 </v>
   <v>       0.00059524 </v>
   <v>       0.00059524 </v>
   <v>       0.00119048 </v>
   <v>       0.00119048 </v>
   <v>       0.00119048 </v>
   <v>       0.00119048 </v>
   <v>       0.00119048 </v>
   <v>       0.00119048 </v>
   <v>       0.00119048 </v>
   <v>       0.00119048 </v>
   <v>       0.00119048 </v>
   <v>       0.00119048 </v>
   <v>       0.00119048 </v>
   <v>       0.00059524 </v>
   <v>       0.00059524 </v>
   <v>       0.00119048 </v>
   <v>       0.00119048 </v>
   <v>       0.00119048 </v>
   <v>       0.00119048 </v>
   <v>       0.00119048 </v>
   <v>       0.00119048 </v>
   <v>       0.00119048 </v>
   <v>       0.00119048 </v>
   <v>       0.00119048 </v>
   <v>       0.00119048 </v>
   <v>       0.00119048 </v>
   <v>       0.00059524 </v>
   <v>       0.00059524 </v>
   <v>       0.00119048 </v>
   <v>       0.00119048 </v>
   <v>       0.00119048 </v>
   <v>       0.00119048 </v>
   <v>       0.00119048 </v>
   <v>       0.00119048 </v>
   <v>       0.00119048 </v>
   <v>       0.00119048 </v>
   <v>       0.00119048 </v>
   <v>       0.00119048 </v>
   <v>       0.00119048 </v>
   <v>       0.00059524 </v>
   <v>       0.00059524 </v>
[...]
       <r>    5.8615    1.0000 </r>
       <r>    5.9181    1.0000 </r>
       <r>    6.1160    1.0000 </r>
       <r>    6.2388    1.0000 </r>
       <r>    6.3549    1.0000 </r>
       <r>    6.4543    1.0000 </r>
       <r>    6.5000    1.0000 </r>
       <r>    6.6008    1.0000 </r>
       <r>    6.6116    1.0000 </r>
       <r>    7.4127    1.0000 </r>
       <r>    7.5198    1.0000 </r>
       <r>    8.0069    1.0160 </r>
       <r>    8.2481    1.0202 </r>
       <r>   11.4156    0.0000 </r>
       <r>   11.5496    0.0000 </r>
       <r>   12.1289    0.0000 </r>
       <r>   12.4720    0.0000 </r>
       <r>   13.4171    0.0000 </r>
       <r>   13.9982    0.0000 </r>
      </set>
      <set comment="kpoint 935">
       <r>    1.7381    1.0000 </r>
       <r>    1.8453    1.0000 </r>
       <r>    2.3175    1.0000 </r>
       <r>    2.3269    1.0000 </r>
       <r>    2.4288    1.0000 </r>
       <r>    2.4730    1.0000 </r>
       <r>    2.7069    1.0000 </r>
       <r>    2.7215    1.0000 </r>
       <r>    2.7978    1.0000 </r>
       <r>    2.8172    1.0000 </r>
       <r>    3.9929    1.0000 </r>
       <r>    4.0208    1.0000 </r>
       <r>    4.0561    1.0000 </r>
       <r>    4.0566    1.0000 </r>
       <r>    5.0365    1.0000 </r>
       <r>    5.1738    1.0000 </r>
       <r>    5.2477    1.0000 </r>
       <r>    5.2478    1.0000 </r>
       <r>    5.5416    1.0000 </r>
       <r>    5.7365    1.0000 </r>
       <r>    5.7995    1.0000 </r>
       <r>    5.8319    1.0000 </r>
       <r>    5.9275    1.0000 </r>
       <r>    6.3290    1.0000 </r>
       <r>    6.3640    1.0000 </r>
       <r>    6.4356    1.0000 </r>
       <r>    6.5930    1.0000 </r>
       <r>    6.6014    1.0000 </r>
       <r>    6.6939    1.0000 </r>
       <r>    6.6962    1.0000 </r>
       <r>    7.7190    1.0004 </r>
       <r>    7.7826    1.0011 </r>
       <r>    8.7365    0.0509 </r>
       <r>    8.9404   -0.0334 </r>
       <r>   10.4992    0.0000 </r>
       <r>   10.6294    0.0000 </r>
       <r>   11.4373    0.0000 </r>
       <r>   11.9320    0.0000 </r>
       <r>   14.0557    0.0000 </r>
       <r>   14.5430    0.0000 </r>
      </set>
      <set comment="kpoint 936">
       <r>    1.7279    1.0000 </r>
       <r>    1.8339    1.0000 </r>
       <r>    2.3063    1.0000 </r>
       <r>    2.3115    1.0000 </r>
       <r>    2.4146    1.0000 </r>
       <r>    2.4566    1.0000 </r>
       <r>    2.7287    1.0000 </r>
       <r>    2.7398    1.0000 </r>
       <r>    2.7495    1.0000 </r>
       <r>    2.7742    1.0000 </r>
       <r>    3.9932    1.0000 </r>
       <r>    4.0124    1.0000 </r>
       <r>    4.0437    1.0000 </r>
       <r>    4.0534    1.0000 </r>
       <r>    5.0711    1.0000 </r>
       <r>    5.2215    1.0000 </r>
       <r>    5.2987    1.0000 </r>
       <r>    5.3026    1.0000 </r>
       <r>    5.5187    1.0000 </r>
       <r>    5.7196    1.0000 </r>
       <r>    5.8219    1.0000 </r>
       <r>    5.8361    1.0000 </r>
       <r>    5.9134    1.0000 </r>
       <r>    6.3577    1.0000 </r>
       <r>    6.3946    1.0000 </r>
       <r>    6.4813    1.0000 </r>
       <r>    6.6521    1.0000 </r>
       <r>    6.6582    1.0000 </r>
       <r>    6.7255    1.0000 </r>
       <r>    6.7276    1.0000 </r>
       <r>    7.8741    1.0039 </r>
       <r>    7.9046    1.0057 </r>
       <r>    9.4653   -0.0001 </r>
       <r>    9.7077    0.0000 </r>
       <r>    9.7321    0.0000 </r>
       <r>    9.7607    0.0000 </r>
       <r>   11.1584    0.0000 </r>
       <r>   11.7136    0.0000 </r>
       <r>   14.7750    0.0000 </r>
       <r>   14.9230    0.0000 </r>
      </set>
     </set>
    </set>
   </array>
  </eigenvalues>
  <separator name="orbital magnetization" >
   <v name="MAGDIPOLOUT">      0.00000000      0.00000000      0.00000000</v>
  </separator>
  <dos>
   <i name="efermi">      8.53537886 </i>
   <total>
    <array>
     <dimension dim="1">gridpoints</dimension>
     <dimension dim="2">spin</dimension>
     <field>energy</field>
     <field>total</field>
     <field>integrated</field>
     <set>
      <set comment="spin 1">
       <r>    -3.5700     0.0000     0.0000 </r>
       <r>    -3.4859     0.0000     0.0000 </r>
       <r>    -3.4018     0.0000     0.0000 </r>
       <r>    -3.3176     0.0000     0.0000 </r>
       <r>    -3.2335     0.0000     0.0000 </r>
       <r>    -3.1494     0.0000     0.0000 </r>
       <r>    -3.0653     0.0000     0.0000 </r>
       <r>    -2.9812     0.0000     0.0000 </r>
       <r>    -2.8971     0.0000     0.0000 </r>
       <r>    -2.8130     0.0000     0.0000 </r>
       <r>    -2.7289     0.0000     0.0000 </r>
       <r>    -2.6448     0.0000     0.0000 </r>
       <r>    -2.5607     0.0000     0.0000 </r>
       <r>    -2.4766     0.0000     0.0000 </r>
       <r>    -2.3925     0.0000     0.0000 </r>
       <r>    -2.3084     0.0000     0.0000 </r>
       <r>    -2.2243     0.0000     0.0000 </r>
       <r>    -2.1402     0.0000     0.0000 </r>
       <r>    -2.0561     0.0000     0.0000 </r>
       <r>    -1.9720     0.0000     0.0000 </r>
       <r>    -1.8879     0.0000     0.0000 </r>
       <r>    -1.8037     0.0000     0.0000 </r>
       <r>    -1.7196     0.0000     0.0000 </r>
       <r>    -1.6355     0.0000     0.0000 </r>
       <r>    -1.5514     0.0000     0.0000 </r>
       <r>    -1.4673     0.0000     0.0000 </r>
       <r>    -1.3832     0.0000     0.0000 </r>
       <r>    -1.2991    -0.0001     0.0000 </r>
       <r>    -1.2150    -0.0004     0.0000 </r>
       <r>    -1.1309    -0.0011    -0.0001 </r>
       <r>    -1.0468    -0.0026    -0.0004 </r>
       <r>    -0.9627    -0.0051    -0.0008 </r>
       <r>    -0.8786    -0.0077    -0.0014 </r>
       <r>    -0.7945    -0.0073    -0.0021 </r>
       <r>    -0.7104     0.0017    -0.0019 </r>
       <r>    -0.6263     0.0253     0.0002 </r>
       <r>    -0.5422     0.0666     0.0058 </r>
       <r>    -0.4581     0.1231     0.0162 </r>
       <r>    -0.3740     0.1872     0.0319 </r>
       <r>    -0.2898     0.2510     0.0530 </r>
       <r>    -0.2057     0.3095     0.0791 </r>
       <r>    -0.1216     0.3622     0.1095 </r>
       <r>    -0.0375     0.4100     0.1440 </r>
       <r>     0.0466     0.4528     0.1821 </r>
       <r>     0.1307     0.4887     0.2232 </r>
       <r>     0.2148     0.5170     0.2667 </r>
       <r>     0.2989     0.5397     0.3121 </r>
       <r>     0.3830     0.5615     0.3593 </r>
       <r>     0.4671     0.5880     0.4087 </r>
       <r>     0.5512     0.6236     0.4612 </r>
       <r>     0.6353     0.6702     0.5176 </r>
       <r>     0.7194     0.7245     0.5785 </r>
       <r>     0.8035     0.7795     0.6441 </r>
       <r>     0.8876     0.8286     0.7137 </r>
       <r>     0.9717     0.8712     0.7870 </r>
       <r>     1.0558     0.9137     0.8639 </r>
       <r>     1.1399     0.9649     0.9450 </r>
       <r>     1.2241     1.0296     1.0316 </r>
       <r>     1.3082     1.1090     1.1249 </r>
       <r>     1.3923     1.2075     1.2265 </r>
       <r>     1.4764     1.3421     1.3393 </r>
       <r>     1.5605     1.5466     1.4694 </r>
       <r>     1.6446     1.8616     1.6260 </r>
       <r>     1.7287     2.3123     1.8205 </r>
       <r>     1.8128     2.8920     2.0637 </r>
       <r>     1.8969     3.5736     2.3642 </r>
       <r>     1.9810     4.3444     2.7296 </r>
       <r>     2.0651     5.2270     3.1693 </r>
       <r>     2.1492     6.2578     3.6956 </r>
       <r>     2.2333     7.4414     4.3214 </r>
       <r>     2.3174     8.7229     5.0551 </r>
       <r>     2.4015     9.9944     5.8957 </r>
       <r>     2.4856    11.1185     6.8308 </r>
       <r>     2.5697    11.9584     7.8366 </r>
       <r>     2.6538    12.4192     8.8811 </r>
       <r>     2.7380    12.4844     9.9311 </r>
       <r>     2.8221    12.2138    10.9583 </r>
       <r>     2.9062    11.6992    11.9423 </r>
       <r>     2.9903    11.0359    12.8705 </r>
       <r>     3.0744    10.3489    13.7409 </r>
       <r>     3.1585     9.8300    14.5676 </r>
       <r>     3.2426     9.6976    15.3833 </r>
       <r>     3.3267    10.0714    16.2303 </r>
       <r>     3.4108    10.8683    17.1444 </r>
       <r>     3.4949    11.8277    18.1392 </r>
       <r>     3.5790    12.6573    19.2037 </r>
       <r>     3.6631    13.1882    20.3129 </r>
       <r>     3.7472    13.4463    21.4438 </r>
       <r>     3.8313    13.6283    22.5901 </r>
       <r>     3.9154    14.0171    23.7690 </r>
       <r>     3.9995    14.8644    25.0192 </r>
       <r>     4.0836    16.2447    26.3854 </r>
       <r>     4.1677    17.9194    27.8925 </r>
       <r>     4.2519    19.3269    29.5180 </r>
       <r>     4.3360    19.8097    31.1841 </r>
       <r>     4.4201    19.0123    32.7832 </r>
       <r>     4.5042    17.1568    34.2262 </r>
       <r>     4.5883    14.9301    35.4819 </r>
       <r>     4.6724    13.0653    36.5807 </r>
       <r>     4.7565    11.9732    37.5877 </r>
       <r>     4.8406    11.6743    38.5696 </r>
       <r>     4.9247    11.9536    39.5750 </r>
       <r>     5.0088    12.5288    40.6287 </r>
       <r>     5.0929    13.1379    41.7337 </r>
       <r>     5.1770    13.5827    42.8761 </r>
       <r>     5.2611    13.7586    44.0333 </r>
       <r>     5.3452    13.6548    45.1817 </r>
       <r>     5.4293    13.3282    46.3027 </r>
       <r>     5.5134    12.8760    47.3856 </r>
       <r>     5.5975    12.4139    48.4297 </r>
       <r>     5.6816    12.0503    49.4432 </r>
       <r>     5.7658    11.8625    50.4409 </r>
       <r>     5.8499    11.8972    51.4415 </r>
       <r>     5.9340    12.1810    52.4660 </r>
       <r>     6.0181    12.7071    53.5348 </r>
       <r>     6.1022    13.3959    54.6614 </r>
       <r>     6.1863    14.0794    55.8456 </r>
       <r>     6.2704    14.5469    57.0690 </r>
       <r>     6.3545    14.6109    58.2979 </r>
       <r>     6.4386    14.1258    59.4860 </r>
       <r>     6.5227    12.9807    60.5777 </r>
       <r>     6.6068    11.1471    61.5152 </r>
       <r>     6.6909     8.7843    62.2540 </r>
       <r>     6.7750     6.2777    62.7820 </r>
       <r>     6.8591     4.1064    63.1274 </r>
       <r>     6.9432     2.6060    63.3466 </r>
       <r>     7.0273     1.8183    63.4995 </r>
       <r>     7.1114     1.5395    63.6290 </r>
       <r>     7.1955     1.5016    63.7553 </r>
       <r>     7.2797     1.5257    63.8836 </r>
       <r>     7.3638     1.5539    64.0143 </r>
       <r>     7.4479     1.5920    64.1482 </r>
       <r>     7.5320     1.6455    64.2866 </r>
       <r>     7.6161     1.6977    64.4294 </r>
       <r>     7.7002     1.7244    64.5744 </r>
       <r>     7.7843     1.7163    64.7188 </r>
       <r>     7.8684     1.6883    64.8608 </r>
       <r>     7.9525     1.6681    65.0011 </r>
       <r>     8.0366     1.6743    65.1419 </r>
       <r>     8.1207     1.7026    65.2851 </r>
       <r>     8.2048     1.7323    65.4308 </r>
       <r>     8.2889     1.7444    65.5775 </r>
       <r>     8.3730     1.7349    65.7234 </r>
       <r>     8.4571     1.7137    65.8675 </r>
       <r>     8.5412     1.6924    66.0099 </r>
       <r>     8.6253     1.6774    66.1509 </r>
       <r>     8.7094     1.6719    66.2916 </r>
       <r>     8.7936     1.6804    66.4329 </r>
       <r>     8.8777     1.7038    66.5762 </r>
       <r>     8.9618     1.7314    66.7218 </r>
       <r>     9.0459     1.7430    66.8684 </r>
       <r>     9.1300     1.7235    67.0134 </r>
       <r>     9.2141     1.6783    67.1545 </r>
       <r>     9.2982     1.6322    67.2918 </r>
       <r>     9.3823     1.6113    67.4273 </r>
       <r>     9.4664     1.6252    67.5640 </r>
       <r>     9.5505     1.6638    67.7039 </r>
       <r>     9.6346     1.7066    67.8475 </r>
       <r>     9.7187     1.7340    67.9933 </r>
       <r>     9.8028     1.7352    68.1393 </r>
       <r>     9.8869     1.7117    68.2832 </r>
       <r>     9.9710     1.6728    68.4239 </r>
       <r>    10.0551     1.6305    68.5610 </r>
       <r>    10.1392     1.5964    68.6953 </r>
       <r>    10.2233     1.5794    68.8281 </r>
       <r>    10.3075     1.5814    68.9611 </r>
       <r>    10.3916     1.5943    69.0952 </r>
       <r>    10.4757     1.6054    69.2303 </r>
       <r>    10.5598     1.6053    69.3653 </r>
       <r>    10.6439     1.5889    69.4989 </r>
       <r>    10.7280     1.5547    69.6297 </r>
       <r>    10.8121     1.5066    69.7564 </r>
       <r>    10.8962     1.4593    69.8791 </r>
       <r>    10.9803     1.4396    70.0002 </r>
       <r>    11.0644     1.4776    70.1245 </r>
       <r>    11.1485     1.5898    70.2582 </r>
       <r>    11.2326     1.7617    70.4063 </r>
       <r>    11.3167     1.9459    70.5700 </r>
       <r>    11.4008     2.0829    70.7452 </r>
       <r>    11.4849     2.1361    70.9249 </r>
       <r>    11.5690     2.1145    71.1027 </r>
       <r>    11.6531     2.0641    71.2763 </r>
       <r>    11.7372     2.0327    71.4473 </r>
       <r>    11.8214     2.0378    71.6187 </r>
       <r>    11.9055     2.0626    71.7921 </r>
       <r>    11.9896     2.0747    71.9666 </r>
       <r>    12.0737     2.0497    72.1390 </r>
       <r>    12.1578     1.9822    72.3057 </r>
       <r>    12.2419     1.8852    72.4643 </r>
       <r>    12.3260     1.7842    72.6143 </r>
       <r>    12.4101     1.7100    72.7582 </r>
       <r>    12.4942     1.6875    72.9001 </r>
       <r>    12.5783     1.7204    73.0448 </r>
       <r>    12.6624     1.7827    73.1947 </r>
       <r>    12.7465     1.8323    73.3488 </r>
       <r>    12.8306     1.8397    73.5036 </r>
       <r>    12.9147     1.8097    73.6558 </r>
       <r>    12.9988     1.7760    73.8051 </r>
       <r>    13.0829     1.7715    73.9541 </r>
       <r>    13.1670     1.8010    74.1056 </r>
       <r>    13.2511     1.8414    74.2605 </r>
       <r>    13.3353     1.8666    74.4175 </r>
       <r>    13.4194     1.8742    74.5751 </r>
       <r>    13.5035     1.8873    74.7338 </r>
       <r>    13.5876     1.9341    74.8965 </r>
       <r>    13.6717     2.0252    75.0668 </r>
       <r>    13.7558     2.1442    75.2472 </r>
       <r>    13.8399     2.2545    75.4368 </r>
       <r>    13.9240     2.3197    75.6319 </r>
       <r>    14.0081     2.3244    75.8274 </r>
       <r>    14.0922     2.2789    76.0191 </r>
       <r>    14.1763     2.2051    76.2045 </r>
       <r>    14.2604     2.1174    76.3826 </r>
       <r>    14.3445     2.0185    76.5524 </r>
       <r>    14.4286     1.9082    76.7128 </r>
       <r>    14.5127     1.7931    76.8637 </r>
       <r>    14.5968     1.6880    77.0056 </r>
       <r>    14.6809     1.6094    77.1410 </r>
       <r>    14.7650     1.5674    77.2728 </r>
       <r>    14.8492     1.5579    77.4038 </r>
       <r>    14.9333     1.5592    77.5350 </r>
       <r>    15.0174     1.5405    77.6645 </r>
       <r>    15.1015     1.4836    77.7893 </r>
       <r>    15.1856     1.4023    77.9073 </r>
       <r>    15.2697     1.3352    78.0196 </r>
       <r>    15.3538     1.3123    78.1299 </r>
       <r>    15.4379     1.3245    78.2413 </r>
       <r>    15.5220     1.3289    78.3531 </r>
       <r>    15.6061     1.2871    78.4614 </r>
       <r>    15.6902     1.1984    78.5621 </r>
       <r>    15.7743     1.0967    78.6544 </r>
       <r>    15.8584     1.0189    78.7401 </r>
       <r>    15.9425     0.9765    78.8222 </r>
       <r>    16.0266     0.9538    78.9024 </r>
       <r>    16.1107     0.9276    78.9804 </r>
       <r>    16.1948     0.8893    79.0552 </r>
       <r>    16.2789     0.8488    79.1266 </r>
       <r>    16.3631     0.8200    79.1956 </r>
       <r>    16.4472     0.8054    79.2633 </r>
       <r>    16.5313     0.7927    79.3300 </r>
       <r>    16.6154     0.7658    79.3944 </r>
       <r>    16.6995     0.7175    79.4548 </r>
       <r>    16.7836     0.6532    79.5097 </r>
       <r>    16.8677     0.5847    79.5589 </r>
       <r>    16.9518     0.5238    79.6029 </r>
       <r>    17.0359     0.4786    79.6432 </r>
       <r>    17.1200     0.4500    79.6810 </r>
       <r>    17.2041     0.4281    79.7170 </r>
       <r>    17.2882     0.3972    79.7504 </r>
       <r>    17.3723     0.3489    79.7798 </r>
       <r>    17.4564     0.2930    79.8044 </r>
       <r>    17.5405     0.2505    79.8255 </r>
       <r>    17.6246     0.2354    79.8453 </r>
       <r>    17.7087     0.2433    79.8658 </r>
       <r>    17.7928     0.2562    79.8873 </r>
       <r>    17.8770     0.2571    79.9089 </r>
       <r>    17.9611     0.2396    79.9291 </r>
       <r>    18.0452     0.2078    79.9466 </r>
       <r>    18.1293     0.1697    79.9608 </r>
       <r>    18.2134     0.1319    79.9719 </r>
       <r>    18.2975     0.0991    79.9803 </r>
       <r>    18.3816     0.0737    79.9865 </r>
       <r>    18.4657     0.0556    79.9911 </r>
       <r>    18.5498     0.0426    79.9947 </r>
       <r>    18.6339     0.0315    79.9974 </r>
       <r>    18.7180     0.0209    79.9991 </r>
       <r>    18.8021     0.0112    80.0001 </r>
       <r>    18.8862     0.0040    80.0004 </r>
       <r>    18.9703    -0.0001    80.0004 </r>
       <r>    19.0544    -0.0016    80.0003 </r>
       <r>    19.1385    -0.0015    80.0001 </r>
       <r>    19.2226    -0.0009    80.0001 </r>
       <r>    19.3067    -0.0005    80.0000 </r>
       <r>    19.3909    -0.0002    80.0000 </r>
       <r>    19.4750    -0.0001    80.0000 </r>
       <r>    19.5591     0.0000    80.0000 </r>
       <r>    19.6432     0.0000    80.0000 </r>
       <r>    19.7273     0.0000    80.0000 </r>
       <r>    19.8114     0.0000    80.0000 </r>
       <r>    19.8955     0.0000    80.0000 </r>
       <r>    19.9796     0.0000    80.0000 </r>
       <r>    20.0637     0.0000    80.0000 </r>
       <r>    20.1478     0.0000    80.0000 </r>
       <r>    20.2319     0.0000    80.0000 </r>
       <r>    20.3160     0.0000    80.0000 </r>
       <r>    20.4001     0.0000    80.0000 </r>
       <r>    20.4842     0.0000    80.0000 </r>
       <r>    20.5683     0.0000    80.0000 </r>
       <r>    20.6524     0.0000    80.0000 </r>
       <r>    20.7365     0.0000    80.0000 </r>
       <r>    20.8206     0.0000    80.0000 </r>
       <r>    20.9048     0.0000    80.0000 </r>
       <r>    20.9889     0.0000    80.0000 </r>
       <r>    21.0730     0.0000    80.0000 </r>
       <r>    21.1571     0.0000    80.0000 </r>
       <r>    21.2412     0.0000    80.0000 </r>
       <r>    21.3253     0.0000    80.0000 </r>
       <r>    21.4094     0.0000    80.0000 </r>
       <r>    21.4935     0.0000    80.0000 </r>
       <r>    21.5776     0.0000    80.0000 </r>
       <r>    21.6617     0.0000    80.0000 </r>
      </set>
     </set>
    </array>
   </total>
  </dos>
 </calculation>
 <structure name="finalpos" >
  <crystal>
   <varray name="basis" >
    <v>       0.00000000      -2.06926561      -2.06926561 </v>
    <v>      -4.15742508       2.06998022      -2.06998022 </v>
    <v>       4.17606429       4.15858693      -4.15858693 </v>
   </varray>
   <i name="volume">    107.32611945 </i>
   <varray name="rec_basis" >
    <v>       0.00000000      -0.24163162      -0.24163162 </v>
    <v>      -0.16035651       0.08051522      -0.08051522 </v>
    <v>       0.07981913       0.08015585      -0.08015585 </v>
   </varray>
  </crystal>
  <varray name="positions" >
   <v>       0.50000000       0.16666667       0.66666667 </v>
   <v>       0.00000000       0.99997664       0.99968899 </v>
   <v>       0.50000000       0.83361596       0.33636095 </v>
   <v>       0.00000000       0.66666667       0.66666667 </v>
   <v>       0.50000000       0.49971737       0.99697238 </v>
   <v>       0.00000000       0.33335669       0.33364434 </v>
  </varray>
 </structure>
</modeling>
