<?xml version="1.0" encoding="ISO-8859-1"?>
<modeling>
 <generator>
  <i name="program" type="string">vasp </i>
  <i name="version" type="string">5.3.5  </i>
  <i name="subversion" type="string">31Mar14 (build Jun 20 2014 13:15:13) complex                          parallel </i>
  <i name="platform" type="string">LinuxIFC </i>
  <i name="date" type="string">2025 12 12 </i>
  <i name="time" type="string">11:36:37 </i>
 </generator>
 <incar>
  <i type="string" name="PREC">accurate</i>
  <i type="int" name="IALGO">    38</i>
  <i type="logical" name="ADDGRID"> T  </i>
  <i type="int" name="ISPIN">     2</i>
  <i type="int" name="NELM">   100</i>
  <i type="int" name="NELMIN">     4</i>
  <i name="EDIFF">      0.00000100</i>
  <i name="ENCUT">    500.00000000</i>
  <i type="logical" name="LREAL"> F  </i>
  <i type="int" name="ISMEAR">     0</i>
  <i name="SIGMA">      0.05000000</i>
  <i type="logical" name="LWAVE"> F  </i>
  <i type="logical" name="LCHARG"> F  </i>
  <i type="int" name="NELM">   100</i>
  <i type="logical" name="LDAU"> T  </i>
  <v name="LDAUU">      0.00000000      4.00000000      0.00000000</v>
  <v name="LDAUJ">      0.00000000      0.00000000      0.00000000</v>
 </incar>
 <kpoints>
  <generation param="Auto">
   <i name="subdivisionlength">     20.00000000 </i>
   <v type="int" name="divisions">       5        5        1 </v>
   <v name="usershift">      0.00000000       0.00000000       0.00000000 </v>
   <v name="genvec1">      0.20000000       0.00000000       0.00000000 </v>
   <v name="genvec2">      0.00000000       0.20000000       0.00000000 </v>
   <v name="genvec3">      0.00000000       0.00000000       1.00000000 </v>
   <v name="shift">      0.00000000       0.00000000       0.00000000 </v>
  </generation>
  <varray name="kpointlist" >
   <v>       0.00000000       0.00000000       0.00000000 </v>
   <v>       0.20000000       0.00000000       0.00000000 </v>
   <v>       0.40000000       0.00000000       0.00000000 </v>
   <v>       0.00000000       0.20000000       0.00000000 </v>
   <v>       0.20000000       0.20000000       0.00000000 </v>
   <v>       0.40000000       0.20000000       0.00000000 </v>
   <v>       0.00000000       0.40000000       0.00000000 </v>
   <v>       0.20000000       0.40000000       0.00000000 </v>
   <v>       0.40000000       0.40000000       0.00000000 </v>
  </varray>
  <varray name="weights" >
   <v>       0.04000000 </v>
   <v>       0.08000000 </v>
   <v>       0.08000000 </v>
   <v>       0.08000000 </v>
   <v>       0.16000000 </v>
   <v>       0.16000000 </v>
   <v>       0.08000000 </v>
   <v>       0.16000000 </v>
   <v>       0.16000000 </v>
  </varray>
 </kpoints>
 <parameters>
  <separator name="general" >
   <i type="string" name="SYSTEM">unknown system</i>
   <i type="logical" name="LCOMPAT"> F  </i>
  </separator>
  <separator name="electronic" >
   <i type="string" name="PREC">accura</i>
   <i name="ENMAX">    500.00000000</i>
   <i name="ENAUG">    586.98000000</i>
   <i name="EDIFF">      0.00000100</i>
   <i type="int" name="IALGO">    38</i>
   <i type="int" name="IWAVPR">    10</i>
   <i type="int" name="NBANDS">    88</i>
   <i name="NELECT">    132.00000000</i>
   <i type="int" name="TURBO">     0</i>
   <i type="int" name="IRESTART">     0</i>
   <i type="int" name="NREBOOT">     0</i>
   <i type="int" name="NMIN">     0</i>
   <i name="EREF">      0.00000000</i>
   <separator name="electronic smearing" >
    <i type="int" name="ISMEAR">     0</i>
    <i name="SIGMA">      0.05000000</i>
    <i name="KSPACING">      0.50000000</i>
    <i type="logical" name="KGAMMA"> T  </i>
   </separator>
   <separator name="electronic projectors" >
    <i type="logical" name="LREAL"> F  </i>
    <v name="ROPT">      0.00000000      0.00000000      0.00000000</v>
    <i type="int" name="LMAXPAW">  -100</i>
    <i type="int" name="LMAXMIX">     2</i>
    <i type="logical" name="NLSPLINE"> F  </i>
   </separator>
   <separator name="electronic startup" >
    <i type="int" name="ISTART">     0</i>
    <i type="int" name="ICHARG">     2</i>
    <i type="int" name="INIWAV">     1</i>
   </separator>
   <separator name="electronic spin" >
    <i type="int" name="ISPIN">     2</i>
    <i type="logical" name="LNONCOLLINEAR"> F  </i>
    <v name="MAGMOM">      1.00000000      1.00000000      1.00000000      1.00000000      1.00000000      1.00000000      1.00000000      1.00000000      1.00000000      1.00000000      1.00000000      1.00000000      1.00000000      1.00000000      1.00000000      1.00000000</v>
    <i name="NUPDOWN">     -1.00000000</i>
    <i type="logical" name="LSORBIT"> F  </i>
    <v name="SAXIS">      0.00000000      0.00000000      1.00000000</v>
    <i type="logical" name="LSPIRAL"> F  </i>
    <v name="QSPIRAL">      0.00000000      0.00000000      0.00000000</v>
    <i type="logical" name="LZEROZ"> F  </i>
   </separator>
   <separator name="electronic exchange-correlation" >
    <i type="logical" name="LASPH"> F  </i>
    <i type="logical" name="LMETAGGA"> F  </i>
   </separator>
   <separator name="electronic convergence" >
    <i type="int" name="NELM">   100</i>
    <i type="int" name="NELMDL">    -5</i>
    <i type="int" name="NELMIN">     4</i>
    <i name="ENINI">    500.00000000</i>
    <separator name="electronic convergence detail" >
     <i type="logical" name="LDIAG"> T  </i>
     <i type="logical" name="LSUBROT"> F  </i>
     <i name="WEIMIN">      0.00000000</i>
     <i name="EBREAK">      0.00000000</i>
     <i name="DEPER">      0.30000000</i>
     <i type="int" name="NRMM">     4</i>
     <i name="TIME">      0.40000000</i>
    </separator>
   </separator>
   <separator name="electronic mixer" >
    <i name="AMIX">      0.40000000</i>
    <i name="BMIX">      1.00000000</i>
    <i name="AMIN">      0.10000000</i>
    <i name="AMIX_MAG">      1.60000000</i>
    <i name="BMIX_MAG">      1.00000000</i>
    <separator name="electronic mixer details" >
     <i type="int" name="IMIX">     4</i>
     <i type="int" name="MAXMIX">   -45</i>
     <i name="WC">    100.00000000</i>
     <i type="int" name="INIMIX">     1</i>
     <i type="int" name="MIXPRE">     1</i>
     <i type="int" name="MREMOVE">     5</i>
    </separator>
   </separator>
   <separator name="electronic dipolcorrection" >
    <i type="logical" name="LDIPOL"> F  </i>
    <i type="logical" name="LMONO"> F  </i>
    <i type="int" name="IDIPOL">     0</i>
    <i name="EPSILON">      1.00000000</i>
    <v name="DIPOL">   -100.00000000   -100.00000000   -100.00000000</v>
    <i name="EFIELD">      0.00000000</i>
   </separator>
  </separator>
  <separator name="grids" >
   <i type="int" name="NGX">    30</i>
   <i type="int" name="NGY">    30</i>
   <i type="int" name="NGZ">   120</i>
   <i type="int" name="NGXF">    60</i>
   <i type="int" name="NGYF">    60</i>
   <i type="int" name="NGZF">   240</i>
   <i type="logical" name="ADDGRID"> T  </i>
  </separator>
  <separator name="ionic" >
   <i type="int" name="NSW">     0</i>
   <i type="int" name="IBRION">    -1</i>
   <i type="int" name="ISIF">     2</i>
   <i name="PSTRESS">      0.00000000</i>
   <i name="EDIFFG">      0.00001000</i>
   <i type="int" name="NFREE">     0</i>
   <i name="POTIM">      0.50000000</i>
   <i name="SMASS">     -3.00000000</i>
   <i name="SCALEE">      1.00000000</i>
  </separator>
  <separator name="ionic md" >
   <i name="TEBEG">      0.00010000</i>
   <i name="TEEND">      0.00010000</i>
   <i type="int" name="NBLOCK">     1</i>
   <i type="int" name="KBLOCK">     1</i>
   <i type="int" name="NPACO">   256</i>
   <i name="APACO">     16.00000000</i>
  </separator>
  <separator name="symmetry" >
   <i type="int" name="ISYM">     2</i>
   <i name="SYMPREC">      0.00001000</i>
  </separator>
  <separator name="dos" >
   <i type="logical" name="LORBIT"> F  </i>
   <v name="RWIGS">     -1.00000000     -1.00000000     -1.00000000</v>
   <i type="int" name="NEDOS">   301</i>
   <i name="EMIN">     10.00000000</i>
   <i name="EMAX">    -10.00000000</i>
   <i name="EFERMI">      0.00000000</i>
  </separator>
  <separator name="writing" >
   <i type="int" name="NWRITE">     2</i>
   <i type="logical" name="LWAVE"> F  </i>
   <i type="logical" name="LCHARG"> F  </i>
   <i type="logical" name="LPARD"> F  </i>
   <i type="logical" name="LVTOT"> F  </i>
   <i type="logical" name="LVHAR"> F  </i>
   <i type="logical" name="LELF"> F  </i>
   <i type="logical" name="LOPTICS"> F  </i>
   <v name="STM">      0.00000000      0.00000000      0.00000000      0.00000000      0.00000000      0.00000000      0.00000000</v>
  </separator>
  <separator name="performance" >
   <i type="int" name="NPAR">     4</i>
   <i type="int" name="NSIM">     4</i>
   <i type="int" name="NBLK">    -1</i>
   <i type="logical" name="LPLANE"> T  </i>
   <i type="logical" name="LSCALAPACK"> T  </i>
   <i type="logical" name="LSCAAWARE"> F  </i>
   <i type="logical" name="LSCALU"> F  </i>
   <i type="logical" name="LASYNC"> F  </i>
   <i type="logical" name="LORBITALREAL"> F  </i>
  </separator>
  <separator name="miscellaneous" >
   <i type="int" name="IDIOT">     3</i>
   <i type="logical" name="LMUSIC"> F  </i>
   <v name="POMASS">     87.62000000     63.54600000     16.00000000</v>
   <v name="DARWINR">      0.00000000      0.00000000      0.00000000</v>
   <v name="DARWINV">      1.00000000      1.00000000      1.00000000</v>
   <i type="logical" name="LCORR"> T  </i>
  </separator>
  <i type="logical" name="GGA_COMPAT"> T  </i>
  <i type="logical" name="LBERRY"> F  </i>
  <i type="int" name="ICORELEVEL">     0</i>
  <i type="logical" name="LDAU"> T  </i>
  <v type="int" name="LDAUTYPE">     2</v>
  <v type="int" name="LDAUL">     2</v>
  <v name="LDAUU">      0.00000000</v>
  <v name="LDAUJ">      0.00000000</v>
  <i type="int" name="LDAUPRINT">     0</i>
  <i type="int" name="I_CONSTRAINED_M">     0</i>
  <separator name="electronic exchange-correlation" >
   <i type="string" name="GGA">--</i>
   <i type="int" name="VOSKOWN">     0</i>
   <i type="logical" name="LHFCALC"> F  </i>
   <i type="string" name="PRECFOCK"></i>
   <i type="logical" name="LSYMGRAD"> F  </i>
   <i type="logical" name="LHFONE"> F  </i>
   <i type="logical" name="LRHFCALC"> F  </i>
   <i type="logical" name="LTHOMAS"> F  </i>
   <i type="logical" name="LMODELHF"> F  </i>
   <i name="ENCUT4O">     -1.00000000</i>
   <i type="int" name="EXXOEP">     0</i>
   <i type="int" name="FOURORBIT">     0</i>
   <i name="AEXX">      0.00000000</i>
   <i name="HFALPHA">      0.00000000</i>
   <i name="MCALPHA">      0.00000000</i>
   <i name="ALDAX">      1.00000000</i>
   <i name="AGGAX">      1.00000000</i>
   <i name="ALDAC">      1.00000000</i>
   <i name="AGGAC">      1.00000000</i>
   <i type="int" name="NKREDX">     1</i>
   <i type="int" name="NKREDY">     1</i>
   <i type="int" name="NKREDZ">     1</i>
   <i type="logical" name="SHIFTRED"> F  </i>
   <i type="logical" name="ODDONLY"> F  </i>
   <i type="logical" name="EVENONLY"> F  </i>
   <i type="int" name="LMAXFOCK">     0</i>
   <i type="int" name="NMAXFOCKAE">     0</i>
   <i type="logical" name="LFOCKAEDFT"> F  </i>
   <i name="HFSCREEN">      0.00000000</i>
   <i name="HFSCREENC">      0.00000000</i>
   <i type="int" name="NBANDSGWLOW">     0</i>
  </separator>
  <separator name="vdW DFT" >
   <i type="logical" name="LUSE_VDW"> F  </i>
   <i name="Zab_VDW">     -0.84910000</i>
   <i name="PARAM1">      0.12340000</i>
   <i name="PARAM2">      1.00000000</i>
   <i name="PARAM3">      0.00000000</i>
  </separator>
  <separator name="model GW" >
   <i type="int" name="MODEL_GW">     0</i>
   <i name="MODEL_EPS0">      9.60000000</i>
   <i name="MODEL_ALPHA">      1.00000000</i>
  </separator>
  <separator name="linear response parameters" >
   <i type="logical" name="LEPSILON"> F  </i>
   <i type="logical" name="LRPA"> F  </i>
   <i type="logical" name="LNABLA"> F  </i>
   <i type="logical" name="LVEL"> F  </i>
   <i type="int" name="KINTER">     0</i>
   <i name="CSHIFT">      0.10000000</i>
   <i name="OMEGAMAX">     -1.00000000</i>
   <i name="DEG_THRESHOLD">      0.00200000</i>
  </separator>
  <separator name="orbital magnetization" >
   <i type="logical" name="NUCIND"> F  </i>
   <v name="MAGPOS">      0.00000000      0.00000000      0.00000000</v>
   <i type="logical" name="LNICSALL"> T  </i>
   <i type="logical" name="ORBITALMAG"> F  </i>
   <i type="logical" name="LMAGBLOCH"> F  </i>
   <i type="logical" name="LCHIMAG"> F  </i>
   <i type="logical" name="LGAUGE"> T  </i>
   <i type="int" name="MAGATOM">     0</i>
   <v name="MAGDIPOL">      0.00000000      0.00000000      0.00000000</v>
   <v name="AVECCONST">      0.00000000      0.00000000      0.00000000</v>
  </separator>
  <separator name="response functions" >
   <i type="logical" name="LADDER"> F  </i>
   <i type="logical" name="LFXC"> F  </i>
   <i type="logical" name="LHARTREE"> T  </i>
   <i type="int" name="IBSE">     0</i>
   <i type="logical" name="LTCTE"> F  </i>
   <i type="logical" name="LTETE"> F  </i>
   <i type="logical" name="LTRIPLET"> F  </i>
   <i type="logical" name="LFXCEPS"> F  </i>
   <i type="logical" name="LFXHEG"> F  </i>
   <i type="logical" name="L2ORDER"> F  </i>
   <i type="logical" name="LUSEW"> F  </i>
   <i name="ENCUTGW">     -2.00000000</i>
   <i name="ENCUTGWSOFT">     -2.00000000</i>
   <i name="ENCUTLF">     -1.00000000</i>
   <i type="int" name="LMAXMP2">    -1</i>
   <i name="SCISSOR">      0.00000000</i>
   <i type="int" name="NOMEGA">     0</i>
   <i type="int" name="NOMEGAR">     0</i>
   <i type="int" name="NBANDSGW">    -1</i>
   <i type="int" name="NBANDSO">    -1</i>
   <i type="int" name="NBANDSV">    -1</i>
   <i type="int" name="NELM">   100</i>
   <i type="int" name="DIM">     3</i>
   <i type="int" name="ANTIRES">     0</i>
   <i name="OMEGAMAX">    -30.00000000</i>
   <i name="OMEGAMIN">    -30.00000000</i>
   <i name="OMEGATL">   -200.00000000</i>
   <i type="int" name="OMEGAGRID">     0</i>
   <i name="CSHIFT">     -0.10000000</i>
   <i type="logical" name="SELFENERGY"> F  </i>
   <i type="logical" name="LSPECTRAL"> F  </i>
   <i type="logical" name="ODDONLYGW"> F  </i>
   <i type="logical" name="EVENONLYGW"> F  </i>
   <i type="int" name="NKREDLFX">     1</i>
   <i type="int" name="NKREDLFY">     1</i>
   <i type="int" name="NKREDLFZ">     1</i>
   <i type="int" name="MAXMEM">  1800</i>
   <i type="int" name="TELESCOPE">     0</i>
   <i type="int" name="TAUPAR">     1</i>
  </separator>
  <separator name="External order field" >
   <i name="OFIELD_KAPPA">      0.00000000</i>
   <v name="OFIELD_K">      0.00000000      0.00000000      0.00000000</v>
   <i name="OFIELD_Q6_NEAR">      0.00000000</i>
   <i name="OFIELD_Q6_FAR">      0.00000000</i>
   <i name="OFIELD_A">      0.00000000</i>
  </separator>
 </parameters>
 <atominfo>
  <atoms>      16 </atoms>
  <types>       3 </types>
  <array name="atoms" >
   <dimension dim="1">ion</dimension>
   <field type="string">element</field>
   <field type="int">atomtype</field>
   <set>
    <rc><c>Sr</c><c>   1</c></rc>
    <rc><c>Sr</c><c>   1</c></rc>
    <rc><c>Sr</c><c>   1</c></rc>
    <rc><c>Sr</c><c>   1</c></rc>
    <rc><c>Cu</c><c>   2</c></rc>
    <rc><c>Cu</c><c>   2</c></rc>
    <rc><c>Cu</c><c>   2</c></rc>
    <rc><c>Cu</c><c>   2</c></rc>
    <rc><c>O </c><c>   3</c></rc>
    <rc><c>O </c><c>   3</c></rc>
    <rc><c>O </c><c>   3</c></rc>
    <rc><c>O </c><c>   3</c></rc>
    <rc><c>O </c><c>   3</c></rc>
    <rc><c>O </c><c>   3</c></rc>
    <rc><c>O </c><c>   3</c></rc>
    <rc><c>O </c><c>   3</c></rc>
   </set>
  </array>
  <array name="atomtypes" >
   <dimension dim="1">type</dimension>
   <field type="int">atomspertype</field>
   <field type="string">element</field>
   <field>mass</field>
   <field>valence</field>
   <field type="string">pseudopotential</field>
   <set>
    <rc><c>   4</c><c>Sr</c><c>     87.62000000</c><c>     10.00000000</c><c>  PAW_PBE Sr_sv 07Sep2000               </c></rc>
    <rc><c>   4</c><c>Cu</c><c>     63.54600000</c><c>     11.00000000</c><c>  PAW_PBE Cu 22Jun2005                  </c></rc>
    <rc><c>   8</c><c>O </c><c>     16.00000000</c><c>      6.00000000</c><c>  PAW_PBE O_s 07Sep2000                 </c></rc>
   </set>
  </array>
 </atominfo>
 <structure name="initialpos" >
  <crystal>
   <varray name="basis" >
    <v>       4.00000000       0.00000000       0.00000000 </v>
    <v>       0.00000000       4.00000000       0.00000000 </v>
    <v>       0.00000000       0.00000000      16.00000000 </v>
   </varray>
   <i name="volume">    256.00000000 </i>
   <varray name="rec_basis" >
    <v>       0.25000000       0.00000000       0.00000000 </v>
    <v>       0.00000000       0.25000000       0.00000000 </v>
    <v>       0.00000000       0.00000000       0.06250000 </v>
   </varray>
  </crystal>
  <varray name="positions" >
   <v>       0.00000000       0.00000000       0.87500000 </v>
   <v>       0.00000000       0.00000000       0.12500000 </v>
   <v>       0.00000000       0.00000000       0.37500000 </v>
   <v>       0.00000000       0.00000000       0.62500000 </v>
   <v>       0.50000000       0.50000000       0.00000000 </v>
   <v>       0.50000000       0.50000000       0.25000000 </v>
   <v>       0.50000000       0.50000000       0.50000000 </v>
   <v>       0.50000000       0.50000000       0.75000000 </v>
   <v>       0.50000000       0.50000000       0.37500000 </v>
   <v>       0.50000000       0.50000000       0.62500000 </v>
   <v>       0.00000000       0.50000000       0.00000000 </v>
   <v>       0.00000000       0.50000000       0.50000000 </v>
   <v>       0.50000000       0.00000000       0.00000000 </v>
   <v>       0.50000000       0.00000000       0.25000000 </v>
   <v>       0.50000000       0.00000000       0.50000000 </v>
   <v>       0.50000000       0.00000000       0.75000000 </v>
  </varray>
 </structure>
 <calculation>
  <scstep>
   <time name="dav">    1.00    1.00</time>
   <time name="total">    1.10    1.11</time>
   <energy>
    <i name="alphaZ">    598.65364144 </i>
    <i name="ewald">  -8350.18083926 </i>
    <i name="hartreedc">  -4093.96967349 </i>
    <i name="XCdc">    543.15169741 </i>
    <i name="pawpsdc">  10188.96972968 </i>
    <i name="pawaedc"> -10517.73277125 </i>
    <i name="eentropy">     -0.00221941 </i>
    <i name="bandstr">    885.06668779 </i>
    <i name="atom">  12395.00728236 </i>
    <i name="e_fr_energy">   1648.96353527 </i>
    <i name="e_wo_entrp">   1648.96575467 </i>
    <i name="e_0_energy">   1648.96464497 </i>
   </energy>
  </scstep>
  <scstep>
   <time name="dav">    1.05    1.05</time>
   <time name="total">    1.05    1.06</time>
   <energy>
    <i name="e_fr_energy">    150.45125363 </i>
    <i name="e_wo_entrp">    150.45824545 </i>
    <i name="e_0_energy">    150.45474954 </i>
   </energy>
  </scstep>
  <scstep>
   <time name="dav">    1.08    1.08</time>
   <time name="total">    1.08    1.10</time>
   <energy>
    <i name="e_fr_energy">    -78.59773796 </i>
    <i name="e_wo_entrp">    -78.58739869 </i>
    <i name="e_0_energy">    -78.59256833 </i>
   </energy>
  </scstep>
  <scstep>
   <time name="dav">    1.47    1.47</time>
   <time name="total">    1.47    1.49</time>
   <energy>
    <i name="e_fr_energy">    -96.21741232 </i>
    <i name="e_wo_entrp">    -96.20874719 </i>
    <i name="e_0_energy">    -96.21307976 </i>
   </energy>
  </scstep>
  <scstep>
   <time name="dav">    1.68    1.68</time>
   <time name="total">    1.83    1.85</time>
   <energy>
    <i name="e_fr_energy">    -97.21091502 </i>
    <i name="e_wo_entrp">    -97.20255435 </i>
    <i name="e_0_energy">    -97.20673469 </i>
   </energy>
  </scstep>
  <scstep>
   <time name="dav">    1.37    1.37</time>
   <time name="total">    1.62    1.63</time>
   <energy>
    <i name="e_fr_energy">    -86.68576445 </i>
    <i name="e_wo_entrp">    -86.67159722 </i>
    <i name="e_0_energy">    -86.67868083 </i>
   </energy>
  </scstep>
  <scstep>
   <time name="dav">    1.51    1.51</time>
   <time name="total">    1.76    1.77</time>
   <energy>
    <i name="e_fr_energy">    -79.41000062 </i>
    <i name="e_wo_entrp">    -79.39099949 </i>
    <i name="e_0_energy">    -79.40050006 </i>
   </energy>
  </scstep>
  <scstep>
   <time name="dav">    1.51    1.51</time>
   <time name="total">    1.75    1.77</time>
   <energy>
    <i name="e_fr_energy">    -82.75192073 </i>
    <i name="e_wo_entrp">    -82.74348592 </i>
    <i name="e_0_energy">    -82.74770333 </i>
   </energy>
  </scstep>
  <scstep>
   <time name="dav">    1.45    1.45</time>
   <time name="total">    1.70    1.71</time>
   <energy>
    <i name="e_fr_energy">    -82.11582269 </i>
    <i name="e_wo_entrp">    -82.11055958 </i>
    <i name="e_0_energy">    -82.11319113 </i>
   </energy>
  </scstep>
  <scstep>
   <time name="dav">    1.42    1.42</time>
   <time name="total">    1.67    1.69</time>
   <energy>
    <i name="e_fr_energy">    -79.32631213 </i>
    <i name="e_wo_entrp">    -79.31896021 </i>
    <i name="e_0_energy">    -79.32263617 </i>
   </energy>
  </scstep>
  <scstep>
   <time name="dav">    1.43    1.43</time>
   <time name="total">    1.67    1.69</time>
   <energy>
    <i name="e_fr_energy">    -77.71151670 </i>
    <i name="e_wo_entrp">    -77.70396486 </i>
    <i name="e_0_energy">    -77.70774078 </i>
   </energy>
  </scstep>
  <scstep>
   <time name="dav">    1.38    1.39</time>
   <time name="total">    1.63    1.64</time>
   <energy>
    <i name="e_fr_energy">    -77.90737604 </i>
    <i name="e_wo_entrp">    -77.90212135 </i>
    <i name="e_0_energy">    -77.90474869 </i>
   </energy>
  </scstep>
  <scstep>
   <time name="dav">    1.41    1.41</time>
   <time name="total">    1.66    1.67</time>
   <energy>
    <i name="e_fr_energy">    -78.06188323 </i>
    <i name="e_wo_entrp">    -78.05995072 </i>
    <i name="e_0_energy">    -78.06091698 </i>
   </energy>
  </scstep>
  <scstep>
   <time name="dav">    1.33    1.33</time>
   <time name="total">    1.57    1.59</time>
   <energy>
    <i name="e_fr_energy">    -78.33973892 </i>
    <i name="e_wo_entrp">    -78.33534557 </i>
    <i name="e_0_energy">    -78.33754225 </i>
   </energy>
  </scstep>
  <scstep>
   <time name="dav">    1.40    1.41</time>
   <time name="total">    1.65    1.66</time>
   <energy>
    <i name="e_fr_energy">    -78.42631619 </i>
    <i name="e_wo_entrp">    -78.41947190 </i>
    <i name="e_0_energy">    -78.42289405 </i>
   </energy>
  </scstep>
  <scstep>
   <time name="dav">    1.39    1.39</time>
   <time name="total">    1.63    1.65</time>
   <energy>
    <i name="e_fr_energy">    -78.42123851 </i>
    <i name="e_wo_entrp">    -78.41392704 </i>
    <i name="e_0_energy">    -78.41758277 </i>
   </energy>
  </scstep>
  <scstep>
   <time name="dav">    1.36    1.36</time>
   <time name="total">    1.60    1.62</time>
   <energy>
    <i name="e_fr_energy">    -78.46782128 </i>
    <i name="e_wo_entrp">    -78.46158209 </i>
    <i name="e_0_energy">    -78.46470168 </i>
   </energy>
  </scstep>
  <scstep>
   <time name="dav">    1.37    1.37</time>
   <time name="total">    1.62    1.63</time>
   <energy>
    <i name="e_fr_energy">    -78.48857884 </i>
    <i name="e_wo_entrp">    -78.48379865 </i>
    <i name="e_0_energy">    -78.48618874 </i>
   </energy>
  </scstep>
  <scstep>
   <time name="dav">    1.40    1.40</time>
   <time name="total">    1.64    1.66</time>
   <energy>
    <i name="e_fr_energy">    -78.50110255 </i>
    <i name="e_wo_entrp">    -78.49370934 </i>
    <i name="e_0_energy">    -78.49740594 </i>
   </energy>
  </scstep>
  <scstep>
   <time name="dav">    1.35    1.35</time>
   <time name="total">    1.59    1.61</time>
   <energy>
    <i name="e_fr_energy">    -78.50727940 </i>
    <i name="e_wo_entrp">    -78.50065318 </i>
    <i name="e_0_energy">    -78.50396629 </i>
   </energy>
  </scstep>
  <scstep>
   <time name="dav">    1.50    1.50</time>
   <time name="total">    1.75    1.76</time>
   <energy>
    <i name="e_fr_energy">    -78.50795724 </i>
    <i name="e_wo_entrp">    -78.50221775 </i>
    <i name="e_0_energy">    -78.50508750 </i>
   </energy>
  </scstep>
  <scstep>
   <time name="dav">    1.39    1.41</time>
   <time name="total">    1.64    1.67</time>
   <energy>
    <i name="e_fr_energy">    -78.50822496 </i>
    <i name="e_wo_entrp">    -78.50208282 </i>
    <i name="e_0_energy">    -78.50515389 </i>
   </energy>
  </scstep>
  <scstep>
   <time name="dav">    1.34    1.34</time>
   <time name="total">    1.59    1.61</time>
   <energy>
    <i name="e_fr_energy">    -78.50844130 </i>
    <i name="e_wo_entrp">    -78.50205363 </i>
    <i name="e_0_energy">    -78.50524746 </i>
   </energy>
  </scstep>
  <scstep>
   <time name="dav">    1.49    1.49</time>
   <time name="total">    1.73    1.75</time>
   <energy>
    <i name="e_fr_energy">    -78.50847420 </i>
    <i name="e_wo_entrp">    -78.50212927 </i>
    <i name="e_0_energy">    -78.50530173 </i>
   </energy>
  </scstep>
  <scstep>
   <time name="dav">    1.41    1.43</time>
   <time name="total">    1.66    1.70</time>
   <energy>
    <i name="e_fr_energy">    -78.50849705 </i>
    <i name="e_wo_entrp">    -78.50227214 </i>
    <i name="e_0_energy">    -78.50538460 </i>
   </energy>
  </scstep>
  <scstep>
   <time name="dav">    1.39    1.39</time>
   <time name="total">    1.64    1.65</time>
   <energy>
    <i name="e_fr_energy">    -78.50850643 </i>
    <i name="e_wo_entrp">    -78.50231052 </i>
    <i name="e_0_energy">    -78.50540847 </i>
   </energy>
  </scstep>
  <scstep>
   <time name="dav">    1.29    1.29</time>
   <time name="total">    1.53    1.55</time>
   <energy>
    <i name="e_fr_energy">    -78.50850889 </i>
    <i name="e_wo_entrp">    -78.50231751 </i>
    <i name="e_0_energy">    -78.50541320 </i>
   </energy>
  </scstep>
  <scstep>
   <time name="dav">    0.95    0.95</time>
   <time name="total">    1.05    1.06</time>
   <energy>
    <i name="alphaZ">    598.65364144 </i>
    <i name="ewald">  -8350.18083926 </i>
    <i name="hartreedc">  -4100.40717630 </i>
    <i name="XCdc">    543.27173513 </i>
    <i name="pawpsdc">  15509.26757783 </i>
    <i name="pawaedc"> -15874.28834180 </i>
    <i name="eentropy">     -0.00622147 </i>
    <i name="bandstr">   -799.82616595 </i>
    <i name="atom">  12395.00728236 </i>
    <i name="e_fr_energy">    -78.50850803 </i>
    <i name="e_wo_entrp">    -78.50228655 </i>
    <i name="e_0_energy">    -78.50539729 </i>
   </energy>
  </scstep>
  <structure>
   <crystal>
    <varray name="basis" >
     <v>       4.00000000       0.00000000       0.00000000 </v>
     <v>       0.00000000       4.00000000       0.00000000 </v>
     <v>       0.00000000       0.00000000      16.00000000 </v>
    </varray>
    <i name="volume">    256.00000000 </i>
    <varray name="rec_basis" >
     <v>       0.25000000       0.00000000       0.00000000 </v>
     <v>       0.00000000       0.25000000       0.00000000 </v>
     <v>       0.00000000       0.00000000       0.06250000 </v>
    </varray>
   </crystal>
   <varray name="positions" >
    <v>       0.00000000       0.00000000       0.87500000 </v>
    <v>       0.00000000       0.00000000       0.12500000 </v>
    <v>       0.00000000       0.00000000       0.37500000 </v>
    <v>       0.00000000       0.00000000       0.62500000 </v>
    <v>       0.50000000       0.50000000       0.00000000 </v>
    <v>       0.50000000       0.50000000       0.25000000 </v>
    <v>       0.50000000       0.50000000       0.50000000 </v>
    <v>       0.50000000       0.50000000       0.75000000 </v>
    <v>       0.50000000       0.50000000       0.37500000 </v>
    <v>       0.50000000       0.50000000       0.62500000 </v>
    <v>       0.00000000       0.50000000       0.00000000 </v>
    <v>       0.00000000       0.50000000       0.50000000 </v>
    <v>       0.50000000       0.00000000       0.00000000 </v>
    <v>       0.50000000       0.00000000       0.25000000 </v>
    <v>       0.50000000       0.00000000       0.50000000 </v>
    <v>       0.50000000       0.00000000       0.75000000 </v>
   </varray>
  </structure>
  <varray name="forces" >
   <v>       0.00000000       0.00000000       1.42479114 </v>
   <v>       0.00000000       0.00000000      -1.42479114 </v>
   <v>       0.00000000       0.00000000       1.43353362 </v>
   <v>       0.00000000       0.00000000      -1.43353362 </v>
   <v>       0.00000000       0.00000000       0.00000000 </v>
   <v>       0.00000000       0.00000000       0.59412704 </v>
   <v>       0.00000000       0.00000000       0.00000000 </v>
   <v>       0.00000000       0.00000000      -0.59412704 </v>
   <v>       0.00000000       0.00000000      -0.10374296 </v>
   <v>       0.00000000       0.00000000       0.10374296 </v>
   <v>       0.00000000       0.00000000       0.00000000 </v>
   <v>       0.00000000       0.00000000       0.00000000 </v>
   <v>       0.00000000       0.00000000       0.00000000 </v>
   <v>       0.00000000       0.00000000      -1.49581180 </v>
   <v>       0.00000000       0.00000000       0.00000000 </v>
   <v>       0.00000000       0.00000000       1.49581180 </v>
  </varray>
  <varray name="stress" >
   <v>     -95.16630699       0.00000000       0.00000000 </v>
   <v>       0.00000000     -80.63551895       0.00000000 </v>
   <v>       0.00000000       0.00000000    -104.36448657 </v>
  </varray>
  <energy>
   <i name="e_fr_energy">    -78.50850803 </i>
   <i name="e_wo_entrp">    -78.50539729 </i>
   <i name="e_0_energy">     -0.00622147 </i>
  </energy>
  <time name="totalsc">   46.61   47.06</time>
  <eigenvalues>
   <array>
    <dimension dim="1">band</dimension>
    <dimension dim="2">kpoint</dimension>
    <dimension dim="3">spin</dimension>
    <field>eigene</field>
    <field>occ</field>
    <set>
     <set comment="spin 1">
      <set comment="kpoint 1">
       <r>  -32.2495    1.0000 </r>
       <r>  -32.2432    1.0000 </r>
       <r>  -30.5357    1.0000 </r>
       <r>  -30.5285    1.0000 </r>
       <r>  -15.3194    1.0000 </r>
       <r>  -14.9188    1.0000 </r>
       <r>  -14.7608    1.0000 </r>
       <r>  -14.6597    1.0000 </r>
       <r>  -14.2962    1.0000 </r>
       <r>  -14.2810    1.0000 </r>
       <r>  -14.1484    1.0000 </r>
       <r>  -14.1330    1.0000 </r>
       <r>  -13.8845    1.0000 </r>
       <r>  -13.8066    1.0000 </r>
       <r>  -13.5024    1.0000 </r>
       <r>  -13.3918    1.0000 </r>
       <r>  -13.3567    1.0000 </r>
       <r>  -13.2896    1.0000 </r>
       <r>  -12.4951    1.0000 </r>
       <r>  -12.4879    1.0000 </r>
       <r>  -12.4699    1.0000 </r>
       <r>  -12.3902    1.0000 </r>
       <r>  -12.3719    1.0000 </r>
       <r>  -12.2151    1.0000 </r>
       <r>   -2.1421    1.0000 </r>
       <r>   -1.3750    1.0000 </r>
       <r>   -1.3517    1.0000 </r>
       <r>   -1.3172    1.0000 </r>
       <r>   -1.1752    1.0000 </r>
       <r>   -1.0949    1.0000 </r>
       <r>   -1.0773    1.0000 </r>
       <r>   -1.0219    1.0000 </r>
       <r>   -0.8872    1.0000 </r>
       <r>   -0.8132    1.0000 </r>
       <r>   -0.8068    1.0000 </r>
       <r>   -0.7475    1.0000 </r>
       <r>   -0.7233    1.0000 </r>
       <r>   -0.7140    1.0000 </r>
       <r>   -0.6522    1.0000 </r>
       <r>   -0.6427    1.0000 </r>
       <r>   -0.3778    1.0000 </r>
       <r>   -0.3698    1.0000 </r>
       <r>   -0.3291    1.0000 </r>
       <r>   -0.3285    1.0000 </r>
       <r>   -0.3253    1.0000 </r>
       <r>   -0.2954    1.0000 </r>
       <r>   -0.2953    1.0000 </r>
       <r>   -0.2773    1.0000 </r>
       <r>   -0.2009    1.0000 </r>
       <r>   -0.0639    1.0000 </r>
       <r>    0.0414    1.0000 </r>
       <r>    0.0892    1.0000 </r>
       <r>    0.0907    1.0000 </r>
       <r>    0.1162    1.0000 </r>
       <r>    0.4325    1.0000 </r>
       <r>    0.7025    1.0000 </r>
       <r>    0.7712    1.0000 </r>
       <r>    1.5356    1.0000 </r>
       <r>    1.5376    1.0000 </r>
       <r>    1.6186    1.0000 </r>
       <r>    1.7889    1.0000 </r>
       <r>    1.8177    1.0000 </r>
       <r>    1.9249    1.0000 </r>
       <r>    1.9653    1.0000 </r>
       <r>    2.0815    1.0000 </r>
       <r>    2.1909    1.0000 </r>
       <r>    2.2965    1.0000 </r>
       <r>    2.3538    1.0000 </r>
       <r>    2.6584    0.7636 </r>
       <r>    3.2441    0.0000 </r>
       <r>    4.9428    0.0000 </r>
       <r>    5.8144    0.0000 </r>
       <r>    6.4037    0.0000 </r>
       <r>    7.2888    0.0000 </r>
       <r>    7.2899    0.0000 </r>
       <r>    7.6365    0.0000 </r>
       <r>    8.3467    0.0000 </r>
       <r>    8.4153    0.0000 </r>
       <r>    8.6094    0.0000 </r>
       <r>    8.8690    0.0000 </r>
       <r>    8.9273    0.0000 </r>
       <r>    8.9463    0.0000 </r>
       <r>    9.0428    0.0000 </r>
       <r>    9.1742    0.0000 </r>
       <r>    9.3068    0.0000 </r>
       <r>    9.5399    0.0000 </r>
       <r>    9.9690    0.0000 </r>
       <r>   10.1932    0.0000 </r>
      </set>
      <set comment="kpoint 2">
       <r>  -32.2452    1.0000 </r>
       <r>  -32.2390    1.0000 </r>
       <r>  -30.5307    1.0000 </r>
       <r>  -30.5238    1.0000 </r>
       <r>  -15.1855    1.0000 </r>
       <r>  -14.9291    1.0000 </r>
       <r>  -14.8746    1.0000 </r>
       <r>  -14.5986    1.0000 </r>
       <r>  -14.2894    1.0000 </r>
       <r>  -14.2744    1.0000 </r>
       <r>  -14.2135    1.0000 </r>
       <r>  -14.1806    1.0000 </r>
       <r>  -13.9212    1.0000 </r>
       <r>  -13.7025    1.0000 </r>
       <r>  -13.5779    1.0000 </r>
       <r>  -13.5064    1.0000 </r>
       <r>  -13.4816    1.0000 </r>
       <r>  -13.3151    1.0000 </r>
       <r>  -12.5229    1.0000 </r>
       <r>  -12.4754    1.0000 </r>
       <r>  -12.4576    1.0000 </r>
       <r>  -12.2781    1.0000 </r>
       <r>  -12.2091    1.0000 </r>
       <r>  -12.1896    1.0000 </r>
       <r>   -2.1508    1.0000 </r>
       <r>   -2.0187    1.0000 </r>
       <r>   -1.7081    1.0000 </r>
       <r>   -1.6187    1.0000 </r>
       <r>   -1.3972    1.0000 </r>
       <r>   -1.3747    1.0000 </r>
       <r>   -1.3273    1.0000 </r>
       <r>   -1.2036    1.0000 </r>
       <r>   -1.1749    1.0000 </r>
       <r>   -0.8862    1.0000 </r>
       <r>   -0.8023    1.0000 </r>
       <r>   -0.6456    1.0000 </r>
       <r>   -0.6252    1.0000 </r>
       <r>   -0.6082    1.0000 </r>
       <r>   -0.5685    1.0000 </r>
       <r>   -0.5452    1.0000 </r>
       <r>   -0.4542    1.0000 </r>
       <r>   -0.3863    1.0000 </r>
       <r>   -0.3839    1.0000 </r>
       <r>   -0.3437    1.0000 </r>
       <r>   -0.3261    1.0000 </r>
       <r>   -0.3138    1.0000 </r>
       <r>   -0.3068    1.0000 </r>
       <r>   -0.2465    1.0000 </r>
       <r>   -0.0747    1.0000 </r>
       <r>    0.0318    1.0000 </r>
       <r>    0.0415    1.0000 </r>
       <r>    0.2610    1.0000 </r>
       <r>    0.3261    1.0000 </r>
       <r>    0.3838    1.0000 </r>
       <r>    0.7424    1.0000 </r>
       <r>    0.7974    1.0000 </r>
       <r>    0.9126    1.0000 </r>
       <r>    1.3819    1.0000 </r>
       <r>    1.4576    1.0000 </r>
       <r>    1.5467    1.0000 </r>
       <r>    1.5500    1.0000 </r>
       <r>    1.7198    1.0000 </r>
       <r>    1.7808    1.0000 </r>
       <r>    1.9366    1.0000 </r>
       <r>    2.1738    1.0000 </r>
       <r>    2.2538    1.0000 </r>
       <r>    2.3116    1.0000 </r>
       <r>    2.5081    1.0000 </r>
       <r>    3.2222    0.0000 </r>
       <r>    3.4438    0.0000 </r>
       <r>    5.4991    0.0000 </r>
       <r>    6.1214    0.0000 </r>
       <r>    6.4811    0.0000 </r>
       <r>    7.0555    0.0000 </r>
       <r>    7.6478    0.0000 </r>
       <r>    8.0671    0.0000 </r>
       <r>    8.3261    0.0000 </r>
       <r>    8.3394    0.0000 </r>
       <r>    8.4131    0.0000 </r>
       <r>    8.5070    0.0000 </r>
       <r>    8.9111    0.0000 </r>
       <r>    8.9748    0.0000 </r>
       <r>    9.0652    0.0000 </r>
       <r>    9.2745    0.0000 </r>
       <r>    9.5647    0.0000 </r>
       <r>    9.6123    0.0000 </r>
       <r>    9.9496    0.0000 </r>
       <r>   10.0139    0.0000 </r>
      </set>
      <set comment="kpoint 3">
       <r>  -32.2382    1.0000 </r>
       <r>  -32.2323    1.0000 </r>
       <r>  -30.5227    1.0000 </r>
       <r>  -30.5162    1.0000 </r>
       <r>  -15.0799    1.0000 </r>
       <r>  -14.9776    1.0000 </r>
       <r>  -14.8559    1.0000 </r>
       <r>  -14.5292    1.0000 </r>
       <r>  -14.2784    1.0000 </r>
       <r>  -14.2736    1.0000 </r>
       <r>  -14.2637    1.0000 </r>
       <r>  -14.1694    1.0000 </r>
       <r>  -14.0471    1.0000 </r>
       <r>  -13.8238    1.0000 </r>
       <r>  -13.6180    1.0000 </r>
       <r>  -13.5921    1.0000 </r>
       <r>  -13.5720    1.0000 </r>
       <r>  -13.3035    1.0000 </r>
       <r>  -12.5657    1.0000 </r>
       <r>  -12.4550    1.0000 </r>
       <r>  -12.4376    1.0000 </r>
       <r>  -12.3666    1.0000 </r>
       <r>  -12.0087    1.0000 </r>
       <r>  -11.9631    1.0000 </r>
       <r>   -2.8982    1.0000 </r>
       <r>   -2.5621    1.0000 </r>
       <r>   -2.1385    1.0000 </r>
       <r>   -1.9355    1.0000 </r>
       <r>   -1.5642    1.0000 </r>
       <r>   -1.5427    1.0000 </r>
       <r>   -1.4368    1.0000 </r>
       <r>   -1.3292    1.0000 </r>
       <r>   -1.2331    1.0000 </r>
       <r>   -0.9165    1.0000 </r>
       <r>   -0.7869    1.0000 </r>
       <r>   -0.6665    1.0000 </r>
       <r>   -0.6470    1.0000 </r>
       <r>   -0.5565    1.0000 </r>
       <r>   -0.5259    1.0000 </r>
       <r>   -0.5061    1.0000 </r>
       <r>   -0.4413    1.0000 </r>
       <r>   -0.4382    1.0000 </r>
       <r>   -0.4213    1.0000 </r>
       <r>   -0.3977    1.0000 </r>
       <r>   -0.3476    1.0000 </r>
       <r>   -0.3447    1.0000 </r>
       <r>   -0.1781    1.0000 </r>
       <r>   -0.0685    1.0000 </r>
       <r>   -0.0594    1.0000 </r>
       <r>    0.0972    1.0000 </r>
       <r>    0.1367    1.0000 </r>
       <r>    0.1948    1.0000 </r>
       <r>    0.4006    1.0000 </r>
       <r>    0.6750    1.0000 </r>
       <r>    0.9321    1.0000 </r>
       <r>    1.0534    1.0000 </r>
       <r>    1.1127    1.0000 </r>
       <r>    1.1880    1.0000 </r>
       <r>    1.3010    1.0000 </r>
       <r>    1.3518    1.0000 </r>
       <r>    1.3980    1.0000 </r>
       <r>    1.5617    1.0000 </r>
       <r>    1.7540    1.0000 </r>
       <r>    1.9966    1.0000 </r>
       <r>    2.0763    1.0000 </r>
       <r>    2.0847    1.0000 </r>
       <r>    2.4720    1.0000 </r>
       <r>    3.3153    0.0000 </r>
       <r>    3.9967    0.0000 </r>
       <r>    4.1782    0.0000 </r>
       <r>    5.4284    0.0000 </r>
       <r>    5.5161    0.0000 </r>
       <r>    6.5968    0.0000 </r>
       <r>    7.0356    0.0000 </r>
       <r>    7.6683    0.0000 </r>
       <r>    7.7462    0.0000 </r>
       <r>    7.7611    0.0000 </r>
       <r>    8.2732    0.0000 </r>
       <r>    8.3957    0.0000 </r>
       <r>    8.8582    0.0000 </r>
       <r>    8.8835    0.0000 </r>
       <r>    9.4353    0.0000 </r>
       <r>    9.6810    0.0000 </r>
       <r>    9.9401    0.0000 </r>
       <r>   10.0979    0.0000 </r>
       <r>   10.1509    0.0000 </r>
       <r>   10.3054    0.0000 </r>
       <r>   10.5187    0.0000 </r>
      </set>
      <set comment="kpoint 4">
       <r>  -32.2452    1.0000 </r>
       <r>  -32.2390    1.0000 </r>
       <r>  -30.5308    1.0000 </r>
       <r>  -30.5239    1.0000 </r>
       <r>  -15.2283    1.0000 </r>
       <r>  -14.8566    1.0000 </r>
       <r>  -14.7290    1.0000 </r>
       <r>  -14.5958    1.0000 </r>
       <r>  -14.3856    1.0000 </r>
       <r>  -14.3589    1.0000 </r>
       <r>  -14.1414    1.0000 </r>
       <r>  -14.1262    1.0000 </r>
       <r>  -13.8674    1.0000 </r>
       <r>  -13.7715    1.0000 </r>
       <r>  -13.5986    1.0000 </r>
       <r>  -13.5877    1.0000 </r>
       <r>  -13.4446    1.0000 </r>
       <r>  -13.3202    1.0000 </r>
       <r>  -12.4859    1.0000 </r>
       <r>  -12.3775    1.0000 </r>
       <r>  -12.3594    1.0000 </r>
       <r>  -12.2990    1.0000 </r>
       <r>  -12.2942    1.0000 </r>
       <r>  -12.2329    1.0000 </r>
       <r>   -2.2065    1.0000 </r>
       <r>   -1.9477    1.0000 </r>
       <r>   -1.8746    1.0000 </r>
       <r>   -1.7699    1.0000 </r>
       <r>   -1.7073    1.0000 </r>
       <r>   -1.5981    1.0000 </r>
       <r>   -1.3761    1.0000 </r>
       <r>   -1.3707    1.0000 </r>
       <r>   -1.2941    1.0000 </r>
       <r>   -1.2323    1.0000 </r>
       <r>   -1.1885    1.0000 </r>
       <r>   -1.0393    1.0000 </r>
       <r>   -0.8394    1.0000 </r>
       <r>   -0.8094    1.0000 </r>
       <r>   -0.8037    1.0000 </r>
       <r>   -0.6687    1.0000 </r>
       <r>   -0.6533    1.0000 </r>
       <r>   -0.6296    1.0000 </r>
       <r>   -0.5049    1.0000 </r>
       <r>   -0.4106    1.0000 </r>
       <r>   -0.3391    1.0000 </r>
       <r>   -0.3131    1.0000 </r>
       <r>   -0.2749    1.0000 </r>
       <r>   -0.1847    1.0000 </r>
       <r>    0.2717    1.0000 </r>
       <r>    0.3267    1.0000 </r>
       <r>    0.5241    1.0000 </r>
       <r>    0.5455    1.0000 </r>
       <r>    0.7091    1.0000 </r>
       <r>    0.7283    1.0000 </r>
       <r>    0.8696    1.0000 </r>
       <r>    0.9836    1.0000 </r>
       <r>    1.0201    1.0000 </r>
       <r>    1.4141    1.0000 </r>
       <r>    1.5408    1.0000 </r>
       <r>    1.6345    1.0000 </r>
       <r>    1.6446    1.0000 </r>
       <r>    1.7540    1.0000 </r>
       <r>    1.9205    1.0000 </r>
       <r>    1.9426    1.0000 </r>
       <r>    2.0853    1.0000 </r>
       <r>    2.0997    1.0000 </r>
       <r>    2.6008    0.9905 </r>
       <r>    2.9950    0.0000 </r>
       <r>    3.4936    0.0000 </r>
       <r>    3.7728    0.0000 </r>
       <r>    5.4198    0.0000 </r>
       <r>    6.0423    0.0000 </r>
       <r>    6.7568    0.0000 </r>
       <r>    7.3256    0.0000 </r>
       <r>    7.4446    0.0000 </r>
       <r>    7.9909    0.0000 </r>
       <r>    8.0027    0.0000 </r>
       <r>    8.1194    0.0000 </r>
       <r>    8.2461    0.0000 </r>
       <r>    8.5960    0.0000 </r>
       <r>    8.9219    0.0000 </r>
       <r>    9.0740    0.0000 </r>
       <r>    9.1491    0.0000 </r>
       <r>    9.6997    0.0000 </r>
       <r>    9.7506    0.0000 </r>
       <r>    9.7618    0.0000 </r>
       <r>   10.0382    0.0000 </r>
       <r>   10.1717    0.0000 </r>
      </set>
      <set comment="kpoint 5">
       <r>  -32.2409    1.0000 </r>
       <r>  -32.2349    1.0000 </r>
       <r>  -30.5260    1.0000 </r>
       <r>  -30.5194    1.0000 </r>
       <r>  -15.1049    1.0000 </r>
       <r>  -14.8649    1.0000 </r>
       <r>  -14.8197    1.0000 </r>
       <r>  -14.5109    1.0000 </r>
       <r>  -14.4787    1.0000 </r>
       <r>  -14.3512    1.0000 </r>
       <r>  -14.1716    1.0000 </r>
       <r>  -14.0939    1.0000 </r>
       <r>  -13.8978    1.0000 </r>
       <r>  -13.6830    1.0000 </r>
       <r>  -13.5801    1.0000 </r>
       <r>  -13.5566    1.0000 </r>
       <r>  -13.5428    1.0000 </r>
       <r>  -13.4142    1.0000 </r>
       <r>  -12.5332    1.0000 </r>
       <r>  -12.4617    1.0000 </r>
       <r>  -12.4007    1.0000 </r>
       <r>  -12.3127    1.0000 </r>
       <r>  -12.1736    1.0000 </r>
       <r>  -12.1715    1.0000 </r>
       <r>   -2.2021    1.0000 </r>
       <r>   -2.0080    1.0000 </r>
       <r>   -1.9033    1.0000 </r>
       <r>   -1.8640    1.0000 </r>
       <r>   -1.7928    1.0000 </r>
       <r>   -1.7416    1.0000 </r>
       <r>   -1.6886    1.0000 </r>
       <r>   -1.6220    1.0000 </r>
       <r>   -1.5328    1.0000 </r>
       <r>   -1.3718    1.0000 </r>
       <r>   -1.2993    1.0000 </r>
       <r>   -1.1961    1.0000 </r>
       <r>   -1.1758    1.0000 </r>
       <r>   -1.0024    1.0000 </r>
       <r>   -0.9749    1.0000 </r>
       <r>   -0.9106    1.0000 </r>
       <r>   -0.8934    1.0000 </r>
       <r>   -0.8362    1.0000 </r>
       <r>   -0.4315    1.0000 </r>
       <r>   -0.3756    1.0000 </r>
       <r>   -0.3596    1.0000 </r>
       <r>   -0.1899    1.0000 </r>
       <r>   -0.1402    1.0000 </r>
       <r>    0.1287    1.0000 </r>
       <r>    0.4420    1.0000 </r>
       <r>    0.6125    1.0000 </r>
       <r>    0.6247    1.0000 </r>
       <r>    0.6801    1.0000 </r>
       <r>    0.8854    1.0000 </r>
       <r>    0.9863    1.0000 </r>
       <r>    1.0081    1.0000 </r>
       <r>    1.1465    1.0000 </r>
       <r>    1.1558    1.0000 </r>
       <r>    1.1805    1.0000 </r>
       <r>    1.2793    1.0000 </r>
       <r>    1.5147    1.0000 </r>
       <r>    1.6014    1.0000 </r>
       <r>    1.8141    1.0000 </r>
       <r>    1.9357    1.0000 </r>
       <r>    2.3093    1.0000 </r>
       <r>    2.3113    1.0000 </r>
       <r>    2.5647    0.9996 </r>
       <r>    2.7428    0.0476 </r>
       <r>    3.0685    0.0000 </r>
       <r>    3.7163    0.0000 </r>
       <r>    3.9115    0.0000 </r>
       <r>    5.7661    0.0000 </r>
       <r>    5.9783    0.0000 </r>
       <r>    6.8789    0.0000 </r>
       <r>    7.1537    0.0000 </r>
       <r>    7.3973    0.0000 </r>
       <r>    7.6277    0.0000 </r>
       <r>    7.7623    0.0000 </r>
       <r>    8.3733    0.0000 </r>
       <r>    8.4612    0.0000 </r>
       <r>    8.6161    0.0000 </r>
       <r>    8.6406    0.0000 </r>
       <r>    9.1963    0.0000 </r>
       <r>    9.3199    0.0000 </r>
       <r>    9.7193    0.0000 </r>
       <r>    9.8952    0.0000 </r>
       <r>    9.9772    0.0000 </r>
       <r>   10.1416    0.0000 </r>
       <r>   10.2190    0.0000 </r>
      </set>
      <set comment="kpoint 6">
       <r>  -32.2339    1.0000 </r>
       <r>  -32.2282    1.0000 </r>
       <r>  -30.5183    1.0000 </r>
       <r>  -30.5120    1.0000 </r>
       <r>  -15.0192    1.0000 </r>
       <r>  -14.9116    1.0000 </r>
       <r>  -14.8249    1.0000 </r>
       <r>  -14.5108    1.0000 </r>
       <r>  -14.3387    1.0000 </r>
       <r>  -14.3090    1.0000 </r>
       <r>  -14.1537    1.0000 </r>
       <r>  -14.1420    1.0000 </r>
       <r>  -14.0150    1.0000 </r>
       <r>  -13.7953    1.0000 </r>
       <r>  -13.5936    1.0000 </r>
       <r>  -13.5721    1.0000 </r>
       <r>  -13.5545    1.0000 </r>
       <r>  -13.3435    1.0000 </r>
       <r>  -12.5631    1.0000 </r>
       <r>  -12.5565    1.0000 </r>
       <r>  -12.5204    1.0000 </r>
       <r>  -12.3148    1.0000 </r>
       <r>  -12.1266    1.0000 </r>
       <r>  -12.0521    1.0000 </r>
       <r>   -2.9132    1.0000 </r>
       <r>   -2.5783    1.0000 </r>
       <r>   -2.1669    1.0000 </r>
       <r>   -1.8874    1.0000 </r>
       <r>   -1.8477    1.0000 </r>
       <r>   -1.8149    1.0000 </r>
       <r>   -1.8059    1.0000 </r>
       <r>   -1.7496    1.0000 </r>
       <r>   -1.6084    1.0000 </r>
       <r>   -1.5625    1.0000 </r>
       <r>   -1.5352    1.0000 </r>
       <r>   -1.4917    1.0000 </r>
       <r>   -1.1929    1.0000 </r>
       <r>   -1.0532    1.0000 </r>
       <r>   -1.0464    1.0000 </r>
       <r>   -0.9821    1.0000 </r>
       <r>   -0.9207    1.0000 </r>
       <r>   -0.8432    1.0000 </r>
       <r>   -0.5205    1.0000 </r>
       <r>   -0.4344    1.0000 </r>
       <r>   -0.3173    1.0000 </r>
       <r>    0.0374    1.0000 </r>
       <r>    0.1654    1.0000 </r>
       <r>    0.3443    1.0000 </r>
       <r>    0.3842    1.0000 </r>
       <r>    0.5806    1.0000 </r>
       <r>    0.6493    1.0000 </r>
       <r>    0.7244    1.0000 </r>
       <r>    0.9634    1.0000 </r>
       <r>    0.9927    1.0000 </r>
       <r>    1.0944    1.0000 </r>
       <r>    1.1805    1.0000 </r>
       <r>    1.2413    1.0000 </r>
       <r>    1.3771    1.0000 </r>
       <r>    1.4696    1.0000 </r>
       <r>    1.6307    1.0000 </r>
       <r>    1.7678    1.0000 </r>
       <r>    1.8825    1.0000 </r>
       <r>    1.9915    1.0000 </r>
       <r>    2.3978    1.0000 </r>
       <r>    2.4999    1.0000 </r>
       <r>    2.6541    0.7992 </r>
       <r>    2.8221    0.0000 </r>
       <r>    3.6503    0.0000 </r>
       <r>    4.3125    0.0000 </r>
       <r>    4.3315    0.0000 </r>
       <r>    5.0809    0.0000 </r>
       <r>    5.4204    0.0000 </r>
       <r>    6.8003    0.0000 </r>
       <r>    7.3310    0.0000 </r>
       <r>    7.6165    0.0000 </r>
       <r>    7.8292    0.0000 </r>
       <r>    8.0422    0.0000 </r>
       <r>    8.1800    0.0000 </r>
       <r>    8.7174    0.0000 </r>
       <r>    8.9439    0.0000 </r>
       <r>    9.2656    0.0000 </r>
       <r>    9.4147    0.0000 </r>
       <r>    9.8385    0.0000 </r>
       <r>    9.9203    0.0000 </r>
       <r>   10.0712    0.0000 </r>
       <r>   10.2281    0.0000 </r>
       <r>   10.4969    0.0000 </r>
       <r>   10.5544    0.0000 </r>
      </set>
      <set comment="kpoint 7">
       <r>  -32.2381    1.0000 </r>
       <r>  -32.2323    1.0000 </r>
       <r>  -30.5229    1.0000 </r>
       <r>  -30.5164    1.0000 </r>
       <r>  -15.0427    1.0000 </r>
       <r>  -14.8359    1.0000 </r>
       <r>  -14.7508    1.0000 </r>
       <r>  -14.4816    1.0000 </r>
       <r>  -14.4690    1.0000 </r>
       <r>  -14.3430    1.0000 </r>
       <r>  -14.1302    1.0000 </r>
       <r>  -14.1152    1.0000 </r>
       <r>  -13.8771    1.0000 </r>
       <r>  -13.8313    1.0000 </r>
       <r>  -13.8073    1.0000 </r>
       <r>  -13.7900    1.0000 </r>
       <r>  -13.4006    1.0000 </r>
       <r>  -13.3561    1.0000 </r>
       <r>  -12.4657    1.0000 </r>
       <r>  -12.3568    1.0000 </r>
       <r>  -12.3390    1.0000 </r>
       <r>  -12.2848    1.0000 </r>
       <r>  -12.1046    1.0000 </r>
       <r>  -12.0699    1.0000 </r>
       <r>   -2.8955    1.0000 </r>
       <r>   -2.8315    1.0000 </r>
       <r>   -2.8183    1.0000 </r>
       <r>   -2.5434    1.0000 </r>
       <r>   -2.0638    1.0000 </r>
       <r>   -2.0041    1.0000 </r>
       <r>   -1.5686    1.0000 </r>
       <r>   -1.5093    1.0000 </r>
       <r>   -1.4590    1.0000 </r>
       <r>   -1.4044    1.0000 </r>
       <r>   -1.3269    1.0000 </r>
       <r>   -1.2255    1.0000 </r>
       <r>   -1.1758    1.0000 </r>
       <r>   -1.1444    1.0000 </r>
       <r>   -1.1405    1.0000 </r>
       <r>   -0.6624    1.0000 </r>
       <r>   -0.6449    1.0000 </r>
       <r>   -0.5571    1.0000 </r>
       <r>   -0.4519    1.0000 </r>
       <r>   -0.3553    1.0000 </r>
       <r>   -0.2842    1.0000 </r>
       <r>   -0.2484    1.0000 </r>
       <r>   -0.1571    1.0000 </r>
       <r>   -0.0544    1.0000 </r>
       <r>    0.3801    1.0000 </r>
       <r>    0.5131    1.0000 </r>
       <r>    0.8626    1.0000 </r>
       <r>    1.0505    1.0000 </r>
       <r>    1.1149    1.0000 </r>
       <r>    1.2061    1.0000 </r>
       <r>    1.2787    1.0000 </r>
       <r>    1.2989    1.0000 </r>
       <r>    1.3401    1.0000 </r>
       <r>    1.3508    1.0000 </r>
       <r>    1.6119    1.0000 </r>
       <r>    1.6428    1.0000 </r>
       <r>    1.6440    1.0000 </r>
       <r>    1.6847    1.0000 </r>
       <r>    1.7179    1.0000 </r>
       <r>    1.7660    1.0000 </r>
       <r>    1.8676    1.0000 </r>
       <r>    2.3327    1.0000 </r>
       <r>    2.5873    0.9968 </r>
       <r>    3.6238    0.0000 </r>
       <r>    5.0279    0.0000 </r>
       <r>    5.0359    0.0000 </r>
       <r>    6.1185    0.0000 </r>
       <r>    6.6563    0.0000 </r>
       <r>    6.9928    0.0000 </r>
       <r>    7.1300    0.0000 </r>
       <r>    7.2085    0.0000 </r>
       <r>    7.2258    0.0000 </r>
       <r>    7.4218    0.0000 </r>
       <r>    7.5792    0.0000 </r>
       <r>    8.4178    0.0000 </r>
       <r>    8.6327    0.0000 </r>
       <r>    9.2824    0.0000 </r>
       <r>    9.4229    0.0000 </r>
       <r>    9.7959    0.0000 </r>
       <r>    9.8726    0.0000 </r>
       <r>    9.8827    0.0000 </r>
       <r>   10.2819    0.0000 </r>
       <r>   10.4223    0.0000 </r>
       <r>   10.6310    0.0000 </r>
      </set>
      <set comment="kpoint 8">
       <r>  -32.2339    1.0000 </r>
       <r>  -32.2282    1.0000 </r>
       <r>  -30.5184    1.0000 </r>
       <r>  -30.5121    1.0000 </r>
       <r>  -14.9699    1.0000 </r>
       <r>  -14.7748    1.0000 </r>
       <r>  -14.7566    1.0000 </r>
       <r>  -14.6056    1.0000 </r>
       <r>  -14.4721    1.0000 </r>
       <r>  -14.3417    1.0000 </r>
       <r>  -14.1564    1.0000 </r>
       <r>  -13.9542    1.0000 </r>
       <r>  -13.8397    1.0000 </r>
       <r>  -13.8123    1.0000 </r>
       <r>  -13.7486    1.0000 </r>
       <r>  -13.7310    1.0000 </r>
       <r>  -13.4771    1.0000 </r>
       <r>  -13.3781    1.0000 </r>
       <r>  -12.5184    1.0000 </r>
       <r>  -12.4330    1.0000 </r>
       <r>  -12.3917    1.0000 </r>
       <r>  -12.2806    1.0000 </r>
       <r>  -12.2132    1.0000 </r>
       <r>  -12.1551    1.0000 </r>
       <r>   -2.8758    1.0000 </r>
       <r>   -2.8233    1.0000 </r>
       <r>   -2.8025    1.0000 </r>
       <r>   -2.5581    1.0000 </r>
       <r>   -2.0594    1.0000 </r>
       <r>   -1.9173    1.0000 </r>
       <r>   -1.9130    1.0000 </r>
       <r>   -1.8139    1.0000 </r>
       <r>   -1.6211    1.0000 </r>
       <r>   -1.5785    1.0000 </r>
       <r>   -1.5694    1.0000 </r>
       <r>   -1.4738    1.0000 </r>
       <r>   -1.3655    1.0000 </r>
       <r>   -1.2592    1.0000 </r>
       <r>   -1.2467    1.0000 </r>
       <r>   -1.2040    1.0000 </r>
       <r>   -1.1066    1.0000 </r>
       <r>   -1.0640    1.0000 </r>
       <r>   -0.4269    1.0000 </r>
       <r>   -0.3785    1.0000 </r>
       <r>   -0.3174    1.0000 </r>
       <r>   -0.1518    1.0000 </r>
       <r>   -0.0860    1.0000 </r>
       <r>    0.4933    1.0000 </r>
       <r>    0.7937    1.0000 </r>
       <r>    0.9051    1.0000 </r>
       <r>    1.0173    1.0000 </r>
       <r>    1.1120    1.0000 </r>
       <r>    1.1958    1.0000 </r>
       <r>    1.2706    1.0000 </r>
       <r>    1.3182    1.0000 </r>
       <r>    1.3464    1.0000 </r>
       <r>    1.4154    1.0000 </r>
       <r>    1.4765    1.0000 </r>
       <r>    1.5555    1.0000 </r>
       <r>    1.6082    1.0000 </r>
       <r>    1.7596    1.0000 </r>
       <r>    1.8383    1.0000 </r>
       <r>    2.0111    1.0000 </r>
       <r>    2.3294    1.0000 </r>
       <r>    2.5693    0.9994 </r>
       <r>    2.6380    0.9024 </r>
       <r>    2.8352    0.0000 </r>
       <r>    3.6554    0.0000 </r>
       <r>    4.8763    0.0000 </r>
       <r>    5.0011    0.0000 </r>
       <r>    5.5060    0.0000 </r>
       <r>    5.9120    0.0000 </r>
       <r>    6.8190    0.0000 </r>
       <r>    7.4911    0.0000 </r>
       <r>    7.5140    0.0000 </r>
       <r>    7.6982    0.0000 </r>
       <r>    7.8599    0.0000 </r>
       <r>    8.3755    0.0000 </r>
       <r>    8.4737    0.0000 </r>
       <r>    8.8707    0.0000 </r>
       <r>    9.0813    0.0000 </r>
       <r>    9.5902    0.0000 </r>
       <r>    9.8977    0.0000 </r>
       <r>    9.9147    0.0000 </r>
       <r>    9.9529    0.0000 </r>
       <r>   10.2773    0.0000 </r>
       <r>   10.3459    0.0000 </r>
       <r>   10.4431    0.0000 </r>
      </set>
      <set comment="kpoint 9">
       <r>  -32.2270    1.0000 </r>
       <r>  -32.2216    1.0000 </r>
       <r>  -30.5111    1.0000 </r>
       <r>  -30.5051    1.0000 </r>
       <r>  -14.9232    1.0000 </r>
       <r>  -14.8663    1.0000 </r>
       <r>  -14.8049    1.0000 </r>
       <r>  -14.4585    1.0000 </r>
       <r>  -14.4568    1.0000 </r>
       <r>  -14.1090    1.0000 </r>
       <r>  -14.1038    1.0000 </r>
       <r>  -14.0014    1.0000 </r>
       <r>  -13.9343    1.0000 </r>
       <r>  -13.7995    1.0000 </r>
       <r>  -13.6830    1.0000 </r>
       <r>  -13.5005    1.0000 </r>
       <r>  -13.4923    1.0000 </r>
       <r>  -13.4341    1.0000 </r>
       <r>  -12.6228    1.0000 </r>
       <r>  -12.6036    1.0000 </r>
       <r>  -12.5422    1.0000 </r>
       <r>  -12.3793    1.0000 </r>
       <r>  -12.3444    1.0000 </r>
       <r>  -12.1899    1.0000 </r>
       <r>   -3.1099    1.0000 </r>
       <r>   -2.8650    1.0000 </r>
       <r>   -2.7572    1.0000 </r>
       <r>   -2.7151    1.0000 </r>
       <r>   -2.7048    1.0000 </r>
       <r>   -2.3799    1.0000 </r>
       <r>   -2.1036    1.0000 </r>
       <r>   -2.0553    1.0000 </r>
       <r>   -2.0431    1.0000 </r>
       <r>   -1.8091    1.0000 </r>
       <r>   -1.7645    1.0000 </r>
       <r>   -1.4435    1.0000 </r>
       <r>   -1.3816    1.0000 </r>
       <r>   -1.3536    1.0000 </r>
       <r>   -1.3102    1.0000 </r>
       <r>   -1.3080    1.0000 </r>
       <r>   -1.2744    1.0000 </r>
       <r>   -1.0446    1.0000 </r>
       <r>   -0.4641    1.0000 </r>
       <r>   -0.4113    1.0000 </r>
       <r>   -0.3373    1.0000 </r>
       <r>    0.0730    1.0000 </r>
       <r>    0.2639    1.0000 </r>
       <r>    0.9141    1.0000 </r>
       <r>    1.0353    1.0000 </r>
       <r>    1.1078    1.0000 </r>
       <r>    1.1379    1.0000 </r>
       <r>    1.1541    1.0000 </r>
       <r>    1.2928    1.0000 </r>
       <r>    1.3177    1.0000 </r>
       <r>    1.3653    1.0000 </r>
       <r>    1.4327    1.0000 </r>
       <r>    1.4328    1.0000 </r>
       <r>    1.5031    1.0000 </r>
       <r>    1.5364    1.0000 </r>
       <r>    1.7936    1.0000 </r>
       <r>    2.0420    1.0000 </r>
       <r>    2.1530    1.0000 </r>
       <r>    2.2680    1.0000 </r>
       <r>    2.4487    1.0000 </r>
       <r>    2.5428    1.0000 </r>
       <r>    3.5359    0.0000 </r>
       <r>    3.7588    0.0000 </r>
       <r>    4.0379    0.0000 </r>
       <r>    4.4702    0.0000 </r>
       <r>    4.4941    0.0000 </r>
       <r>    4.5733    0.0000 </r>
       <r>    5.3938    0.0000 </r>
       <r>    7.9629    0.0000 </r>
       <r>    8.1767    0.0000 </r>
       <r>    8.3236    0.0000 </r>
       <r>    8.3835    0.0000 </r>
       <r>    8.4548    0.0000 </r>
       <r>    8.6358    0.0000 </r>
       <r>    8.7290    0.0000 </r>
       <r>    8.7817    0.0000 </r>
       <r>    9.3772    0.0000 </r>
       <r>    9.5199    0.0000 </r>
       <r>    9.7446    0.0000 </r>
       <r>    9.9275    0.0000 </r>
       <r>   10.1330    0.0000 </r>
       <r>   10.1914    0.0000 </r>
       <r>   10.4266    0.0000 </r>
       <r>   10.4755    0.0000 </r>
      </set>
     </set>
     <set comment="spin 2">
      <set comment="kpoint 1">
       <r>  -32.2507    1.0000 </r>
       <r>  -32.2444    1.0000 </r>
       <r>  -30.5365    1.0000 </r>
       <r>  -30.5294    1.0000 </r>
       <r>  -15.2556    1.0000 </r>
       <r>  -14.9203    1.0000 </r>
       <r>  -14.7153    1.0000 </r>
       <r>  -14.5610    1.0000 </r>
       <r>  -14.2976    1.0000 </r>
       <r>  -14.2826    1.0000 </r>
       <r>  -14.1499    1.0000 </r>
       <r>  -14.1345    1.0000 </r>
       <r>  -13.8859    1.0000 </r>
       <r>  -13.6179    1.0000 </r>
       <r>  -13.4585    1.0000 </r>
       <r>  -13.3911    1.0000 </r>
       <r>  -13.2703    1.0000 </r>
       <r>  -13.1981    1.0000 </r>
       <r>  -12.4968    1.0000 </r>
       <r>  -12.4883    1.0000 </r>
       <r>  -12.4706    1.0000 </r>
       <r>  -12.3906    1.0000 </r>
       <r>  -12.3726    1.0000 </r>
       <r>  -12.1926    1.0000 </r>
       <r>   -2.1519    1.0000 </r>
       <r>   -1.3858    1.0000 </r>
       <r>   -1.3638    1.0000 </r>
       <r>   -1.3096    1.0000 </r>
       <r>   -1.1873    1.0000 </r>
       <r>   -1.0716    1.0000 </r>
       <r>   -0.9126    1.0000 </r>
       <r>   -0.9022    1.0000 </r>
       <r>   -0.8322    1.0000 </r>
       <r>   -0.8151    1.0000 </r>
       <r>   -0.7247    1.0000 </r>
       <r>   -0.6805    1.0000 </r>
       <r>   -0.6163    1.0000 </r>
       <r>   -0.5327    1.0000 </r>
       <r>   -0.4579    1.0000 </r>
       <r>   -0.4492    1.0000 </r>
       <r>   -0.3772    1.0000 </r>
       <r>   -0.3563    1.0000 </r>
       <r>   -0.3310    1.0000 </r>
       <r>   -0.3263    1.0000 </r>
       <r>   -0.3130    1.0000 </r>
       <r>   -0.2968    1.0000 </r>
       <r>   -0.2966    1.0000 </r>
       <r>   -0.2777    1.0000 </r>
       <r>   -0.0417    1.0000 </r>
       <r>    0.0325    1.0000 </r>
       <r>    0.0901    1.0000 </r>
       <r>    0.0933    1.0000 </r>
       <r>    0.1385    1.0000 </r>
       <r>    0.4192    1.0000 </r>
       <r>    0.7590    1.0000 </r>
       <r>    0.8150    1.0000 </r>
       <r>    1.4472    1.0000 </r>
       <r>    1.6038    1.0000 </r>
       <r>    1.6817    1.0000 </r>
       <r>    1.7578    1.0000 </r>
       <r>    1.9407    1.0000 </r>
       <r>    1.9494    1.0000 </r>
       <r>    1.9618    1.0000 </r>
       <r>    2.0176    1.0000 </r>
       <r>    2.0781    1.0000 </r>
       <r>    2.2849    1.0000 </r>
       <r>    2.2984    1.0000 </r>
       <r>    2.3987    1.0000 </r>
       <r>    2.6724    0.6266 </r>
       <r>    3.2606    0.0000 </r>
       <r>    4.9533    0.0000 </r>
       <r>    5.8186    0.0000 </r>
       <r>    6.4038    0.0000 </r>
       <r>    7.2992    0.0000 </r>
       <r>    7.3090    0.0000 </r>
       <r>    7.6431    0.0000 </r>
       <r>    8.3526    0.0000 </r>
       <r>    8.4141    0.0000 </r>
       <r>    8.6074    0.0000 </r>
       <r>    8.8683    0.0000 </r>
       <r>    8.9348    0.0000 </r>
       <r>    8.9434    0.0000 </r>
       <r>    9.0421    0.0000 </r>
       <r>    9.1827    0.0000 </r>
       <r>    9.3135    0.0000 </r>
       <r>    9.5460    0.0000 </r>
       <r>    9.9680    0.0000 </r>
       <r>   10.1927    0.0000 </r>
      </set>
      <set comment="kpoint 2">
       <r>  -32.2464    1.0000 </r>
       <r>  -32.2402    1.0000 </r>
       <r>  -30.5316    1.0000 </r>
       <r>  -30.5247    1.0000 </r>
       <r>  -15.1234    1.0000 </r>
       <r>  -14.9306    1.0000 </r>
       <r>  -14.8504    1.0000 </r>
       <r>  -14.4931    1.0000 </r>
       <r>  -14.2909    1.0000 </r>
       <r>  -14.2759    1.0000 </r>
       <r>  -14.1822    1.0000 </r>
       <r>  -14.1707    1.0000 </r>
       <r>  -13.9225    1.0000 </r>
       <r>  -13.5674    1.0000 </r>
       <r>  -13.5106    1.0000 </r>
       <r>  -13.5061    1.0000 </r>
       <r>  -13.4013    1.0000 </r>
       <r>  -13.2289    1.0000 </r>
       <r>  -12.5246    1.0000 </r>
       <r>  -12.4758    1.0000 </r>
       <r>  -12.4583    1.0000 </r>
       <r>  -12.2551    1.0000 </r>
       <r>  -12.2096    1.0000 </r>
       <r>  -12.1838    1.0000 </r>
       <r>   -2.1595    1.0000 </r>
       <r>   -1.6908    1.0000 </r>
       <r>   -1.6230    1.0000 </r>
       <r>   -1.5117    1.0000 </r>
       <r>   -1.4077    1.0000 </r>
       <r>   -1.3626    1.0000 </r>
       <r>   -1.2689    1.0000 </r>
       <r>   -1.1666    1.0000 </r>
       <r>   -1.0258    1.0000 </r>
       <r>   -0.8775    1.0000 </r>
       <r>   -0.8038    1.0000 </r>
       <r>   -0.5694    1.0000 </r>
       <r>   -0.5099    1.0000 </r>
       <r>   -0.4670    1.0000 </r>
       <r>   -0.4560    1.0000 </r>
       <r>   -0.4557    1.0000 </r>
       <r>   -0.3861    1.0000 </r>
       <r>   -0.3846    1.0000 </r>
       <r>   -0.3833    1.0000 </r>
       <r>   -0.3181    1.0000 </r>
       <r>   -0.3146    1.0000 </r>
       <r>   -0.3122    1.0000 </r>
       <r>   -0.2854    1.0000 </r>
       <r>   -0.2414    1.0000 </r>
       <r>    0.0181    1.0000 </r>
       <r>    0.0372    1.0000 </r>
       <r>    0.0416    1.0000 </r>
       <r>    0.3003    1.0000 </r>
       <r>    0.3062    1.0000 </r>
       <r>    0.7784    1.0000 </r>
       <r>    0.8743    1.0000 </r>
       <r>    0.9598    1.0000 </r>
       <r>    1.0735    1.0000 </r>
       <r>    1.4131    1.0000 </r>
       <r>    1.6846    1.0000 </r>
       <r>    1.7006    1.0000 </r>
       <r>    1.7282    1.0000 </r>
       <r>    1.9720    1.0000 </r>
       <r>    1.9767    1.0000 </r>
       <r>    2.1086    1.0000 </r>
       <r>    2.1754    1.0000 </r>
       <r>    2.3051    1.0000 </r>
       <r>    2.3353    1.0000 </r>
       <r>    2.5725    0.9992 </r>
       <r>    3.2683    0.0000 </r>
       <r>    3.4575    0.0000 </r>
       <r>    5.5208    0.0000 </r>
       <r>    6.1242    0.0000 </r>
       <r>    6.4833    0.0000 </r>
       <r>    7.0613    0.0000 </r>
       <r>    7.6810    0.0000 </r>
       <r>    8.0689    0.0000 </r>
       <r>    8.3254    0.0000 </r>
       <r>    8.3423    0.0000 </r>
       <r>    8.4109    0.0000 </r>
       <r>    8.5121    0.0000 </r>
       <r>    8.9192    0.0000 </r>
       <r>    8.9810    0.0000 </r>
       <r>    9.0706    0.0000 </r>
       <r>    9.2783    0.0000 </r>
       <r>    9.5790    0.0000 </r>
       <r>    9.6111    0.0000 </r>
       <r>    9.9518    0.0000 </r>
       <r>   10.0128    0.0000 </r>
      </set>
      <set comment="kpoint 3">
       <r>  -32.2394    1.0000 </r>
       <r>  -32.2335    1.0000 </r>
       <r>  -30.5236    1.0000 </r>
       <r>  -30.5171    1.0000 </r>
       <r>  -15.0635    1.0000 </r>
       <r>  -14.9790    1.0000 </r>
       <r>  -14.7898    1.0000 </r>
       <r>  -14.4672    1.0000 </r>
       <r>  -14.2799    1.0000 </r>
       <r>  -14.2652    1.0000 </r>
       <r>  -14.1869    1.0000 </r>
       <r>  -14.1707    1.0000 </r>
       <r>  -14.0483    1.0000 </r>
       <r>  -13.7132    1.0000 </r>
       <r>  -13.6181    1.0000 </r>
       <r>  -13.5146    1.0000 </r>
       <r>  -13.4786    1.0000 </r>
       <r>  -13.2295    1.0000 </r>
       <r>  -12.5675    1.0000 </r>
       <r>  -12.4554    1.0000 </r>
       <r>  -12.4382    1.0000 </r>
       <r>  -12.3390    1.0000 </r>
       <r>  -12.0090    1.0000 </r>
       <r>  -11.9567    1.0000 </r>
       <r>   -2.5611    1.0000 </r>
       <r>   -2.2602    1.0000 </r>
       <r>   -2.1472    1.0000 </r>
       <r>   -1.9363    1.0000 </r>
       <r>   -1.5434    1.0000 </r>
       <r>   -1.4468    1.0000 </r>
       <r>   -1.4190    1.0000 </r>
       <r>   -1.2305    1.0000 </r>
       <r>   -1.1826    1.0000 </r>
       <r>   -0.9100    1.0000 </r>
       <r>   -0.7850    1.0000 </r>
       <r>   -0.6635    1.0000 </r>
       <r>   -0.5328    1.0000 </r>
       <r>   -0.5041    1.0000 </r>
       <r>   -0.5038    1.0000 </r>
       <r>   -0.4692    1.0000 </r>
       <r>   -0.4342    1.0000 </r>
       <r>   -0.3870    1.0000 </r>
       <r>   -0.3508    1.0000 </r>
       <r>   -0.3483    1.0000 </r>
       <r>   -0.2609    1.0000 </r>
       <r>   -0.2261    1.0000 </r>
       <r>   -0.1298    1.0000 </r>
       <r>   -0.0642    1.0000 </r>
       <r>   -0.0061    1.0000 </r>
       <r>    0.1099    1.0000 </r>
       <r>    0.1341    1.0000 </r>
       <r>    0.2484    1.0000 </r>
       <r>    0.3789    1.0000 </r>
       <r>    0.8100    1.0000 </r>
       <r>    1.0514    1.0000 </r>
       <r>    1.0780    1.0000 </r>
       <r>    1.1866    1.0000 </r>
       <r>    1.2613    1.0000 </r>
       <r>    1.3660    1.0000 </r>
       <r>    1.4328    1.0000 </r>
       <r>    1.6898    1.0000 </r>
       <r>    1.9562    1.0000 </r>
       <r>    1.9978    1.0000 </r>
       <r>    2.1161    1.0000 </r>
       <r>    2.1219    1.0000 </r>
       <r>    2.3982    1.0000 </r>
       <r>    2.5158    1.0000 </r>
       <r>    3.3345    0.0000 </r>
       <r>    4.0215    0.0000 </r>
       <r>    4.1851    0.0000 </r>
       <r>    5.4514    0.0000 </r>
       <r>    5.5183    0.0000 </r>
       <r>    6.6116    0.0000 </r>
       <r>    7.0384    0.0000 </r>
       <r>    7.6685    0.0000 </r>
       <r>    7.7683    0.0000 </r>
       <r>    7.8201    0.0000 </r>
       <r>    8.2783    0.0000 </r>
       <r>    8.3933    0.0000 </r>
       <r>    8.8658    0.0000 </r>
       <r>    8.8895    0.0000 </r>
       <r>    9.4358    0.0000 </r>
       <r>    9.6886    0.0000 </r>
       <r>    9.9388    0.0000 </r>
       <r>   10.0967    0.0000 </r>
       <r>   10.1664    0.0000 </r>
       <r>   10.3162    0.0000 </r>
       <r>   10.5315    0.0000 </r>
      </set>
      <set comment="kpoint 4">
       <r>  -32.2464    1.0000 </r>
       <r>  -32.2402    1.0000 </r>
       <r>  -30.5316    1.0000 </r>
       <r>  -30.5248    1.0000 </r>
       <r>  -15.1669    1.0000 </r>
       <r>  -14.8580    1.0000 </r>
       <r>  -14.6973    1.0000 </r>
       <r>  -14.4967    1.0000 </r>
       <r>  -14.3610    1.0000 </r>
       <r>  -14.3605    1.0000 </r>
       <r>  -14.1429    1.0000 </r>
       <r>  -14.1278    1.0000 </r>
       <r>  -13.8687    1.0000 </r>
       <r>  -13.6248    1.0000 </r>
       <r>  -13.5873    1.0000 </r>
       <r>  -13.5274    1.0000 </r>
       <r>  -13.3673    1.0000 </r>
       <r>  -13.2287    1.0000 </r>
       <r>  -12.4877    1.0000 </r>
       <r>  -12.3779    1.0000 </r>
       <r>  -12.3601    1.0000 </r>
       <r>  -12.2994    1.0000 </r>
       <r>  -12.2841    1.0000 </r>
       <r>  -12.2135    1.0000 </r>
       <r>   -2.2131    1.0000 </r>
       <r>   -1.8756    1.0000 </r>
       <r>   -1.7741    1.0000 </r>
       <r>   -1.6950    1.0000 </r>
       <r>   -1.6005    1.0000 </r>
       <r>   -1.4454    1.0000 </r>
       <r>   -1.3826    1.0000 </r>
       <r>   -1.3633    1.0000 </r>
       <r>   -1.2423    1.0000 </r>
       <r>   -1.2220    1.0000 </r>
       <r>   -1.0410    1.0000 </r>
       <r>   -1.0330    1.0000 </r>
       <r>   -0.8096    1.0000 </r>
       <r>   -0.7925    1.0000 </r>
       <r>   -0.7749    1.0000 </r>
       <r>   -0.6240    1.0000 </r>
       <r>   -0.4609    1.0000 </r>
       <r>   -0.4386    1.0000 </r>
       <r>   -0.3587    1.0000 </r>
       <r>   -0.3400    1.0000 </r>
       <r>   -0.3308    1.0000 </r>
       <r>   -0.2708    1.0000 </r>
       <r>   -0.2492    1.0000 </r>
       <r>   -0.1554    1.0000 </r>
       <r>    0.2794    1.0000 </r>
       <r>    0.5377    1.0000 </r>
       <r>    0.5692    1.0000 </r>
       <r>    0.7121    1.0000 </r>
       <r>    0.7271    1.0000 </r>
       <r>    0.9086    1.0000 </r>
       <r>    0.9691    1.0000 </r>
       <r>    1.0269    1.0000 </r>
       <r>    1.0961    1.0000 </r>
       <r>    1.5954    1.0000 </r>
       <r>    1.7779    1.0000 </r>
       <r>    1.7855    1.0000 </r>
       <r>    1.8778    1.0000 </r>
       <r>    1.8810    1.0000 </r>
       <r>    1.9392    1.0000 </r>
       <r>    2.1139    1.0000 </r>
       <r>    2.1973    1.0000 </r>
       <r>    2.2016    1.0000 </r>
       <r>    2.6296    0.9373 </r>
       <r>    3.0138    0.0000 </r>
       <r>    3.5319    0.0000 </r>
       <r>    3.7780    0.0000 </r>
       <r>    5.4375    0.0000 </r>
       <r>    6.0455    0.0000 </r>
       <r>    6.7572    0.0000 </r>
       <r>    7.3521    0.0000 </r>
       <r>    7.4508    0.0000 </r>
       <r>    7.9897    0.0000 </r>
       <r>    8.0054    0.0000 </r>
       <r>    8.1259    0.0000 </r>
       <r>    8.2492    0.0000 </r>
       <r>    8.6014    0.0000 </r>
       <r>    8.9331    0.0000 </r>
       <r>    9.0807    0.0000 </r>
       <r>    9.1481    0.0000 </r>
       <r>    9.7046    0.0000 </r>
       <r>    9.7600    0.0000 </r>
       <r>    9.7831    0.0000 </r>
       <r>   10.0486    0.0000 </r>
       <r>   10.1720    0.0000 </r>
      </set>
      <set comment="kpoint 5">
       <r>  -32.2421    1.0000 </r>
       <r>  -32.2361    1.0000 </r>
       <r>  -30.5269    1.0000 </r>
       <r>  -30.5202    1.0000 </r>
       <r>  -15.0444    1.0000 </r>
       <r>  -14.8664    1.0000 </r>
       <r>  -14.8000    1.0000 </r>
       <r>  -14.4499    1.0000 </r>
       <r>  -14.4117    1.0000 </r>
       <r>  -14.3528    1.0000 </r>
       <r>  -14.1732    1.0000 </r>
       <r>  -14.0754    1.0000 </r>
       <r>  -13.8990    1.0000 </r>
       <r>  -13.5799    1.0000 </r>
       <r>  -13.5688    1.0000 </r>
       <r>  -13.4692    1.0000 </r>
       <r>  -13.4259    1.0000 </r>
       <r>  -13.3736    1.0000 </r>
       <r>  -12.5346    1.0000 </r>
       <r>  -12.4627    1.0000 </r>
       <r>  -12.3840    1.0000 </r>
       <r>  -12.2957    1.0000 </r>
       <r>  -12.1740    1.0000 </r>
       <r>  -12.1656    1.0000 </r>
       <r>   -2.2073    1.0000 </r>
       <r>   -1.8653    1.0000 </r>
       <r>   -1.7749    1.0000 </r>
       <r>   -1.7463    1.0000 </r>
       <r>   -1.7153    1.0000 </r>
       <r>   -1.7002    1.0000 </r>
       <r>   -1.6262    1.0000 </r>
       <r>   -1.5386    1.0000 </r>
       <r>   -1.3563    1.0000 </r>
       <r>   -1.2139    1.0000 </r>
       <r>   -1.1965    1.0000 </r>
       <r>   -1.1828    1.0000 </r>
       <r>   -1.0293    1.0000 </r>
       <r>   -0.9492    1.0000 </r>
       <r>   -0.9077    1.0000 </r>
       <r>   -0.8962    1.0000 </r>
       <r>   -0.8635    1.0000 </r>
       <r>   -0.7732    1.0000 </r>
       <r>   -0.4314    1.0000 </r>
       <r>   -0.3769    1.0000 </r>
       <r>   -0.2055    1.0000 </r>
       <r>   -0.1812    1.0000 </r>
       <r>   -0.1322    1.0000 </r>
       <r>    0.2112    1.0000 </r>
       <r>    0.4750    1.0000 </r>
       <r>    0.6180    1.0000 </r>
       <r>    0.6335    1.0000 </r>
       <r>    0.7099    1.0000 </r>
       <r>    0.9101    1.0000 </r>
       <r>    1.0956    1.0000 </r>
       <r>    1.1957    1.0000 </r>
       <r>    1.2201    1.0000 </r>
       <r>    1.2595    1.0000 </r>
       <r>    1.4156    1.0000 </r>
       <r>    1.4550    1.0000 </r>
       <r>    1.5610    1.0000 </r>
       <r>    1.6263    1.0000 </r>
       <r>    1.8172    1.0000 </r>
       <r>    2.0305    1.0000 </r>
       <r>    2.3327    1.0000 </r>
       <r>    2.5921    0.9952 </r>
       <r>    2.8406    0.0000 </r>
       <r>    3.0696    0.0000 </r>
       <r>    3.0897    0.0000 </r>
       <r>    3.7336    0.0000 </r>
       <r>    3.9159    0.0000 </r>
       <r>    5.7864    0.0000 </r>
       <r>    5.9795    0.0000 </r>
       <r>    6.8801    0.0000 </r>
       <r>    7.1541    0.0000 </r>
       <r>    7.3992    0.0000 </r>
       <r>    7.6464    0.0000 </r>
       <r>    7.7641    0.0000 </r>
       <r>    8.3752    0.0000 </r>
       <r>    8.4802    0.0000 </r>
       <r>    8.6210    0.0000 </r>
       <r>    8.6469    0.0000 </r>
       <r>    9.2008    0.0000 </r>
       <r>    9.3222    0.0000 </r>
       <r>    9.7318    0.0000 </r>
       <r>    9.8947    0.0000 </r>
       <r>    9.9893    0.0000 </r>
       <r>   10.1605    0.0000 </r>
       <r>   10.2254    0.0000 </r>
      </set>
      <set comment="kpoint 6">
       <r>  -32.2351    1.0000 </r>
       <r>  -32.2294    1.0000 </r>
       <r>  -30.5191    1.0000 </r>
       <r>  -30.5128    1.0000 </r>
       <r>  -15.0020    1.0000 </r>
       <r>  -14.9131    1.0000 </r>
       <r>  -14.7638    1.0000 </r>
       <r>  -14.4667    1.0000 </r>
       <r>  -14.3402    1.0000 </r>
       <r>  -14.2750    1.0000 </r>
       <r>  -14.1434    1.0000 </r>
       <r>  -14.0874    1.0000 </r>
       <r>  -14.0163    1.0000 </r>
       <r>  -13.6782    1.0000 </r>
       <r>  -13.5720    1.0000 </r>
       <r>  -13.5147    1.0000 </r>
       <r>  -13.4590    1.0000 </r>
       <r>  -13.2825    1.0000 </r>
       <r>  -12.5583    1.0000 </r>
       <r>  -12.5581    1.0000 </r>
       <r>  -12.5211    1.0000 </r>
       <r>  -12.2892    1.0000 </r>
       <r>  -12.1270    1.0000 </r>
       <r>  -12.0424    1.0000 </r>
       <r>   -2.5706    1.0000 </r>
       <r>   -2.4262    1.0000 </r>
       <r>   -2.1724    1.0000 </r>
       <r>   -1.8886    1.0000 </r>
       <r>   -1.8086    1.0000 </r>
       <r>   -1.7847    1.0000 </r>
       <r>   -1.7466    1.0000 </r>
       <r>   -1.5518    1.0000 </r>
       <r>   -1.5447    1.0000 </r>
       <r>   -1.5400    1.0000 </r>
       <r>   -1.3666    1.0000 </r>
       <r>   -1.1931    1.0000 </r>
       <r>   -1.1361    1.0000 </r>
       <r>   -1.0401    1.0000 </r>
       <r>   -1.0209    1.0000 </r>
       <r>   -0.9193    1.0000 </r>
       <r>   -0.8662    1.0000 </r>
       <r>   -0.8290    1.0000 </r>
       <r>   -0.5220    1.0000 </r>
       <r>   -0.4359    1.0000 </r>
       <r>   -0.1466    1.0000 </r>
       <r>    0.0417    1.0000 </r>
       <r>    0.1654    1.0000 </r>
       <r>    0.3557    1.0000 </r>
       <r>    0.3942    1.0000 </r>
       <r>    0.5979    1.0000 </r>
       <r>    0.6660    1.0000 </r>
       <r>    0.7974    1.0000 </r>
       <r>    0.9658    1.0000 </r>
       <r>    1.1071    1.0000 </r>
       <r>    1.2308    1.0000 </r>
       <r>    1.2408    1.0000 </r>
       <r>    1.3188    1.0000 </r>
       <r>    1.4177    1.0000 </r>
       <r>    1.5191    1.0000 </r>
       <r>    1.7661    1.0000 </r>
       <r>    1.7976    1.0000 </r>
       <r>    1.8846    1.0000 </r>
       <r>    2.2220    1.0000 </r>
       <r>    2.4373    1.0000 </r>
       <r>    2.5273    1.0000 </r>
       <r>    2.8538    0.0000 </r>
       <r>    3.5548    0.0000 </r>
       <r>    3.6696    0.0000 </r>
       <r>    4.3297    0.0000 </r>
       <r>    4.3332    0.0000 </r>
       <r>    5.0801    0.0000 </r>
       <r>    5.4483    0.0000 </r>
       <r>    6.8052    0.0000 </r>
       <r>    7.3330    0.0000 </r>
       <r>    7.6170    0.0000 </r>
       <r>    7.8590    0.0000 </r>
       <r>    8.0611    0.0000 </r>
       <r>    8.1968    0.0000 </r>
       <r>    8.7209    0.0000 </r>
       <r>    8.9465    0.0000 </r>
       <r>    9.2736    0.0000 </r>
       <r>    9.4158    0.0000 </r>
       <r>    9.8495    0.0000 </r>
       <r>    9.9269    0.0000 </r>
       <r>   10.0719    0.0000 </r>
       <r>   10.2393    0.0000 </r>
       <r>   10.4981    0.0000 </r>
       <r>   10.5656    0.0000 </r>
      </set>
      <set comment="kpoint 7">
       <r>  -32.2393    1.0000 </r>
       <r>  -32.2334    1.0000 </r>
       <r>  -30.5237    1.0000 </r>
       <r>  -30.5173    1.0000 </r>
       <r>  -14.9854    1.0000 </r>
       <r>  -14.8117    1.0000 </r>
       <r>  -14.7523    1.0000 </r>
       <r>  -14.4833    1.0000 </r>
       <r>  -14.3996    1.0000 </r>
       <r>  -14.2941    1.0000 </r>
       <r>  -14.1317    1.0000 </r>
       <r>  -14.1168    1.0000 </r>
       <r>  -13.8770    1.0000 </r>
       <r>  -13.7912    1.0000 </r>
       <r>  -13.7186    1.0000 </r>
       <r>  -13.6909    1.0000 </r>
       <r>  -13.3230    1.0000 </r>
       <r>  -13.2739    1.0000 </r>
       <r>  -12.4675    1.0000 </r>
       <r>  -12.3572    1.0000 </r>
       <r>  -12.3398    1.0000 </r>
       <r>  -12.2578    1.0000 </r>
       <r>  -12.1047    1.0000 </r>
       <r>  -12.0640    1.0000 </r>
       <r>   -2.8975    1.0000 </r>
       <r>   -2.8345    1.0000 </r>
       <r>   -2.5452    1.0000 </r>
       <r>   -2.1840    1.0000 </r>
       <r>   -2.0747    1.0000 </r>
       <r>   -2.0003    1.0000 </r>
       <r>   -1.5468    1.0000 </r>
       <r>   -1.4586    1.0000 </r>
       <r>   -1.4338    1.0000 </r>
       <r>   -1.4161    1.0000 </r>
       <r>   -1.2321    1.0000 </r>
       <r>   -1.2136    1.0000 </r>
       <r>   -1.1770    1.0000 </r>
       <r>   -1.0929    1.0000 </r>
       <r>   -1.0911    1.0000 </r>
       <r>   -0.6191    1.0000 </r>
       <r>   -0.4723    1.0000 </r>
       <r>   -0.3535    1.0000 </r>
       <r>   -0.3527    1.0000 </r>
       <r>   -0.2851    1.0000 </r>
       <r>   -0.2488    1.0000 </r>
       <r>   -0.1803    1.0000 </r>
       <r>   -0.1206    1.0000 </r>
       <r>    0.0082    1.0000 </r>
       <r>    0.3764    1.0000 </r>
       <r>    0.6309    1.0000 </r>
[...]
       <r>     1.7763     7.9585    61.1372 </r>
       <r>     1.9336     7.4349    62.3065 </r>
       <r>     2.0908     6.3841    63.3105 </r>
       <r>     2.2481     3.4815    63.8580 </r>
       <r>     2.4054     6.1527    64.8257 </r>
       <r>     2.5626     5.1841    65.6410 </r>
       <r>     2.7199     4.7849    66.3935 </r>
       <r>     2.8772     2.6592    66.8117 </r>
       <r>     3.0344     0.7920    66.9362 </r>
       <r>     3.1917     1.0302    67.0983 </r>
       <r>     3.3490     1.0702    67.2666 </r>
       <r>     3.5062     1.1044    67.4402 </r>
       <r>     3.6635     2.7887    67.8788 </r>
       <r>     3.8208     3.2327    68.3872 </r>
       <r>     3.9780     1.2660    68.5863 </r>
       <r>     4.1353     1.4129    68.8085 </r>
       <r>     4.2926     0.8832    68.9474 </r>
       <r>     4.4498     2.0002    69.2620 </r>
       <r>     4.6071     2.4844    69.6527 </r>
       <r>     4.7644     0.1743    69.6801 </r>
       <r>     4.9216     0.9985    69.8372 </r>
       <r>     5.0789     2.6840    70.2593 </r>
       <r>     5.2362     0.6405    70.3600 </r>
       <r>     5.3934     0.9311    70.5064 </r>
       <r>     5.5507     3.9308    71.1246 </r>
       <r>     5.7080     0.2761    71.1680 </r>
       <r>     5.8652     1.2940    71.3716 </r>
       <r>     6.0225     2.0021    71.6864 </r>
       <r>     6.1798     1.4389    71.9127 </r>
       <r>     6.3371     0.0538    71.9212 </r>
       <r>     6.4943     0.5748    72.0116 </r>
       <r>     6.6516     0.8865    72.1510 </r>
       <r>     6.8089     1.8075    72.4353 </r>
       <r>     6.9661     2.1880    72.7794 </r>
       <r>     7.1234     1.8065    73.0635 </r>
       <r>     7.2807     2.4345    73.4463 </r>
       <r>     7.4379     3.2716    73.9609 </r>
       <r>     7.5952     3.4057    74.4965 </r>
       <r>     7.7525     4.8051    75.2522 </r>
       <r>     7.9097     3.2119    75.7573 </r>
       <r>     8.0670     3.0874    76.2428 </r>
       <r>     8.2243     3.0180    76.7175 </r>
       <r>     8.3815     5.2331    77.5405 </r>
       <r>     8.5388     6.3863    78.5448 </r>
       <r>     8.6961     4.7466    79.2913 </r>
       <r>     8.8533     3.4814    79.8388 </r>
       <r>     9.0106     4.5796    80.5591 </r>
       <r>     9.1679     2.9692    81.0260 </r>
       <r>     9.3251     3.8229    81.6273 </r>
       <r>     9.4824     3.7086    82.2105 </r>
       <r>     9.6397     3.1355    82.7036 </r>
       <r>     9.7969     4.3580    83.3890 </r>
       <r>     9.9542     8.3039    84.6949 </r>
       <r>    10.1115     5.2557    85.5215 </r>
       <r>    10.2687     6.5484    86.5513 </r>
       <r>    10.4260     3.7913    87.1476 </r>
       <r>    10.5833     4.7203    87.8899 </r>
       <r>    10.7405     0.6994    87.9999 </r>
       <r>    10.8978     0.0005    88.0000 </r>
       <r>    11.0551     0.0000    88.0000 </r>
       <r>    11.2123     0.0000    88.0000 </r>
       <r>    11.3696     0.0000    88.0000 </r>
       <r>    11.5269     0.0000    88.0000 </r>
       <r>    11.6842     0.0000    88.0000 </r>
       <r>    11.8414     0.0000    88.0000 </r>
       <r>    11.9987     0.0000    88.0000 </r>
       <r>    12.1560     0.0000    88.0000 </r>
       <r>    12.3132     0.0000    88.0000 </r>
       <r>    12.4705     0.0000    88.0000 </r>
       <r>    12.6278     0.0000    88.0000 </r>
       <r>    12.7850     0.0000    88.0000 </r>
      </set>
      <set comment="spin 2">
       <r>   -34.3953     0.0000     0.0000 </r>
       <r>   -34.2380     0.0000     0.0000 </r>
       <r>   -34.0807     0.0000     0.0000 </r>
       <r>   -33.9235     0.0000     0.0000 </r>
       <r>   -33.7662     0.0000     0.0000 </r>
       <r>   -33.6089     0.0000     0.0000 </r>
       <r>   -33.4517     0.0000     0.0000 </r>
       <r>   -33.2944     0.0000     0.0000 </r>
       <r>   -33.1371     0.0000     0.0000 </r>
       <r>   -32.9799     0.0000     0.0000 </r>
       <r>   -32.8226     0.0000     0.0000 </r>
       <r>   -32.6653     0.0000     0.0000 </r>
       <r>   -32.5081     0.0000     0.0000 </r>
       <r>   -32.3508     0.0085     0.0013 </r>
       <r>   -32.1935    11.1448     1.7541 </r>
       <r>   -32.0363     1.5639     2.0000 </r>
       <r>   -31.8790     0.0000     2.0000 </r>
       <r>   -31.7217     0.0000     2.0000 </r>
       <r>   -31.5645     0.0000     2.0000 </r>
       <r>   -31.4072     0.0000     2.0000 </r>
       <r>   -31.2499     0.0000     2.0000 </r>
       <r>   -31.0927     0.0000     2.0000 </r>
       <r>   -30.9354     0.0000     2.0000 </r>
       <r>   -30.7781     0.0000     2.0000 </r>
       <r>   -30.6209     0.0316     2.0050 </r>
       <r>   -30.4636    11.9092     3.8779 </r>
       <r>   -30.3063     0.7764     4.0000 </r>
       <r>   -30.1491     0.0000     4.0000 </r>
       <r>   -29.9918     0.0000     4.0000 </r>
       <r>   -29.8345     0.0000     4.0000 </r>
       <r>   -29.6773     0.0000     4.0000 </r>
       <r>   -29.5200     0.0000     4.0000 </r>
       <r>   -29.3627     0.0000     4.0000 </r>
       <r>   -29.2054     0.0000     4.0000 </r>
       <r>   -29.0482     0.0000     4.0000 </r>
       <r>   -28.8909     0.0000     4.0000 </r>
       <r>   -28.7336     0.0000     4.0000 </r>
       <r>   -28.5764     0.0000     4.0000 </r>
       <r>   -28.4191     0.0000     4.0000 </r>
       <r>   -28.2618     0.0000     4.0000 </r>
       <r>   -28.1046     0.0000     4.0000 </r>
       <r>   -27.9473     0.0000     4.0000 </r>
       <r>   -27.7900     0.0000     4.0000 </r>
       <r>   -27.6328     0.0000     4.0000 </r>
       <r>   -27.4755     0.0000     4.0000 </r>
       <r>   -27.3182     0.0000     4.0000 </r>
       <r>   -27.1610     0.0000     4.0000 </r>
       <r>   -27.0037     0.0000     4.0000 </r>
       <r>   -26.8464     0.0000     4.0000 </r>
       <r>   -26.6892     0.0000     4.0000 </r>
       <r>   -26.5319     0.0000     4.0000 </r>
       <r>   -26.3746     0.0000     4.0000 </r>
       <r>   -26.2174     0.0000     4.0000 </r>
       <r>   -26.0601     0.0000     4.0000 </r>
       <r>   -25.9028     0.0000     4.0000 </r>
       <r>   -25.7456     0.0000     4.0000 </r>
       <r>   -25.5883     0.0000     4.0000 </r>
       <r>   -25.4310     0.0000     4.0000 </r>
       <r>   -25.2738     0.0000     4.0000 </r>
       <r>   -25.1165     0.0000     4.0000 </r>
       <r>   -24.9592     0.0000     4.0000 </r>
       <r>   -24.8020     0.0000     4.0000 </r>
       <r>   -24.6447     0.0000     4.0000 </r>
       <r>   -24.4874     0.0000     4.0000 </r>
       <r>   -24.3302     0.0000     4.0000 </r>
       <r>   -24.1729     0.0000     4.0000 </r>
       <r>   -24.0156     0.0000     4.0000 </r>
       <r>   -23.8583     0.0000     4.0000 </r>
       <r>   -23.7011     0.0000     4.0000 </r>
       <r>   -23.5438     0.0000     4.0000 </r>
       <r>   -23.3865     0.0000     4.0000 </r>
       <r>   -23.2293     0.0000     4.0000 </r>
       <r>   -23.0720     0.0000     4.0000 </r>
       <r>   -22.9147     0.0000     4.0000 </r>
       <r>   -22.7575     0.0000     4.0000 </r>
       <r>   -22.6002     0.0000     4.0000 </r>
       <r>   -22.4429     0.0000     4.0000 </r>
       <r>   -22.2857     0.0000     4.0000 </r>
       <r>   -22.1284     0.0000     4.0000 </r>
       <r>   -21.9711     0.0000     4.0000 </r>
       <r>   -21.8139     0.0000     4.0000 </r>
       <r>   -21.6566     0.0000     4.0000 </r>
       <r>   -21.4993     0.0000     4.0000 </r>
       <r>   -21.3421     0.0000     4.0000 </r>
       <r>   -21.1848     0.0000     4.0000 </r>
       <r>   -21.0275     0.0000     4.0000 </r>
       <r>   -20.8703     0.0000     4.0000 </r>
       <r>   -20.7130     0.0000     4.0000 </r>
       <r>   -20.5557     0.0000     4.0000 </r>
       <r>   -20.3985     0.0000     4.0000 </r>
       <r>   -20.2412     0.0000     4.0000 </r>
       <r>   -20.0839     0.0000     4.0000 </r>
       <r>   -19.9267     0.0000     4.0000 </r>
       <r>   -19.7694     0.0000     4.0000 </r>
       <r>   -19.6121     0.0000     4.0000 </r>
       <r>   -19.4549     0.0000     4.0000 </r>
       <r>   -19.2976     0.0000     4.0000 </r>
       <r>   -19.1403     0.0000     4.0000 </r>
       <r>   -18.9830     0.0000     4.0000 </r>
       <r>   -18.8258     0.0000     4.0000 </r>
       <r>   -18.6685     0.0000     4.0000 </r>
       <r>   -18.5112     0.0000     4.0000 </r>
       <r>   -18.3540     0.0000     4.0000 </r>
       <r>   -18.1967     0.0000     4.0000 </r>
       <r>   -18.0394     0.0000     4.0000 </r>
       <r>   -17.8822     0.0000     4.0000 </r>
       <r>   -17.7249     0.0000     4.0000 </r>
       <r>   -17.5676     0.0000     4.0000 </r>
       <r>   -17.4104     0.0000     4.0000 </r>
       <r>   -17.2531     0.0000     4.0000 </r>
       <r>   -17.0958     0.0000     4.0000 </r>
       <r>   -16.9386     0.0000     4.0000 </r>
       <r>   -16.7813     0.0000     4.0000 </r>
       <r>   -16.6240     0.0000     4.0000 </r>
       <r>   -16.4668     0.0000     4.0000 </r>
       <r>   -16.3095     0.0000     4.0000 </r>
       <r>   -16.1522     0.0000     4.0000 </r>
       <r>   -15.9950     0.0000     4.0000 </r>
       <r>   -15.8377     0.0000     4.0000 </r>
       <r>   -15.6804     0.0000     4.0000 </r>
       <r>   -15.5232     0.0000     4.0000 </r>
       <r>   -15.3659     0.0002     4.0000 </r>
       <r>   -15.2086     0.2952     4.0465 </r>
       <r>   -15.0514     1.8262     4.3337 </r>
       <r>   -14.8941     5.7730     5.2416 </r>
       <r>   -14.7368     9.5827     6.7486 </r>
       <r>   -14.5796     1.9750     7.0592 </r>
       <r>   -14.4223     7.4782     8.2353 </r>
       <r>   -14.2650     8.3722     9.5520 </r>
       <r>   -14.1078     9.7207    11.0807 </r>
       <r>   -13.9505     6.4882    12.1011 </r>
       <r>   -13.7932     5.9099    13.0305 </r>
       <r>   -13.6359     6.8699    14.1110 </r>
       <r>   -13.4787    10.8660    15.8198 </r>
       <r>   -13.3214     9.3645    17.2926 </r>
       <r>   -13.1641     4.4034    17.9851 </r>
       <r>   -13.0069     0.0949    18.0000 </r>
       <r>   -12.8496     0.0000    18.0000 </r>
       <r>   -12.6923     0.0285    18.0045 </r>
       <r>   -12.5351     6.0928    18.9627 </r>
       <r>   -12.3778    11.5717    20.7825 </r>
       <r>   -12.2205    10.3524    22.4106 </r>
       <r>   -12.0633     8.0231    23.6724 </r>
       <r>   -11.9060     2.0433    23.9938 </r>
       <r>   -11.7487     0.0396    24.0000 </r>
       <r>   -11.5915     0.0000    24.0000 </r>
       <r>   -11.4342     0.0000    24.0000 </r>
       <r>   -11.2769     0.0000    24.0000 </r>
       <r>   -11.1197     0.0000    24.0000 </r>
       <r>   -10.9624     0.0000    24.0000 </r>
       <r>   -10.8051     0.0000    24.0000 </r>
       <r>   -10.6479     0.0000    24.0000 </r>
       <r>   -10.4906     0.0000    24.0000 </r>
       <r>   -10.3333     0.0000    24.0000 </r>
       <r>   -10.1761     0.0000    24.0000 </r>
       <r>   -10.0188     0.0000    24.0000 </r>
       <r>    -9.8615     0.0000    24.0000 </r>
       <r>    -9.7043     0.0000    24.0000 </r>
       <r>    -9.5470     0.0000    24.0000 </r>
       <r>    -9.3897     0.0000    24.0000 </r>
       <r>    -9.2325     0.0000    24.0000 </r>
       <r>    -9.0752     0.0000    24.0000 </r>
       <r>    -8.9179     0.0000    24.0000 </r>
       <r>    -8.7606     0.0000    24.0000 </r>
       <r>    -8.6034     0.0000    24.0000 </r>
       <r>    -8.4461     0.0000    24.0000 </r>
       <r>    -8.2888     0.0000    24.0000 </r>
       <r>    -8.1316     0.0000    24.0000 </r>
       <r>    -7.9743     0.0000    24.0000 </r>
       <r>    -7.8170     0.0000    24.0000 </r>
       <r>    -7.6598     0.0000    24.0000 </r>
       <r>    -7.5025     0.0000    24.0000 </r>
       <r>    -7.3452     0.0000    24.0000 </r>
       <r>    -7.1880     0.0000    24.0000 </r>
       <r>    -7.0307     0.0000    24.0000 </r>
       <r>    -6.8734     0.0000    24.0000 </r>
       <r>    -6.7162     0.0000    24.0000 </r>
       <r>    -6.5589     0.0000    24.0000 </r>
       <r>    -6.4016     0.0000    24.0000 </r>
       <r>    -6.2444     0.0000    24.0000 </r>
       <r>    -6.0871     0.0000    24.0000 </r>
       <r>    -5.9298     0.0000    24.0000 </r>
       <r>    -5.7726     0.0000    24.0000 </r>
       <r>    -5.6153     0.0000    24.0000 </r>
       <r>    -5.4580     0.0000    24.0000 </r>
       <r>    -5.3008     0.0000    24.0000 </r>
       <r>    -5.1435     0.0000    24.0000 </r>
       <r>    -4.9862     0.0000    24.0000 </r>
       <r>    -4.8290     0.0000    24.0000 </r>
       <r>    -4.6717     0.0000    24.0000 </r>
       <r>    -4.5144     0.0000    24.0000 </r>
       <r>    -4.3572     0.0000    24.0000 </r>
       <r>    -4.1999     0.0000    24.0000 </r>
       <r>    -4.0426     0.0000    24.0000 </r>
       <r>    -3.8853     0.0000    24.0000 </r>
       <r>    -3.7281     0.0000    24.0000 </r>
       <r>    -3.5708     0.0000    24.0000 </r>
       <r>    -3.4135     0.0000    24.0000 </r>
       <r>    -3.2563     0.0000    24.0000 </r>
       <r>    -3.0990     0.0000    24.0000 </r>
       <r>    -2.9417     0.7280    24.1145 </r>
       <r>    -2.7845     4.1796    24.7718 </r>
       <r>    -2.6272     2.2705    25.1289 </r>
       <r>    -2.4699     3.1305    25.6212 </r>
       <r>    -2.3127     2.8813    26.0744 </r>
       <r>    -2.1554     3.6904    26.6547 </r>
       <r>    -1.9981     4.9188    27.4283 </r>
       <r>    -1.8409     5.5113    28.2951 </r>
       <r>    -1.6836    10.9013    30.0095 </r>
       <r>    -1.5263     9.9125    31.5684 </r>
       <r>    -1.3691    10.0632    33.1510 </r>
       <r>    -1.2118    13.6386    35.2959 </r>
       <r>    -1.0545    12.2722    37.2259 </r>
       <r>    -0.8973     9.1679    38.6678 </r>
       <r>    -0.7400     8.6963    40.0354 </r>
       <r>    -0.5827     2.6921    40.4588 </r>
       <r>    -0.4255    10.8697    42.1682 </r>
       <r>    -0.2682    14.9307    44.5163 </r>
       <r>    -0.1109    10.9466    46.2379 </r>
       <r>     0.0463     5.7240    47.1381 </r>
       <r>     0.2036     5.0851    47.9378 </r>
       <r>     0.3609     4.7204    48.6802 </r>
       <r>     0.5181     3.4032    49.2154 </r>
       <r>     0.6754     6.1394    50.1809 </r>
       <r>     0.8327     4.9942    50.9664 </r>
       <r>     0.9899     5.9589    51.9035 </r>
       <r>     1.1472     9.7137    53.4312 </r>
       <r>     1.3045    12.2517    55.3580 </r>
       <r>     1.4618    13.2425    57.4406 </r>
       <r>     1.6190     9.7711    58.9773 </r>
       <r>     1.7763     7.7877    60.2020 </r>
       <r>     1.9336     8.8460    61.5932 </r>
       <r>     2.0908     6.0985    62.5523 </r>
       <r>     2.2481     5.1885    63.3683 </r>
       <r>     2.4054     6.8854    64.4511 </r>
       <r>     2.5626     3.7597    65.0424 </r>
       <r>     2.7199     4.5235    65.7538 </r>
       <r>     2.8772     3.0823    66.2385 </r>
       <r>     3.0344     1.3613    66.4526 </r>
       <r>     3.1917     1.9664    66.7619 </r>
       <r>     3.3490     1.0792    66.9316 </r>
       <r>     3.5062     1.2448    67.1274 </r>
       <r>     3.6635     3.9994    67.7564 </r>
       <r>     3.8208     3.0140    68.2304 </r>
       <r>     3.9780     1.0989    68.4032 </r>
       <r>     4.1353     1.5122    68.6410 </r>
       <r>     4.2926     0.7787    68.7635 </r>
       <r>     4.4498     2.2183    69.1123 </r>
       <r>     4.6071     2.4126    69.4918 </r>
       <r>     4.7644     1.1743    69.6764 </r>
       <r>     4.9216     1.0075    69.8349 </r>
       <r>     5.0789     2.6212    70.2471 </r>
       <r>     5.2362     0.7178    70.3600 </r>
       <r>     5.3934     0.3677    70.4178 </r>
       <r>     5.5507     4.4166    71.1124 </r>
       <r>     5.7080     0.3163    71.1622 </r>
       <r>     5.8652     1.2336    71.3562 </r>
       <r>     6.0225     2.0633    71.6806 </r>
       <r>     6.1798     1.4605    71.9103 </r>
       <r>     6.3371     0.0690    71.9212 </r>
       <r>     6.4943     0.5625    72.0096 </r>
       <r>     6.6516     0.8547    72.1441 </r>
       <r>     6.8089     1.8071    72.4282 </r>
       <r>     6.9661     2.1879    72.7723 </r>
       <r>     7.1234     1.8371    73.0613 </r>
       <r>     7.2807     2.0555    73.3845 </r>
       <r>     7.4379     3.5746    73.9467 </r>
       <r>     7.5952     3.3186    74.4686 </r>
       <r>     7.7525     4.6144    75.1943 </r>
       <r>     7.9097     3.2816    75.7104 </r>
       <r>     8.0670     3.1641    76.2080 </r>
       <r>     8.2243     3.0506    76.6878 </r>
       <r>     8.3815     5.2512    77.5136 </r>
       <r>     8.5388     6.4534    78.5285 </r>
       <r>     8.6961     4.7237    79.2714 </r>
       <r>     8.8533     3.4595    79.8155 </r>
       <r>     9.0106     4.6682    80.5496 </r>
       <r>     9.1679     2.9635    81.0157 </r>
       <r>     9.3251     3.8034    81.6138 </r>
       <r>     9.4824     3.7524    82.2040 </r>
       <r>     9.6397     3.1134    82.6936 </r>
       <r>     9.7969     4.1908    83.3527 </r>
       <r>     9.9542     8.1777    84.6388 </r>
       <r>    10.1115     5.3543    85.4808 </r>
       <r>    10.2687     6.6517    86.5269 </r>
       <r>    10.4260     3.4141    87.0638 </r>
       <r>    10.5833     5.1059    87.8668 </r>
       <r>    10.7405     0.8456    87.9998 </r>
       <r>    10.8978     0.0012    88.0000 </r>
       <r>    11.0551     0.0000    88.0000 </r>
       <r>    11.2123     0.0000    88.0000 </r>
       <r>    11.3696     0.0000    88.0000 </r>
       <r>    11.5269     0.0000    88.0000 </r>
       <r>    11.6842     0.0000    88.0000 </r>
       <r>    11.8414     0.0000    88.0000 </r>
       <r>    11.9987     0.0000    88.0000 </r>
       <r>    12.1560     0.0000    88.0000 </r>
       <r>    12.3132     0.0000    88.0000 </r>
       <r>    12.4705     0.0000    88.0000 </r>
       <r>    12.6278     0.0000    88.0000 </r>
       <r>    12.7850     0.0000    88.0000 </r>
      </set>
     </set>
    </array>
   </total>
  </dos>
 </calculation>
 <structure name="finalpos" >
  <crystal>
   <varray name="basis" >
    <v>       4.00000000       0.00000000       0.00000000 </v>
    <v>       0.00000000       4.00000000       0.00000000 </v>
    <v>       0.00000000       0.00000000      16.00000000 </v>
   </varray>
   <i name="volume">    256.00000000 </i>
   <varray name="rec_basis" >
    <v>       0.25000000       0.00000000       0.00000000 </v>
    <v>       0.00000000       0.25000000       0.00000000 </v>
    <v>       0.00000000       0.00000000       0.06250000 </v>
   </varray>
  </crystal>
  <varray name="positions" >
   <v>       0.00000000       0.00000000       0.87500000 </v>
   <v>       0.00000000       0.00000000       0.12500000 </v>
   <v>       0.00000000       0.00000000       0.37500000 </v>
   <v>       0.00000000       0.00000000       0.62500000 </v>
   <v>       0.50000000       0.50000000       0.00000000 </v>
   <v>       0.50000000       0.50000000       0.25000000 </v>
   <v>       0.50000000       0.50000000       0.50000000 </v>
   <v>       0.50000000       0.50000000       0.75000000 </v>
   <v>       0.50000000       0.50000000       0.37500000 </v>
   <v>       0.50000000       0.50000000       0.62500000 </v>
   <v>       0.00000000       0.50000000       0.00000000 </v>
   <v>       0.00000000       0.50000000       0.50000000 </v>
   <v>       0.50000000       0.00000000       0.00000000 </v>
   <v>       0.50000000       0.00000000       0.25000000 </v>
   <v>       0.50000000       0.00000000       0.50000000 </v>
   <v>       0.50000000       0.00000000       0.75000000 </v>
  </varray>
 </structure>
</modeling>
