<?xml version="1.0" encoding="ISO-8859-1"?>
<modeling>
 <generator>
  <i name="program" type="string">vasp </i>
  <i name="version" type="string">5.3.5  </i>
  <i name="subversion" type="string">31Mar14 (build Jun 20 2014 13:15:13) complex                          parallel </i>
  <i name="platform" type="string">LinuxIFC </i>
  <i name="date" type="string">2025 12 16 </i>
  <i name="time" type="string">16:15:11 </i>
 </generator>
 <incar>
  <i type="string" name="PREC">accurate</i>
  <i type="int" name="IALGO">    68</i>
  <i type="logical" name="ADDGRID"> T  </i>
  <i type="int" name="NELM">   100</i>
  <i type="int" name="NELMIN">     4</i>
  <i type="int" name="IBRION">     2</i>
  <i name="EDIFF">      0.00000100</i>
  <i name="EDIFFG">     -0.02000000</i>
  <i type="int" name="NSW">    30</i>
  <i type="int" name="ISIF">     3</i>
  <i name="ENCUT">    600.00000000</i>
  <i type="logical" name="LREAL"> F  </i>
  <i type="int" name="ISMEAR">     0</i>
  <i name="SIGMA">      0.10000000</i>
  <i type="logical" name="LWAVE"> F  </i>
  <i type="logical" name="LCHARG"> F  </i>
  <i type="int" name="NELM">   100</i>
 </incar>
 <kpoints>
  <generation param="Auto">
   <i name="subdivisionlength">     20.00000000 </i>
   <v type="int" name="divisions">       1        6        4 </v>
   <v name="usershift">      0.00000000       0.00000000       0.00000000 </v>
   <v name="genvec1">      1.00000000       0.00000000       0.00000000 </v>
   <v name="genvec2">      0.00000000       0.16666667       0.00000000 </v>
   <v name="genvec3">      0.00000000       0.00000000       0.25000000 </v>
   <v name="shift">      0.00000000       0.00000000       0.00000000 </v>
  </generation>
  <varray name="kpointlist" >
   <v>       0.00000000       0.00000000       0.00000000 </v>
   <v>       0.00000000       0.16666667       0.00000000 </v>
   <v>       0.00000000       0.33333333       0.00000000 </v>
   <v>       0.00000000       0.50000000       0.00000000 </v>
   <v>       0.00000000       0.00000000       0.25000000 </v>
   <v>       0.00000000       0.16666667       0.25000000 </v>
   <v>       0.00000000       0.33333333       0.25000000 </v>
   <v>       0.00000000       0.50000000       0.25000000 </v>
   <v>       0.00000000       0.00000000       0.50000000 </v>
   <v>       0.00000000       0.16666667       0.50000000 </v>
   <v>       0.00000000       0.33333333       0.50000000 </v>
   <v>       0.00000000       0.50000000       0.50000000 </v>
  </varray>
  <varray name="weights" >
   <v>       0.04166667 </v>
   <v>       0.08333333 </v>
   <v>       0.08333333 </v>
   <v>       0.04166667 </v>
   <v>       0.08333333 </v>
   <v>       0.16666667 </v>
   <v>       0.16666667 </v>
   <v>       0.08333333 </v>
   <v>       0.04166667 </v>
   <v>       0.08333333 </v>
   <v>       0.08333333 </v>
   <v>       0.04166667 </v>
  </varray>
 </kpoints>
 <parameters>
  <separator name="general" >
   <i type="string" name="SYSTEM">unknown system</i>
   <i type="logical" name="LCOMPAT"> F  </i>
  </separator>
  <separator name="electronic" >
   <i type="string" name="PREC">accura</i>
   <i name="ENMAX">    600.00000000</i>
   <i name="ENAUG">    644.87300000</i>
   <i name="EDIFF">      0.00000100</i>
   <i type="int" name="IALGO">    68</i>
   <i type="int" name="IWAVPR">    11</i>
   <i type="int" name="NBANDS">    64</i>
   <i name="NELECT">     96.00000000</i>
   <i type="int" name="TURBO">     0</i>
   <i type="int" name="IRESTART">     0</i>
   <i type="int" name="NREBOOT">     0</i>
   <i type="int" name="NMIN">     0</i>
   <i name="EREF">      0.00000000</i>
   <separator name="electronic smearing" >
    <i type="int" name="ISMEAR">     0</i>
    <i name="SIGMA">      0.10000000</i>
    <i name="KSPACING">      0.50000000</i>
    <i type="logical" name="KGAMMA"> T  </i>
   </separator>
   <separator name="electronic projectors" >
    <i type="logical" name="LREAL"> F  </i>
    <v name="ROPT">      0.00000000      0.00000000      0.00000000      0.00000000</v>
    <i type="int" name="LMAXPAW">  -100</i>
    <i type="int" name="LMAXMIX">     2</i>
    <i type="logical" name="NLSPLINE"> F  </i>
   </separator>
   <separator name="electronic startup" >
    <i type="int" name="ISTART">     0</i>
    <i type="int" name="ICHARG">     2</i>
    <i type="int" name="INIWAV">     1</i>
   </separator>
   <separator name="electronic spin" >
    <i type="int" name="ISPIN">     1</i>
    <i type="logical" name="LNONCOLLINEAR"> F  </i>
    <v name="MAGMOM">      1.00000000      1.00000000      1.00000000      1.00000000      1.00000000      1.00000000      1.00000000      1.00000000      1.00000000      1.00000000      1.00000000      1.00000000      1.00000000      1.00000000      1.00000000      1.00000000      1.00000000      1.00000000      1.00000000      1.00000000
      1.00000000      1.00000000      1.00000000      1.00000000</v>
    <i name="NUPDOWN">     -1.00000000</i>
    <i type="logical" name="LSORBIT"> F  </i>
    <v name="SAXIS">      0.00000000      0.00000000      1.00000000</v>
    <i type="logical" name="LSPIRAL"> F  </i>
    <v name="QSPIRAL">      0.00000000      0.00000000      0.00000000</v>
    <i type="logical" name="LZEROZ"> F  </i>
   </separator>
   <separator name="electronic exchange-correlation" >
    <i type="logical" name="LASPH"> F  </i>
    <i type="logical" name="LMETAGGA"> F  </i>
   </separator>
   <separator name="electronic convergence" >
    <i type="int" name="NELM">   100</i>
    <i type="int" name="NELMDL">     0</i>
    <i type="int" name="NELMIN">     4</i>
    <i name="ENINI">    600.00000000</i>
    <separator name="electronic convergence detail" >
     <i type="logical" name="LDIAG"> T  </i>
     <i type="logical" name="LSUBROT"> F  </i>
     <i name="WEIMIN">      0.00100000</i>
     <i name="EBREAK">      0.00000000</i>
     <i name="DEPER">      0.30000000</i>
     <i type="int" name="NRMM">     4</i>
     <i name="TIME">      0.40000000</i>
    </separator>
   </separator>
   <separator name="electronic mixer" >
    <i name="AMIX">      0.40000000</i>
    <i name="BMIX">      1.00000000</i>
    <i name="AMIN">      0.10000000</i>
    <i name="AMIX_MAG">      1.60000000</i>
    <i name="BMIX_MAG">      1.00000000</i>
    <separator name="electronic mixer details" >
     <i type="int" name="IMIX">     4</i>
     <i type="int" name="MAXMIX">   -45</i>
     <i name="WC">    100.00000000</i>
     <i type="int" name="INIMIX">     1</i>
     <i type="int" name="MIXPRE">     1</i>
     <i type="int" name="MREMOVE">     5</i>
    </separator>
   </separator>
   <separator name="electronic dipolcorrection" >
    <i type="logical" name="LDIPOL"> F  </i>
    <i type="logical" name="LMONO"> F  </i>
    <i type="int" name="IDIPOL">     0</i>
    <i name="EPSILON">      1.00000000</i>
    <v name="DIPOL">   -100.00000000   -100.00000000   -100.00000000</v>
    <i name="EFIELD">      0.00000000</i>
   </separator>
  </separator>
  <separator name="grids" >
   <i type="int" name="NGX">   140</i>
   <i type="int" name="NGY">    28</i>
   <i type="int" name="NGZ">    42</i>
   <i type="int" name="NGXF">   280</i>
   <i type="int" name="NGYF">    56</i>
   <i type="int" name="NGZF">    84</i>
   <i type="logical" name="ADDGRID"> T  </i>
  </separator>
  <separator name="ionic" >
   <i type="int" name="NSW">    30</i>
   <i type="int" name="IBRION">     2</i>
   <i type="int" name="ISIF">     3</i>
   <i name="PSTRESS">      0.00000000</i>
   <i name="EDIFFG">     -0.02000000</i>
   <i type="int" name="NFREE">     1</i>
   <i name="POTIM">      0.50000000</i>
   <i name="SMASS">     -3.00000000</i>
   <i name="SCALEE">      1.00000000</i>
  </separator>
  <separator name="ionic md" >
   <i name="TEBEG">      0.00010000</i>
   <i name="TEEND">      0.00010000</i>
   <i type="int" name="NBLOCK">     1</i>
   <i type="int" name="KBLOCK">    30</i>
   <i type="int" name="NPACO">   256</i>
   <i name="APACO">     16.00000000</i>
  </separator>
  <separator name="symmetry" >
   <i type="int" name="ISYM">     2</i>
   <i name="SYMPREC">      0.00001000</i>
  </separator>
  <separator name="dos" >
   <i type="logical" name="LORBIT"> F  </i>
   <v name="RWIGS">     -1.00000000     -1.00000000     -1.00000000     -1.00000000</v>
   <i type="int" name="NEDOS">   301</i>
   <i name="EMIN">     10.00000000</i>
   <i name="EMAX">    -10.00000000</i>
   <i name="EFERMI">      0.00000000</i>
  </separator>
  <separator name="writing" >
   <i type="int" name="NWRITE">     2</i>
   <i type="logical" name="LWAVE"> F  </i>
   <i type="logical" name="LCHARG"> F  </i>
   <i type="logical" name="LPARD"> F  </i>
   <i type="logical" name="LVTOT"> F  </i>
   <i type="logical" name="LVHAR"> F  </i>
   <i type="logical" name="LELF"> F  </i>
   <i type="logical" name="LOPTICS"> F  </i>
   <v name="STM">      0.00000000      0.00000000      0.00000000      0.00000000      0.00000000      0.00000000      0.00000000</v>
  </separator>
  <separator name="performance" >
   <i type="int" name="NPAR">     4</i>
   <i type="int" name="NSIM">     4</i>
   <i type="int" name="NBLK">    -1</i>
   <i type="logical" name="LPLANE"> T  </i>
   <i type="logical" name="LSCALAPACK"> T  </i>
   <i type="logical" name="LSCAAWARE"> F  </i>
   <i type="logical" name="LSCALU"> F  </i>
   <i type="logical" name="LASYNC"> F  </i>
   <i type="logical" name="LORBITALREAL"> F  </i>
  </separator>
  <separator name="miscellaneous" >
   <i type="int" name="IDIOT">     3</i>
   <i type="logical" name="LMUSIC"> F  </i>
   <v name="POMASS">     28.08500000     26.98100000     12.01100000     14.00100000</v>
   <v name="DARWINR">      0.00000000      0.00000000      0.00000000      0.00000000</v>
   <v name="DARWINV">      1.00000000      1.00000000      1.00000000      1.00000000</v>
   <i type="logical" name="LCORR"> T  </i>
  </separator>
  <i type="logical" name="GGA_COMPAT"> T  </i>
  <i type="logical" name="LBERRY"> F  </i>
  <i type="int" name="ICORELEVEL">     0</i>
  <i type="logical" name="LDAU"> F  </i>
  <i type="int" name="I_CONSTRAINED_M">     0</i>
  <separator name="electronic exchange-correlation" >
   <i type="string" name="GGA">--</i>
   <i type="int" name="VOSKOWN">     0</i>
   <i type="logical" name="LHFCALC"> F  </i>
   <i type="string" name="PRECFOCK"></i>
   <i type="logical" name="LSYMGRAD"> F  </i>
   <i type="logical" name="LHFONE"> F  </i>
   <i type="logical" name="LRHFCALC"> F  </i>
   <i type="logical" name="LTHOMAS"> F  </i>
   <i type="logical" name="LMODELHF"> F  </i>
   <i name="ENCUT4O">     -1.00000000</i>
   <i type="int" name="EXXOEP">     0</i>
   <i type="int" name="FOURORBIT">     0</i>
   <i name="AEXX">      0.00000000</i>
   <i name="HFALPHA">      0.00000000</i>
   <i name="MCALPHA">      0.00000000</i>
   <i name="ALDAX">      1.00000000</i>
   <i name="AGGAX">      1.00000000</i>
   <i name="ALDAC">      1.00000000</i>
   <i name="AGGAC">      1.00000000</i>
   <i type="int" name="NKREDX">     1</i>
   <i type="int" name="NKREDY">     1</i>
   <i type="int" name="NKREDZ">     1</i>
   <i type="logical" name="SHIFTRED"> F  </i>
   <i type="logical" name="ODDONLY"> F  </i>
   <i type="logical" name="EVENONLY"> F  </i>
   <i type="int" name="LMAXFOCK">     0</i>
   <i type="int" name="NMAXFOCKAE">     0</i>
   <i type="logical" name="LFOCKAEDFT"> F  </i>
   <i name="HFSCREEN">      0.00000000</i>
   <i name="HFSCREENC">      0.00000000</i>
   <i type="int" name="NBANDSGWLOW">     0</i>
  </separator>
  <separator name="vdW DFT" >
   <i type="logical" name="LUSE_VDW"> F  </i>
   <i name="Zab_VDW">     -0.84910000</i>
   <i name="PARAM1">      0.12340000</i>
   <i name="PARAM2">      1.00000000</i>
   <i name="PARAM3">      0.00000000</i>
  </separator>
  <separator name="model GW" >
   <i type="int" name="MODEL_GW">     0</i>
   <i name="MODEL_EPS0">      6.40888667</i>
   <i name="MODEL_ALPHA">      1.00000000</i>
  </separator>
  <separator name="linear response parameters" >
   <i type="logical" name="LEPSILON"> F  </i>
   <i type="logical" name="LRPA"> F  </i>
   <i type="logical" name="LNABLA"> F  </i>
   <i type="logical" name="LVEL"> F  </i>
   <i type="int" name="KINTER">     0</i>
   <i name="CSHIFT">      0.10000000</i>
   <i name="OMEGAMAX">     -1.00000000</i>
   <i name="DEG_THRESHOLD">      0.00200000</i>
  </separator>
  <separator name="orbital magnetization" >
   <i type="logical" name="NUCIND"> F  </i>
   <v name="MAGPOS">      0.00000000      0.00000000      0.00000000</v>
   <i type="logical" name="LNICSALL"> T  </i>
   <i type="logical" name="ORBITALMAG"> F  </i>
   <i type="logical" name="LMAGBLOCH"> F  </i>
   <i type="logical" name="LCHIMAG"> F  </i>
   <i type="logical" name="LGAUGE"> T  </i>
   <i type="int" name="MAGATOM">     0</i>
   <v name="MAGDIPOL">      0.00000000      0.00000000      0.00000000</v>
   <v name="AVECCONST">      0.00000000      0.00000000      0.00000000</v>
  </separator>
  <separator name="response functions" >
   <i type="logical" name="LADDER"> F  </i>
   <i type="logical" name="LFXC"> F  </i>
   <i type="logical" name="LHARTREE"> T  </i>
   <i type="int" name="IBSE">     0</i>
   <i type="logical" name="LTCTE"> F  </i>
   <i type="logical" name="LTETE"> F  </i>
   <i type="logical" name="LTRIPLET"> F  </i>
   <i type="logical" name="LFXCEPS"> F  </i>
   <i type="logical" name="LFXHEG"> F  </i>
   <i type="logical" name="L2ORDER"> F  </i>
   <i type="logical" name="LUSEW"> F  </i>
   <i name="ENCUTGW">     -2.00000000</i>
   <i name="ENCUTGWSOFT">     -2.00000000</i>
   <i name="ENCUTLF">     -1.00000000</i>
   <i type="int" name="LMAXMP2">    -1</i>
   <i name="SCISSOR">      0.00000000</i>
   <i type="int" name="NOMEGA">     0</i>
   <i type="int" name="NOMEGAR">     0</i>
   <i type="int" name="NBANDSGW">    -1</i>
   <i type="int" name="NBANDSO">    -1</i>
   <i type="int" name="NBANDSV">    -1</i>
   <i type="int" name="NELM">   100</i>
   <i type="int" name="DIM">     3</i>
   <i type="int" name="ANTIRES">     0</i>
   <i name="OMEGAMAX">    -30.00000000</i>
   <i name="OMEGAMIN">    -30.00000000</i>
   <i name="OMEGATL">   -200.00000000</i>
   <i type="int" name="OMEGAGRID">     0</i>
   <i name="CSHIFT">     -0.10000000</i>
   <i type="logical" name="SELFENERGY"> F  </i>
   <i type="logical" name="LSPECTRAL"> F  </i>
   <i type="logical" name="ODDONLYGW"> F  </i>
   <i type="logical" name="EVENONLYGW"> F  </i>
   <i type="int" name="NKREDLFX">     1</i>
   <i type="int" name="NKREDLFY">     1</i>
   <i type="int" name="NKREDLFZ">     1</i>
   <i type="int" name="MAXMEM">  1800</i>
   <i type="int" name="TELESCOPE">     0</i>
   <i type="int" name="TAUPAR">     1</i>
  </separator>
  <separator name="External order field" >
   <i name="OFIELD_KAPPA">      0.00000000</i>
   <v name="OFIELD_K">      0.00000000      0.00000000      0.00000000</v>
   <i name="OFIELD_Q6_NEAR">      0.00000000</i>
   <i name="OFIELD_Q6_FAR">      0.00000000</i>
   <i name="OFIELD_A">      0.00000000</i>
  </separator>
 </parameters>
 <atominfo>
  <atoms>      24 </atoms>
  <types>       4 </types>
  <array name="atoms" >
   <dimension dim="1">ion</dimension>
   <field type="string">element</field>
   <field type="int">atomtype</field>
   <set>
    <rc><c>Si</c><c>   1</c></rc>
    <rc><c>Si</c><c>   1</c></rc>
    <rc><c>Si</c><c>   1</c></rc>
    <rc><c>Si</c><c>   1</c></rc>
    <rc><c>Si</c><c>   1</c></rc>
    <rc><c>Si</c><c>   1</c></rc>
    <rc><c>Al</c><c>   2</c></rc>
    <rc><c>Al</c><c>   2</c></rc>
    <rc><c>Al</c><c>   2</c></rc>
    <rc><c>Al</c><c>   2</c></rc>
    <rc><c>Al</c><c>   2</c></rc>
    <rc><c>Al</c><c>   2</c></rc>
    <rc><c>C </c><c>   3</c></rc>
    <rc><c>C </c><c>   3</c></rc>
    <rc><c>C </c><c>   3</c></rc>
    <rc><c>C </c><c>   3</c></rc>
    <rc><c>C </c><c>   3</c></rc>
    <rc><c>C </c><c>   3</c></rc>
    <rc><c>N </c><c>   4</c></rc>
    <rc><c>N </c><c>   4</c></rc>
    <rc><c>N </c><c>   4</c></rc>
    <rc><c>N </c><c>   4</c></rc>
    <rc><c>N </c><c>   4</c></rc>
    <rc><c>N </c><c>   4</c></rc>
   </set>
  </array>
  <array name="atomtypes" >
   <dimension dim="1">type</dimension>
   <field type="int">atomspertype</field>
   <field type="string">element</field>
   <field>mass</field>
   <field>valence</field>
   <field type="string">pseudopotential</field>
   <set>
    <rc><c>   6</c><c>Si</c><c>     28.08500000</c><c>      4.00000000</c><c>  PAW_PBE Si 05Jan2001                  </c></rc>
    <rc><c>   6</c><c>Al</c><c>     26.98100000</c><c>      3.00000000</c><c>  PAW_PBE Al 04Jan2001                  </c></rc>
    <rc><c>   6</c><c>C </c><c>     12.01100000</c><c>      4.00000000</c><c>  PAW_PBE C 08Apr2002                   </c></rc>
    <rc><c>   6</c><c>N </c><c>     14.00100000</c><c>      5.00000000</c><c>  PAW_PBE N_s 07Sep2000                 </c></rc>
   </set>
  </array>
 </atominfo>
 <structure name="initialpos" >
  <crystal>
   <varray name="basis" >
    <v>      16.16805053       0.00000000       0.03044617 </v>
    <v>       0.00000000       3.11450468       0.00000000 </v>
    <v>       0.00953685       0.00000000       5.09093404 </v>
   </varray>
   <i name="volume">    256.35546699 </i>
   <varray name="rec_basis" >
    <v>       0.06185059       0.00000000      -0.00011586 </v>
    <v>       0.00000000       0.32107834       0.00000000 </v>
    <v>      -0.00036990       0.00000000       0.19642830 </v>
   </varray>
  </crystal>
  <varray name="positions" >
   <v>       0.44662751       0.00000000       0.48960737 </v>
   <v>       0.27291967       0.50000000       0.48598527 </v>
   <v>       0.11180638       0.00000000       0.49562332 </v>
   <v>       0.94662751       0.50000000       0.48960737 </v>
   <v>       0.77291967       0.00000000       0.48598527 </v>
   <v>       0.61180638       0.50000000       0.49562332 </v>
   <v>       0.38749814       0.50000000       0.00841378 </v>
   <v>       0.22265720       0.00000000       0.00903718 </v>
   <v>       0.05774817       0.50000000       0.01018893 </v>
   <v>       0.88749814       0.00000000       0.00841378 </v>
   <v>       0.72265720       0.50000000       0.00903718 </v>
   <v>       0.55774817       0.00000000       0.01018893 </v>
   <v>       0.22160894       0.00000000       0.61461571 </v>
   <v>       0.05417713       0.50000000       0.61253867 </v>
   <v>       0.27863325       0.50000000       0.13457712 </v>
   <v>       0.72160894       0.50000000       0.61461571 </v>
   <v>       0.55417713       0.00000000       0.61253867 </v>
   <v>       0.77863325       0.00000000       0.13457712 </v>
   <v>       0.39203012       0.50000000       0.60947276 </v>
   <v>       0.44593593       0.00000000       0.13881044 </v>
   <v>       0.10835755       0.00000000       0.14112946 </v>
   <v>       0.89203012       0.00000000       0.60947276 </v>
   <v>       0.94593593       0.50000000       0.13881044 </v>
   <v>       0.60835755       0.50000000       0.14112946 </v>
  </varray>
 </structure>
 <calculation>
  <scstep>
   <time name="dav">    0.61    0.61</time>
   <time name="total">    0.68    0.70</time>
   <energy>
    <i name="alphaZ">     95.46252658 </i>
    <i name="ewald">  -3404.32681015 </i>
    <i name="hartreedc">   -536.42723799 </i>
    <i name="XCdc">     -8.52378895 </i>
    <i name="pawpsdc">   2806.70641217 </i>
    <i name="pawaedc">  -2519.94783863 </i>
    <i name="eentropy">     -0.01874935 </i>
    <i name="bandstr">    672.29958314 </i>
    <i name="atom">   3409.81467736 </i>
    <i name="e_fr_energy">    515.03877417 </i>
    <i name="e_wo_entrp">    515.05752353 </i>
    <i name="e_0_energy">    515.04814885 </i>
   </energy>
  </scstep>
  <scstep>
   <time name="dav">    0.71    0.71</time>
   <time name="total">    0.71    0.72</time>
   <energy>
    <i name="e_fr_energy">   -145.42951986 </i>
    <i name="e_wo_entrp">   -145.42951986 </i>
    <i name="e_0_energy">   -145.42951986 </i>
   </energy>
  </scstep>
  <scstep>
   <time name="dav">    0.72    0.73</time>
   <time name="total">    0.73    0.74</time>
   <energy>
    <i name="e_fr_energy">   -201.24044985 </i>
    <i name="e_wo_entrp">   -201.24044985 </i>
    <i name="e_0_energy">   -201.24044985 </i>
   </energy>
  </scstep>
  <scstep>
   <time name="dav">    0.70    0.70</time>
   <time name="total">    0.70    0.71</time>
   <energy>
    <i name="e_fr_energy">   -202.80357640 </i>
    <i name="e_wo_entrp">   -202.80357640 </i>
    <i name="e_0_energy">   -202.80357640 </i>
   </energy>
  </scstep>
  <scstep>
   <time name="dav">    0.69    0.69</time>
   <time name="total">    0.80    0.81</time>
   <energy>
    <i name="e_fr_energy">   -202.85662561 </i>
    <i name="e_wo_entrp">   -202.85662561 </i>
    <i name="e_0_energy">   -202.85662561 </i>
   </energy>
  </scstep>
  <scstep>
   <time name="diag">    0.13    0.13</time>
   <time name="diis">    0.49    0.49</time>
   <time name="orth">    0.02    0.02</time>
   <time name="total">    0.81    0.82</time>
   <energy>
    <i name="e_fr_energy">   -175.75969301 </i>
    <i name="e_wo_entrp">   -175.75969301 </i>
    <i name="e_0_energy">   -175.75969301 </i>
   </energy>
  </scstep>
  <scstep>
   <time name="diag">    0.13    0.13</time>
   <time name="diis">    0.49    0.49</time>
   <time name="orth">    0.02    0.02</time>
   <time name="total">    0.81    0.82</time>
   <energy>
    <i name="e_fr_energy">   -175.57902457 </i>
    <i name="e_wo_entrp">   -175.57902457 </i>
    <i name="e_0_energy">   -175.57902457 </i>
   </energy>
  </scstep>
  <scstep>
   <time name="diag">    0.13    0.13</time>
   <time name="diis">    0.49    0.49</time>
   <time name="orth">    0.02    0.02</time>
   <time name="total">    0.81    0.82</time>
   <energy>
    <i name="e_fr_energy">   -176.76370567 </i>
    <i name="e_wo_entrp">   -176.76370567 </i>
    <i name="e_0_energy">   -176.76370567 </i>
   </energy>
  </scstep>
  <scstep>
   <time name="diag">    0.13    0.13</time>
   <time name="diis">    0.49    0.49</time>
   <time name="orth">    0.02    0.02</time>
   <time name="total">    0.81    0.82</time>
   <energy>
    <i name="e_fr_energy">   -175.36073765 </i>
    <i name="e_wo_entrp">   -175.36073765 </i>
    <i name="e_0_energy">   -175.36073765 </i>
   </energy>
  </scstep>
  <scstep>
   <time name="diag">    0.13    0.13</time>
   <time name="diis">    0.49    0.49</time>
   <time name="orth">    0.02    0.02</time>
   <time name="total">    0.81    0.83</time>
   <energy>
    <i name="e_fr_energy">   -175.33655874 </i>
    <i name="e_wo_entrp">   -175.33655874 </i>
    <i name="e_0_energy">   -175.33655874 </i>
   </energy>
  </scstep>
  <scstep>
   <time name="diag">    0.13    0.13</time>
   <time name="diis">    0.48    0.48</time>
   <time name="orth">    0.02    0.02</time>
   <time name="total">    0.80    0.81</time>
   <energy>
    <i name="e_fr_energy">   -175.34568039 </i>
    <i name="e_wo_entrp">   -175.34568039 </i>
    <i name="e_0_energy">   -175.34568039 </i>
   </energy>
  </scstep>
  <scstep>
   <time name="diag">    0.13    0.13</time>
   <time name="diis">    0.47    0.47</time>
   <time name="orth">    0.02    0.02</time>
   <time name="total">    0.79    0.80</time>
   <energy>
    <i name="e_fr_energy">   -175.34250976 </i>
    <i name="e_wo_entrp">   -175.34250976 </i>
    <i name="e_0_energy">   -175.34250976 </i>
   </energy>
  </scstep>
  <scstep>
   <time name="diag">    0.13    0.13</time>
   <time name="diis">    0.47    0.47</time>
   <time name="orth">    0.02    0.02</time>
   <time name="total">    0.79    0.80</time>
   <energy>
    <i name="e_fr_energy">   -175.34225881 </i>
    <i name="e_wo_entrp">   -175.34225881 </i>
    <i name="e_0_energy">   -175.34225881 </i>
   </energy>
  </scstep>
  <scstep>
   <time name="diag">    0.13    0.13</time>
   <time name="diis">    0.48    0.48</time>
   <time name="orth">    0.02    0.02</time>
   <time name="total">    0.80    0.82</time>
   <energy>
    <i name="e_fr_energy">   -175.34226591 </i>
    <i name="e_wo_entrp">   -175.34226591 </i>
    <i name="e_0_energy">   -175.34226591 </i>
   </energy>
  </scstep>
  <scstep>
   <time name="diag">    0.13    0.13</time>
   <time name="diis">    0.47    0.47</time>
   <time name="orth">    0.02    0.02</time>
   <time name="total">    0.80    0.81</time>
   <energy>
    <i name="e_fr_energy">   -175.34225428 </i>
    <i name="e_wo_entrp">   -175.34225428 </i>
    <i name="e_0_energy">   -175.34225428 </i>
   </energy>
  </scstep>
  <scstep>
   <time name="diag">    0.13    0.13</time>
   <time name="diis">    0.46    0.46</time>
   <time name="orth">    0.02    0.02</time>
   <time name="total">    0.78    0.79</time>
   <energy>
    <i name="e_fr_energy">   -175.34225405 </i>
    <i name="e_wo_entrp">   -175.34225405 </i>
    <i name="e_0_energy">   -175.34225405 </i>
   </energy>
  </scstep>
  <scstep>
   <time name="diag">    0.13    0.13</time>
   <time name="diis">    0.32    0.32</time>
   <time name="orth">    0.02    0.02</time>
   <time name="total">    0.53    0.54</time>
   <energy>
    <i name="alphaZ">     95.46252658 </i>
    <i name="ewald">  -3404.32681015 </i>
    <i name="hartreedc">   -700.13390303 </i>
    <i name="XCdc">      5.93900405 </i>
    <i name="pawpsdc">  15079.95805425 </i>
    <i name="pawaedc"> -14799.52609557 </i>
    <i name="eentropy">      0.00000000 </i>
    <i name="bandstr">    137.47029248 </i>
    <i name="atom">   3409.81467736 </i>
    <i name="e_fr_energy">   -175.34225403 </i>
    <i name="e_wo_entrp">   -175.34225403 </i>
    <i name="e_0_energy">   -175.34225403 </i>
   </energy>
  </scstep>
  <structure>
   <crystal>
    <varray name="basis" >
     <v>      16.16805053       0.00000000       0.03044617 </v>
     <v>       0.00000000       3.11450468       0.00000000 </v>
     <v>       0.00953685       0.00000000       5.09093404 </v>
    </varray>
    <i name="volume">    256.35546699 </i>
    <varray name="rec_basis" >
     <v>       0.06185059       0.00000000      -0.00011586 </v>
     <v>       0.00000000       0.32107834       0.00000000 </v>
     <v>      -0.00036990       0.00000000       0.19642830 </v>
    </varray>
   </crystal>
   <varray name="positions" >
    <v>       0.44662751       0.00000000       0.48960737 </v>
    <v>       0.27291967       0.50000000       0.48598527 </v>
    <v>       0.11180638       0.00000000       0.49562332 </v>
    <v>       0.94662751       0.50000000       0.48960737 </v>
    <v>       0.77291967       0.00000000       0.48598527 </v>
    <v>       0.61180638       0.50000000       0.49562332 </v>
    <v>       0.38749814       0.50000000       0.00841378 </v>
    <v>       0.22265720       0.00000000       0.00903718 </v>
    <v>       0.05774817       0.50000000       0.01018893 </v>
    <v>       0.88749814       0.00000000       0.00841378 </v>
    <v>       0.72265720       0.50000000       0.00903718 </v>
    <v>       0.55774817       0.00000000       0.01018893 </v>
    <v>       0.22160894       0.00000000       0.61461571 </v>
    <v>       0.05417713       0.50000000       0.61253867 </v>
    <v>       0.27863325       0.50000000       0.13457712 </v>
    <v>       0.72160894       0.50000000       0.61461571 </v>
    <v>       0.55417713       0.00000000       0.61253867 </v>
    <v>       0.77863325       0.00000000       0.13457712 </v>
    <v>       0.39203012       0.50000000       0.60947276 </v>
    <v>       0.44593593       0.00000000       0.13881044 </v>
    <v>       0.10835755       0.00000000       0.14112946 </v>
    <v>       0.89203012       0.00000000       0.60947276 </v>
    <v>       0.94593593       0.50000000       0.13881044 </v>
    <v>       0.60835755       0.50000000       0.14112946 </v>
   </varray>
  </structure>
  <varray name="forces" >
   <v>      -0.00343244       0.00000000       0.00974519 </v>
   <v>      -0.00750248       0.00000000       0.00436512 </v>
   <v>       0.00087571       0.00000000       0.00715283 </v>
   <v>      -0.00343244       0.00000000       0.00974519 </v>
   <v>      -0.00750248       0.00000000       0.00436512 </v>
   <v>       0.00087571       0.00000000       0.00715283 </v>
   <v>       0.00698733       0.00000000      -0.00474600 </v>
   <v>       0.01180514       0.00000000      -0.00692010 </v>
   <v>      -0.00086385       0.00000000       0.00822005 </v>
   <v>       0.00698733       0.00000000      -0.00474600 </v>
   <v>       0.01180514       0.00000000      -0.00692010 </v>
   <v>      -0.00086385       0.00000000       0.00822005 </v>
   <v>       0.01186426       0.00000000       0.00083958 </v>
   <v>      -0.01225326       0.00000000       0.01345513 </v>
   <v>       0.00652844       0.00000000      -0.01377676 </v>
   <v>       0.01186426       0.00000000       0.00083958 </v>
   <v>      -0.01225326       0.00000000       0.01345513 </v>
   <v>       0.00652844       0.00000000      -0.01377676 </v>
   <v>      -0.00470456       0.00000000      -0.00550237 </v>
   <v>      -0.01644802       0.00000000      -0.00773928 </v>
   <v>       0.00714373       0.00000000      -0.00509339 </v>
   <v>      -0.00470456       0.00000000      -0.00550237 </v>
   <v>      -0.01644802       0.00000000      -0.00773928 </v>
   <v>       0.00714373       0.00000000      -0.00509339 </v>
  </varray>
  <varray name="stress" >
   <v>      -0.14571263       0.00000000      -0.23751696 </v>
   <v>       0.00000000      -0.57425384       0.00000000 </v>
   <v>      -0.23751675       0.00000000       1.16314649 </v>
  </varray>
  <energy>
   <i name="e_fr_energy">   -175.34225403 </i>
   <i name="e_wo_entrp">   -175.34225403 </i>
   <i name="e_0_energy">      0.00000000 </i>
  </energy>
  <time name="totalsc">   14.87   15.13</time>
  <eigenvalues>
   <array>
    <dimension dim="1">band</dimension>
    <dimension dim="2">kpoint</dimension>
    <dimension dim="3">spin</dimension>
    <field>eigene</field>
    <field>occ</field>
    <set>
     <set comment="spin 1">
      <set comment="kpoint 1">
       <r>   -9.4800    1.0000 </r>
       <r>   -9.4514    1.0000 </r>
       <r>   -8.1043    1.0000 </r>
       <r>   -7.9868    1.0000 </r>
       <r>   -7.3135    1.0000 </r>
       <r>   -7.2453    1.0000 </r>
       <r>   -5.1928    1.0000 </r>
       <r>   -5.0772    1.0000 </r>
       <r>   -4.5445    1.0000 </r>
       <r>   -4.1767    1.0000 </r>
       <r>   -2.2810    1.0000 </r>
       <r>   -2.0218    1.0000 </r>
       <r>   -0.5104    1.0000 </r>
       <r>   -0.4150    1.0000 </r>
       <r>    0.0581    1.0000 </r>
       <r>    0.6362    1.0000 </r>
       <r>    0.7033    1.0000 </r>
       <r>    1.1594    1.0000 </r>
       <r>    1.4830    1.0000 </r>
       <r>    2.0834    1.0000 </r>
       <r>    2.2373    1.0000 </r>
       <r>    2.9508    1.0000 </r>
       <r>    3.0083    1.0000 </r>
       <r>    3.1080    1.0000 </r>
       <r>    3.1230    1.0000 </r>
       <r>    3.6632    1.0000 </r>
       <r>    3.8204    1.0000 </r>
       <r>    4.0601    1.0000 </r>
       <r>    4.2623    1.0000 </r>
       <r>    4.6103    1.0000 </r>
       <r>    4.6731    1.0000 </r>
       <r>    4.7303    1.0000 </r>
       <r>    5.2575    1.0000 </r>
       <r>    5.2769    1.0000 </r>
       <r>    5.3873    1.0000 </r>
       <r>    5.9511    1.0000 </r>
       <r>    6.0970    1.0000 </r>
       <r>    6.1676    1.0000 </r>
       <r>    6.1931    1.0000 </r>
       <r>    6.2244    1.0000 </r>
       <r>    6.4309    1.0000 </r>
       <r>    6.5910    1.0000 </r>
       <r>    6.7174    1.0000 </r>
       <r>    7.1295    1.0000 </r>
       <r>    7.4835    1.0000 </r>
       <r>    7.5440    1.0000 </r>
       <r>    8.7494    1.0000 </r>
       <r>    8.7640    1.0000 </r>
       <r>   10.1824    0.0000 </r>
       <r>   10.2641    0.0000 </r>
       <r>   11.5630    0.0000 </r>
       <r>   11.6955    0.0000 </r>
       <r>   11.7195    0.0000 </r>
       <r>   12.2080    0.0000 </r>
       <r>   12.4458    0.0000 </r>
       <r>   12.5576    0.0000 </r>
       <r>   12.7642    0.0000 </r>
       <r>   13.1956    0.0000 </r>
       <r>   13.3768    0.0000 </r>
       <r>   13.7089    0.0000 </r>
       <r>   14.1195    0.0000 </r>
       <r>   14.1857    0.0000 </r>
       <r>   14.8822    0.0000 </r>
       <r>   15.0383    0.0000 </r>
      </set>
      <set comment="kpoint 2">
       <r>   -9.2172    1.0000 </r>
       <r>   -9.1915    1.0000 </r>
       <r>   -7.8964    1.0000 </r>
       <r>   -7.7945    1.0000 </r>
       <r>   -7.2186    1.0000 </r>
       <r>   -7.1613    1.0000 </r>
       <r>   -4.9178    1.0000 </r>
       <r>   -4.7759    1.0000 </r>
       <r>   -4.3170    1.0000 </r>
       <r>   -3.9439    1.0000 </r>
       <r>   -2.1141    1.0000 </r>
       <r>   -1.8777    1.0000 </r>
       <r>   -0.2312    1.0000 </r>
       <r>   -0.1526    1.0000 </r>
       <r>    0.3259    1.0000 </r>
       <r>    0.8139    1.0000 </r>
       <r>    0.9208    1.0000 </r>
       <r>    1.3034    1.0000 </r>
       <r>    1.6265    1.0000 </r>
       <r>    1.6513    1.0000 </r>
       <r>    1.9193    1.0000 </r>
       <r>    2.5004    1.0000 </r>
       <r>    2.5328    1.0000 </r>
       <r>    2.7221    1.0000 </r>
       <r>    3.0397    1.0000 </r>
       <r>    3.3818    1.0000 </r>
       <r>    3.5439    1.0000 </r>
       <r>    3.5460    1.0000 </r>
       <r>    3.8896    1.0000 </r>
       <r>    4.0338    1.0000 </r>
       <r>    4.1760    1.0000 </r>
       <r>    4.2712    1.0000 </r>
       <r>    4.5615    1.0000 </r>
       <r>    4.6633    1.0000 </r>
       <r>    4.8951    1.0000 </r>
       <r>    5.1316    1.0000 </r>
       <r>    5.2859    1.0000 </r>
       <r>    5.4235    1.0000 </r>
       <r>    5.7938    1.0000 </r>
       <r>    5.8285    1.0000 </r>
       <r>    6.0880    1.0000 </r>
       <r>    6.1052    1.0000 </r>
       <r>    6.8039    1.0000 </r>
       <r>    7.0112    1.0000 </r>
       <r>    7.2907    1.0000 </r>
       <r>    7.3485    1.0000 </r>
       <r>    7.7266    1.0000 </r>
       <r>    7.8012    1.0000 </r>
       <r>   11.2774    0.0000 </r>
       <r>   11.4544    0.0000 </r>
       <r>   11.8871    0.0000 </r>
       <r>   12.3072    0.0000 </r>
       <r>   12.3975    0.0000 </r>
       <r>   12.5622    0.0000 </r>
       <r>   12.5957    0.0000 </r>
       <r>   12.9902    0.0000 </r>
       <r>   13.2243    0.0000 </r>
       <r>   13.2568    0.0000 </r>
       <r>   13.5562    0.0000 </r>
       <r>   13.8097    0.0000 </r>
       <r>   14.3116    0.0000 </r>
       <r>   14.4011    0.0000 </r>
       <r>   14.6409    0.0000 </r>
       <r>   15.0434    0.0000 </r>
      </set>
      <set comment="kpoint 3">
       <r>   -8.5154    1.0000 </r>
       <r>   -8.4990    1.0000 </r>
       <r>   -7.4541    1.0000 </r>
       <r>   -7.4064    1.0000 </r>
       <r>   -7.0821    1.0000 </r>
       <r>   -7.0628    1.0000 </r>
       <r>   -4.1619    1.0000 </r>
       <r>   -3.9963    1.0000 </r>
       <r>   -3.6885    1.0000 </r>
       <r>   -3.4036    1.0000 </r>
       <r>   -1.9396    1.0000 </r>
       <r>   -1.8259    1.0000 </r>
       <r>   -0.3434    1.0000 </r>
       <r>   -0.1328    1.0000 </r>
       <r>    0.6150    1.0000 </r>
       <r>    0.7953    1.0000 </r>
       <r>    0.9247    1.0000 </r>
       <r>    0.9888    1.0000 </r>
       <r>    1.2381    1.0000 </r>
       <r>    1.7049    1.0000 </r>
       <r>    1.7092    1.0000 </r>
       <r>    1.9543    1.0000 </r>
       <r>    2.0578    1.0000 </r>
       <r>    2.4351    1.0000 </r>
       <r>    2.6422    1.0000 </r>
       <r>    2.6919    1.0000 </r>
       <r>    2.8011    1.0000 </r>
       <r>    2.8654    1.0000 </r>
       <r>    2.9668    1.0000 </r>
       <r>    3.2499    1.0000 </r>
       <r>    3.2667    1.0000 </r>
       <r>    3.6565    1.0000 </r>
       <r>    4.0795    1.0000 </r>
       <r>    4.2613    1.0000 </r>
       <r>    4.4017    1.0000 </r>
       <r>    4.4634    1.0000 </r>
       <r>    4.6576    1.0000 </r>
       <r>    4.7847    1.0000 </r>
       <r>    4.9776    1.0000 </r>
       <r>    5.1223    1.0000 </r>
       <r>    5.5287    1.0000 </r>
       <r>    5.5740    1.0000 </r>
       <r>    6.2071    1.0000 </r>
       <r>    6.5811    1.0000 </r>
       <r>    6.6223    1.0000 </r>
       <r>    6.7990    1.0000 </r>
       <r>    6.7992    1.0000 </r>
       <r>    6.9980    1.0000 </r>
       <r>   10.6526    0.0000 </r>
       <r>   10.9395    0.0000 </r>
       <r>   11.4033    0.0000 </r>
       <r>   11.5510    0.0000 </r>
       <r>   11.6581    0.0000 </r>
       <r>   12.5926    0.0000 </r>
       <r>   12.6284    0.0000 </r>
       <r>   12.8523    0.0000 </r>
       <r>   13.0491    0.0000 </r>
       <r>   13.2153    0.0000 </r>
       <r>   13.4195    0.0000 </r>
       <r>   13.8959    0.0000 </r>
       <r>   13.9029    0.0000 </r>
       <r>   14.5541    0.0000 </r>
       <r>   14.8422    0.0000 </r>
       <r>   15.1310    0.0000 </r>
      </set>
      <set comment="kpoint 4">
       <r>   -7.8162    1.0000 </r>
       <r>   -7.8162    1.0000 </r>
       <r>   -7.5357    1.0000 </r>
       <r>   -7.5357    1.0000 </r>
       <r>   -6.9676    1.0000 </r>
       <r>   -6.9676    1.0000 </r>
       <r>   -3.4993    1.0000 </r>
       <r>   -3.4993    1.0000 </r>
       <r>   -2.9577    1.0000 </r>
       <r>   -2.9577    1.0000 </r>
       <r>   -2.3558    1.0000 </r>
       <r>   -2.3558    1.0000 </r>
       <r>   -0.7366    1.0000 </r>
       <r>   -0.7366    1.0000 </r>
       <r>    0.2770    1.0000 </r>
       <r>    0.2770    1.0000 </r>
       <r>    1.1786    1.0000 </r>
       <r>    1.1786    1.0000 </r>
       <r>    1.7011    1.0000 </r>
       <r>    1.7011    1.0000 </r>
       <r>    1.8371    1.0000 </r>
       <r>    1.8371    1.0000 </r>
       <r>    1.9646    1.0000 </r>
       <r>    1.9646    1.0000 </r>
       <r>    2.4394    1.0000 </r>
       <r>    2.4394    1.0000 </r>
       <r>    2.6010    1.0000 </r>
       <r>    2.6010    1.0000 </r>
       <r>    2.6741    1.0000 </r>
       <r>    2.6741    1.0000 </r>
       <r>    3.5379    1.0000 </r>
       <r>    3.5379    1.0000 </r>
       <r>    3.8595    1.0000 </r>
       <r>    3.8595    1.0000 </r>
       <r>    4.1752    1.0000 </r>
       <r>    4.1752    1.0000 </r>
       <r>    4.8384    1.0000 </r>
       <r>    4.8384    1.0000 </r>
       <r>    4.9381    1.0000 </r>
       <r>    4.9381    1.0000 </r>
       <r>    5.3167    1.0000 </r>
       <r>    5.3167    1.0000 </r>
       <r>    5.6347    1.0000 </r>
       <r>    5.6347    1.0000 </r>
       <r>    6.1611    1.0000 </r>
       <r>    6.1611    1.0000 </r>
       <r>    6.7251    1.0000 </r>
       <r>    6.7251    1.0000 </r>
       <r>   10.9104    0.0000 </r>
       <r>   10.9104    0.0000 </r>
       <r>   11.2072    0.0000 </r>
       <r>   11.2072    0.0000 </r>
       <r>   11.5369    0.0000 </r>
       <r>   11.5369    0.0000 </r>
       <r>   12.0008    0.0000 </r>
       <r>   12.0008    0.0000 </r>
       <r>   12.2931    0.0000 </r>
       <r>   12.2931    0.0000 </r>
       <r>   13.9874    0.0000 </r>
       <r>   13.9926    0.0000 </r>
       <r>   14.4302    0.0000 </r>
       <r>   14.5159    0.0000 </r>
       <r>   14.7328    0.0000 </r>
       <r>   14.9454    0.0000 </r>
      </set>
      <set comment="kpoint 5">
       <r>   -9.3248    1.0000 </r>
       <r>   -9.2995    1.0000 </r>
       <r>   -8.0706    1.0000 </r>
       <r>   -7.9951    1.0000 </r>
       <r>   -7.4359    1.0000 </r>
       <r>   -7.4090    1.0000 </r>
       <r>   -5.3672    1.0000 </r>
       <r>   -5.1009    1.0000 </r>
       <r>   -4.7577    1.0000 </r>
       <r>   -4.2198    1.0000 </r>
       <r>   -2.6860    1.0000 </r>
       <r>   -2.5607    1.0000 </r>
       <r>   -0.4280    1.0000 </r>
       <r>    0.1389    1.0000 </r>
       <r>    0.4600    1.0000 </r>
       <r>    0.7501    1.0000 </r>
       <r>    1.0711    1.0000 </r>
       <r>    1.4198    1.0000 </r>
       <r>    1.6422    1.0000 </r>
       <r>    2.0474    1.0000 </r>
       <r>    2.5940    1.0000 </r>
       <r>    3.1800    1.0000 </r>
       <r>    3.1929    1.0000 </r>
       <r>    3.2506    1.0000 </r>
       <r>    3.4816    1.0000 </r>
       <r>    3.6447    1.0000 </r>
       <r>    3.9065    1.0000 </r>
       <r>    4.1101    1.0000 </r>
       <r>    4.4404    1.0000 </r>
       <r>    4.6848    1.0000 </r>
       <r>    4.7220    1.0000 </r>
       <r>    4.7479    1.0000 </r>
       <r>    5.1638    1.0000 </r>
       <r>    5.2042    1.0000 </r>
       <r>    5.2071    1.0000 </r>
       <r>    5.5081    1.0000 </r>
       <r>    5.7281    1.0000 </r>
       <r>    6.0704    1.0000 </r>
       <r>    6.1108    1.0000 </r>
       <r>    6.1666    1.0000 </r>
       <r>    6.4518    1.0000 </r>
       <r>    6.5287    1.0000 </r>
       <r>    6.6883    1.0000 </r>
       <r>    6.9823    1.0000 </r>
       <r>    7.2258    1.0000 </r>
       <r>    7.3000    1.0000 </r>
       <r>    8.5759    1.0000 </r>
       <r>    8.5778    1.0000 </r>
       <r>   10.1518    0.0000 </r>
       <r>   10.1780    0.0000 </r>
       <r>   11.4546    0.0000 </r>
       <r>   11.4988    0.0000 </r>
       <r>   11.8641    0.0000 </r>
       <r>   12.1084    0.0000 </r>
       <r>   12.3523    0.0000 </r>
       <r>   12.6501    0.0000 </r>
       <r>   12.7011    0.0000 </r>
       <r>   13.3933    0.0000 </r>
       <r>   13.4881    0.0000 </r>
       <r>   13.8818    0.0000 </r>
       <r>   14.1081    0.0000 </r>
       <r>   14.2978    0.0000 </r>
       <r>   14.7600    0.0000 </r>
       <r>   14.9242    0.0000 </r>
      </set>
      <set comment="kpoint 6">
       <r>   -9.0697    1.0000 </r>
       <r>   -9.0471    1.0000 </r>
       <r>   -7.8789    1.0000 </r>
       <r>   -7.8161    1.0000 </r>
       <r>   -7.3080    1.0000 </r>
       <r>   -7.2865    1.0000 </r>
       <r>   -5.0827    1.0000 </r>
       <r>   -4.8294    1.0000 </r>
       <r>   -4.4640    1.0000 </r>
       <r>   -3.9643    1.0000 </r>
       <r>   -2.5006    1.0000 </r>
       <r>   -2.3589    1.0000 </r>
       <r>   -0.1970    1.0000 </r>
       <r>    0.1598    1.0000 </r>
       <r>    0.5951    1.0000 </r>
       <r>    0.8752    1.0000 </r>
       <r>    1.2004    1.0000 </r>
       <r>    1.5444    1.0000 </r>
       <r>    1.6298    1.0000 </r>
       <r>    1.8390    1.0000 </r>
       <r>    2.1875    1.0000 </r>
       <r>    2.2774    1.0000 </r>
       <r>    2.8320    1.0000 </r>
       <r>    3.2102    1.0000 </r>
       <r>    3.2443    1.0000 </r>
       <r>    3.4170    1.0000 </r>
       <r>    3.5943    1.0000 </r>
       <r>    3.6794    1.0000 </r>
       <r>    3.8419    1.0000 </r>
       <r>    3.9277    1.0000 </r>
       <r>    4.3450    1.0000 </r>
       <r>    4.4123    1.0000 </r>
       <r>    4.6771    1.0000 </r>
       <r>    4.7897    1.0000 </r>
       <r>    4.9659    1.0000 </r>
       <r>    5.0537    1.0000 </r>
       <r>    5.2001    1.0000 </r>
       <r>    5.3479    1.0000 </r>
       <r>    5.4840    1.0000 </r>
       <r>    5.8314    1.0000 </r>
       <r>    5.9576    1.0000 </r>
       <r>    5.9601    1.0000 </r>
       <r>    6.6714    1.0000 </r>
       <r>    6.8519    1.0000 </r>
       <r>    7.0060    1.0000 </r>
       <r>    7.0728    1.0000 </r>
       <r>    7.7186    1.0000 </r>
       <r>    7.7324    1.0000 </r>
       <r>   11.2627    0.0000 </r>
       <r>   11.3670    0.0000 </r>
       <r>   12.0825    0.0000 </r>
       <r>   12.4329    0.0000 </r>
       <r>   12.4462    0.0000 </r>
       <r>   12.5682    0.0000 </r>
       <r>   12.7296    0.0000 </r>
       <r>   12.9542    0.0000 </r>
       <r>   13.0652    0.0000 </r>
       <r>   13.1084    0.0000 </r>
       <r>   13.6577    0.0000 </r>
       <r>   13.6689    0.0000 </r>
       <r>   14.0150    0.0000 </r>
       <r>   14.3129    0.0000 </r>
       <r>   14.5399    0.0000 </r>
       <r>   14.5806    0.0000 </r>
      </set>
      <set comment="kpoint 7">
       <r>   -8.4001    1.0000 </r>
       <r>   -8.3863    1.0000 </r>
       <r>   -7.4867    1.0000 </r>
       <r>   -7.4637    1.0000 </r>
       <r>   -7.0627    1.0000 </r>
       <r>   -7.0617    1.0000 </r>
       <r>   -4.2894    1.0000 </r>
       <r>   -4.1339    1.0000 </r>
       <r>   -3.6526    1.0000 </r>
       <r>   -3.3834    1.0000 </r>
       <r>   -2.1947    1.0000 </r>
       <r>   -2.0614    1.0000 </r>
       <r>   -0.6086    1.0000 </r>
       <r>   -0.3526    1.0000 </r>
       <r>    0.3884    1.0000 </r>
       <r>    0.6187    1.0000 </r>
       <r>    0.9387    1.0000 </r>
       <r>    1.2527    1.0000 </r>
       <r>    1.4188    1.0000 </r>
       <r>    1.5601    1.0000 </r>
       <r>    1.8361    1.0000 </r>
       <r>    1.8876    1.0000 </r>
       <r>    2.1491    1.0000 </r>
       <r>    2.2561    1.0000 </r>
       <r>    2.4413    1.0000 </r>
       <r>    2.8670    1.0000 </r>
       <r>    2.9827    1.0000 </r>
       <r>    3.1440    1.0000 </r>
       <r>    3.2377    1.0000 </r>
       <r>    3.4260    1.0000 </r>
       <r>    3.7541    1.0000 </r>
       <r>    3.8622    1.0000 </r>
       <r>    4.0807    1.0000 </r>
       <r>    4.1242    1.0000 </r>
       <r>    4.2543    1.0000 </r>
       <r>    4.6423    1.0000 </r>
       <r>    4.7729    1.0000 </r>
       <r>    4.9075    1.0000 </r>
       <r>    5.3237    1.0000 </r>
       <r>    5.3562    1.0000 </r>
       <r>    5.5453    1.0000 </r>
       <r>    5.8701    1.0000 </r>
       <r>    6.0929    1.0000 </r>
       <r>    6.2861    1.0000 </r>
       <r>    6.5531    1.0000 </r>
       <r>    6.8641    1.0000 </r>
       <r>    7.1332    1.0000 </r>
       <r>    7.1825    1.0000 </r>
       <r>   10.7052    0.0000 </r>
       <r>   11.4229    0.0000 </r>
       <r>   11.4526    0.0000 </r>
       <r>   11.7061    0.0000 </r>
       <r>   11.7121    0.0000 </r>
       <r>   11.9076    0.0000 </r>
       <r>   12.5010    0.0000 </r>
       <r>   12.7036    0.0000 </r>
       <r>   12.8535    0.0000 </r>
       <r>   13.0590    0.0000 </r>
       <r>   13.2970    0.0000 </r>
       <r>   13.7821    0.0000 </r>
       <r>   13.9731    0.0000 </r>
       <r>   14.3529    0.0000 </r>
       <r>   14.5244    0.0000 </r>
       <r>   14.8114    0.0000 </r>
      </set>
      <set comment="kpoint 8">
       <r>   -7.7921    1.0000 </r>
       <r>   -7.7921    1.0000 </r>
       <r>   -7.4864    1.0000 </r>
       <r>   -7.4864    1.0000 </r>
       <r>   -6.9263    1.0000 </r>
       <r>   -6.9263    1.0000 </r>
       <r>   -3.5809    1.0000 </r>
       <r>   -3.5809    1.0000 </r>
       <r>   -3.0143    1.0000 </r>
       <r>   -3.0143    1.0000 </r>
       <r>   -2.3012    1.0000 </r>
       <r>   -2.3012    1.0000 </r>
       <r>   -0.9451    1.0000 </r>
       <r>   -0.9451    1.0000 </r>
       <r>   -0.0205    1.0000 </r>
       <r>   -0.0205    1.0000 </r>
       <r>    0.6508    1.0000 </r>
       <r>    0.6508    1.0000 </r>
       <r>    1.3283    1.0000 </r>
       <r>    1.3283    1.0000 </r>
       <r>    1.5460    1.0000 </r>
       <r>    1.5460    1.0000 </r>
       <r>    2.1941    1.0000 </r>
       <r>    2.1941    1.0000 </r>
       <r>    2.6630    1.0000 </r>
       <r>    2.6630    1.0000 </r>
       <r>    2.9015    1.0000 </r>
       <r>    2.9015    1.0000 </r>
       <r>    3.3600    1.0000 </r>
       <r>    3.3600    1.0000 </r>
       <r>    3.5597    1.0000 </r>
       <r>    3.5597    1.0000 </r>
       <r>    3.8503    1.0000 </r>
       <r>    3.8503    1.0000 </r>
       <r>    4.2612    1.0000 </r>
       <r>    4.2612    1.0000 </r>
       <r>    4.5721    1.0000 </r>
       <r>    4.5721    1.0000 </r>
       <r>    5.5505    1.0000 </r>
       <r>    5.5505    1.0000 </r>
       <r>    5.6642    1.0000 </r>
       <r>    5.6642    1.0000 </r>
       <r>    5.8616    1.0000 </r>
       <r>    5.8616    1.0000 </r>
       <r>    6.6590    1.0000 </r>
       <r>    6.6590    1.0000 </r>
       <r>    6.7036    1.0000 </r>
       <r>    6.7036    1.0000 </r>
       <r>   10.6649    0.0000 </r>
       <r>   10.6649    0.0000 </r>
       <r>   11.0133    0.0000 </r>
       <r>   11.0133    0.0000 </r>
       <r>   11.7146    0.0000 </r>
       <r>   11.7146    0.0000 </r>
       <r>   12.0321    0.0000 </r>
       <r>   12.0322    0.0000 </r>
       <r>   12.3947    0.0000 </r>
       <r>   12.3948    0.0000 </r>
       <r>   13.2592    0.0000 </r>
       <r>   13.2602    0.0000 </r>
       <r>   14.3173    0.0000 </r>
       <r>   14.3412    0.0000 </r>
       <r>   14.6495    0.0000 </r>
       <r>   14.8018    0.0000 </r>
      </set>
      <set comment="kpoint 9">
       <r>   -9.1060    1.0000 </r>
       <r>   -9.0870    1.0000 </r>
       <r>   -8.1635    1.0000 </r>
       <r>   -8.1545    1.0000 </r>
       <r>   -7.4799    1.0000 </r>
       <r>   -7.4534    1.0000 </r>
       <r>   -5.6184    1.0000 </r>
       <r>   -5.3572    1.0000 </r>
       <r>   -4.6281    1.0000 </r>
       <r>   -4.1095    1.0000 </r>
       <r>   -3.0940    1.0000 </r>
       <r>   -3.0572    1.0000 </r>
       <r>   -0.6972    1.0000 </r>
       <r>    0.4040    1.0000 </r>
       <r>    0.9535    1.0000 </r>
       <r>    1.0350    1.0000 </r>
       <r>    1.6689    1.0000 </r>
       <r>    1.9722    1.0000 </r>
       <r>    2.1610    1.0000 </r>
       <r>    2.4097    1.0000 </r>
       <r>    2.5732    1.0000 </r>
       <r>    2.8793    1.0000 </r>
       <r>    3.2615    1.0000 </r>
       <r>    3.2719    1.0000 </r>
       <r>    3.3921    1.0000 </r>
       <r>    3.7542    1.0000 </r>
       <r>    3.8446    1.0000 </r>
       <r>    4.3358    1.0000 </r>
       <r>    4.7287    1.0000 </r>
       <r>    4.7288    1.0000 </r>
       <r>    4.7431    1.0000 </r>
       <r>    4.9304    1.0000 </r>
       <r>    5.0971    1.0000 </r>
       <r>    5.1975    1.0000 </r>
       <r>    5.2257    1.0000 </r>
       <r>    5.4142    1.0000 </r>
       <r>    5.7444    1.0000 </r>
       <r>    5.8900    1.0000 </r>
       <r>    5.9978    1.0000 </r>
       <r>    6.0101    1.0000 </r>
       <r>    6.0357    1.0000 </r>
       <r>    6.3563    1.0000 </r>
       <r>    6.5584    1.0000 </r>
       <r>    6.7123    1.0000 </r>
       <r>    6.7861    1.0000 </r>
       <r>    7.1620    1.0000 </r>
       <r>    8.3851    1.0000 </r>
       <r>    8.3997    1.0000 </r>
       <r>   10.1752    0.0000 </r>
       <r>   10.1827    0.0000 </r>
       <r>   11.2326    0.0000 </r>
       <r>   11.5098    0.0000 </r>
       <r>   11.6750    0.0000 </r>
       <r>   12.2693    0.0000 </r>
       <r>   12.3578    0.0000 </r>
       <r>   12.8817    0.0000 </r>
       <r>   12.9159    0.0000 </r>
       <r>   13.5219    0.0000 </r>
       <r>   13.5638    0.0000 </r>
       <r>   13.8506    0.0000 </r>
       <r>   14.0867    0.0000 </r>
       <r>   14.1212    0.0000 </r>
       <r>   14.5145    0.0000 </r>
       <r>   14.6949    0.0000 </r>
      </set>
      <set comment="kpoint 10">
       <r>   -8.8630    1.0000 </r>
       <r>   -8.8464    1.0000 </r>
       <r>   -7.9801    1.0000 </r>
       <r>   -7.9727    1.0000 </r>
       <r>   -7.3313    1.0000 </r>
       <r>   -7.3101    1.0000 </r>
       <r>   -5.3074    1.0000 </r>
       <r>   -5.0709    1.0000 </r>
       <r>   -4.3228    1.0000 </r>
       <r>   -3.8561    1.0000 </r>
       <r>   -2.8509    1.0000 </r>
       <r>   -2.8501    1.0000 </r>
       <r>   -0.4946    1.0000 </r>
       <r>    0.2259    1.0000 </r>
       <r>    1.0374    1.0000 </r>
       <r>    1.1215    1.0000 </r>
       <r>    1.5295    1.0000 </r>
       <r>    1.6565    1.0000 </r>
       <r>    1.9028    1.0000 </r>
       <r>    2.3081    1.0000 </r>
       <r>    2.3857    1.0000 </r>
       <r>    2.4753    1.0000 </r>
       <r>    2.8493    1.0000 </r>
       <r>    2.9625    1.0000 </r>
       <r>    3.2644    1.0000 </r>
       <r>    3.3126    1.0000 </r>
       <r>    3.7893    1.0000 </r>
       <r>    3.8019    1.0000 </r>
       <r>    4.1176    1.0000 </r>
       <r>    4.2470    1.0000 </r>
       <r>    4.3244    1.0000 </r>
       <r>    4.4011    1.0000 </r>
       <r>    4.6903    1.0000 </r>
       <r>    4.7715    1.0000 </r>
       <r>    5.0594    1.0000 </r>
       <r>    5.0913    1.0000 </r>
       <r>    5.1949    1.0000 </r>
       <r>    5.4429    1.0000 </r>
       <r>    5.4824    1.0000 </r>
       <r>    5.7002    1.0000 </r>
       <r>    6.0577    1.0000 </r>
       <r>    6.1594    1.0000 </r>
       <r>    6.1595    1.0000 </r>
       <r>    6.1831    1.0000 </r>
       <r>    6.8100    1.0000 </r>
       <r>    6.8812    1.0000 </r>
       <r>    7.5276    1.0000 </r>
       <r>    7.6108    1.0000 </r>
       <r>   11.3777    0.0000 </r>
       <r>   11.3897    0.0000 </r>
       <r>   11.8667    0.0000 </r>
       <r>   12.0673    0.0000 </r>
       <r>   12.1902    0.0000 </r>
       <r>   12.5665    0.0000 </r>
       <r>   12.6644    0.0000 </r>
       <r>   13.0383    0.0000 </r>
       <r>   13.1696    0.0000 </r>
       <r>   13.2312    0.0000 </r>
       <r>   13.6394    0.0000 </r>
       <r>   13.7623    0.0000 </r>
       <r>   13.8386    0.0000 </r>
       <r>   14.0346    0.0000 </r>
       <r>   14.5475    0.0000 </r>
       <r>   15.0100    0.0000 </r>
      </set>
      <set comment="kpoint 11">
       <r>   -8.2457    1.0000 </r>
       <r>   -8.2364    1.0000 </r>
       <r>   -7.5831    1.0000 </r>
       <r>   -7.5811    1.0000 </r>
       <r>   -7.0304    1.0000 </r>
       <r>   -7.0199    1.0000 </r>
       <r>   -4.4391    1.0000 </r>
       <r>   -4.3156    1.0000 </r>
       <r>   -3.5191    1.0000 </r>
       <r>   -3.3198    1.0000 </r>
       <r>   -2.4246    1.0000 </r>
       <r>   -2.3390    1.0000 </r>
       <r>   -0.7648    1.0000 </r>
       <r>   -0.5320    1.0000 </r>
       <r>    0.2481    1.0000 </r>
       <r>    0.4833    1.0000 </r>
       <r>    1.0497    1.0000 </r>
       <r>    1.1133    1.0000 </r>
       <r>    1.4419    1.0000 </r>
       <r>    1.4841    1.0000 </r>
       <r>    1.6603    1.0000 </r>
       <r>    1.7960    1.0000 </r>
       <r>    1.8383    1.0000 </r>
       <r>    2.6192    1.0000 </r>
       <r>    2.6527    1.0000 </r>
       <r>    2.9127    1.0000 </r>
       <r>    3.3001    1.0000 </r>
       <r>    3.3359    1.0000 </r>
       <r>    3.3566    1.0000 </r>
       <r>    3.6130    1.0000 </r>
       <r>    3.9143    1.0000 </r>
       <r>    4.3209    1.0000 </r>
       <r>    4.3414    1.0000 </r>
       <r>    4.3801    1.0000 </r>
       <r>    4.5591    1.0000 </r>
       <r>    4.6016    1.0000 </r>
       <r>    4.7391    1.0000 </r>
       <r>    5.0085    1.0000 </r>
       <r>    5.0936    1.0000 </r>
       <r>    5.5578    1.0000 </r>
       <r>    5.9680    1.0000 </r>
       <r>    6.0271    1.0000 </r>
       <r>    6.1766    1.0000 </r>
       <r>    6.2355    1.0000 </r>
       <r>    6.3696    1.0000 </r>
       <r>    6.5668    1.0000 </r>
       <r>    7.2654    1.0000 </r>
       <r>    7.3494    1.0000 </r>
       <r>   10.7020    0.0000 </r>
       <r>   11.5113    0.0000 </r>
       <r>   11.5556    0.0000 </r>
       <r>   11.7680    0.0000 </r>
       <r>   11.8903    0.0000 </r>
       <r>   12.0018    0.0000 </r>
       <r>   12.0524    0.0000 </r>
       <r>   12.3546    0.0000 </r>
       <r>   12.8359    0.0000 </r>
       <r>   13.1060    0.0000 </r>
       <r>   13.1339    0.0000 </r>
       <r>   13.4384    0.0000 </r>
       <r>   13.6300    0.0000 </r>
       <r>   13.8612    0.0000 </r>
       <r>   14.3426    0.0000 </r>
       <r>   14.6387    0.0000 </r>
      </set>
      <set comment="kpoint 12">
       <r>   -7.7676    1.0000 </r>
       <r>   -7.7676    1.0000 </r>
       <r>   -7.4344    1.0000 </r>
       <r>   -7.4344    1.0000 </r>
       <r>   -6.8832    1.0000 </r>
       <r>   -6.8832    1.0000 </r>
       <r>   -3.6828    1.0000 </r>
       <r>   -3.6828    1.0000 </r>
       <r>   -3.0798    1.0000 </r>
       <r>   -3.0798    1.0000 </r>
       <r>   -2.2380    1.0000 </r>
       <r>   -2.2380    1.0000 </r>
       <r>   -1.0487    1.0000 </r>
       <r>   -1.0487    1.0000 </r>
       <r>   -0.1946    1.0000 </r>
       <r>   -0.1946    1.0000 </r>
       <r>    0.4085    1.0000 </r>
       <r>    0.4085    1.0000 </r>
       <r>    0.8397    1.0000 </r>
       <r>    0.8397    1.0000 </r>
       <r>    1.1825    1.0000 </r>
       <r>    1.1825    1.0000 </r>
       <r>    2.2711    1.0000 </r>
       <r>    2.2711    1.0000 </r>
       <r>    2.5747    1.0000 </r>
       <r>    2.5747    1.0000 </r>
       <r>    3.2185    1.0000 </r>
       <r>    3.2185    1.0000 </r>
       <r>    3.6079    1.0000 </r>
       <r>    3.6079    1.0000 </r>
       <r>    4.0543    1.0000 </r>
       <r>    4.0543    1.0000 </r>
       <r>    4.3355    1.0000 </r>
       <r>    4.3355    1.0000 </r>
       <r>    4.4439    1.0000 </r>
       <r>    4.4439    1.0000 </r>
       <r>    4.6752    1.0000 </r>
       <r>    4.6752    1.0000 </r>
       <r>    5.2978    1.0000 </r>
       <r>    5.2978    1.0000 </r>
       <r>    5.9114    1.0000 </r>
       <r>    5.9114    1.0000 </r>
       <r>    6.3760    1.0000 </r>
       <r>    6.3760    1.0000 </r>
       <r>    6.5317    1.0000 </r>
       <r>    6.5317    1.0000 </r>
       <r>    7.1504    1.0000 </r>
       <r>    7.1504    1.0000 </r>
       <r>   10.7214    0.0000 </r>
       <r>   10.7214    0.0000 </r>
       <r>   11.1088    0.0000 </r>
       <r>   11.1088    0.0000 </r>
       <r>   11.4737    0.0000 </r>
       <r>   11.4737    0.0000 </r>
       <r>   11.6858    0.0000 </r>
       <r>   11.6859    0.0000 </r>
       <r>   12.7600    0.0000 </r>
       <r>   12.7602    0.0000 </r>
       <r>   12.9311    0.0000 </r>
       <r>   12.9316    0.0000 </r>
       <r>   13.9150    0.0000 </r>
       <r>   13.9203    0.0000 </r>
       <r>   13.9954    0.0000 </r>
       <r>   14.0165    0.0000 </r>
      </set>
     </set>
    </set>
   </array>
  </eigenvalues>
  <separator name="orbital magnetization" >
   <v name="MAGDIPOLOUT">      0.00000000      0.00000000      0.00000000</v>
  </separator>
  <dos>
   <i name="efermi">      9.23394687 </i>
   <total>
    <array>
     <dimension dim="1">gridpoints</dimension>
     <dimension dim="2">spin</dimension>
     <field>energy</field>
     <field>total</field>
     <field>integrated</field>
     <set>
      <set comment="spin 1">
       <r>   -10.7105     0.0000     0.0000 </r>
       <r>   -10.6203     0.0000     0.0000 </r>
       <r>   -10.5300     0.0000     0.0000 </r>
       <r>   -10.4398     0.0000     0.0000 </r>
       <r>   -10.3496     0.0000     0.0000 </r>
       <r>   -10.2593     0.0000     0.0000 </r>
       <r>   -10.1691     0.0000     0.0000 </r>
       <r>   -10.0788     0.0000     0.0000 </r>
       <r>    -9.9886     0.0000     0.0000 </r>
       <r>    -9.8984     0.0000     0.0000 </r>
       <r>    -9.8081     0.0000     0.0000 </r>
       <r>    -9.7179     0.0004     0.0000 </r>
       <r>    -9.6276     0.0224     0.0021 </r>
       <r>    -9.5374     0.2760     0.0270 </r>
       <r>    -9.4472     0.9241     0.1104 </r>
       <r>    -9.3569     1.5502     0.2503 </r>
       <r>    -9.2667     2.5313     0.4787 </r>
       <r>    -9.1764     3.1418     0.7622 </r>
       <r>    -9.0862     4.2105     1.1421 </r>
       <r>    -8.9960     4.3311     1.5330 </r>
       <r>    -8.9057     2.2281     1.7341 </r>
       <r>    -8.8155     1.8708     1.9029 </r>
       <r>    -8.7252     0.9530     1.9889 </r>
       <r>    -8.6350     0.2561     2.0120 </r>
       <r>    -8.5447     1.0931     2.1106 </r>
       <r>    -8.4545     3.0590     2.3867 </r>
       <r>    -8.3643     4.3441     2.7787 </r>
       <r>    -8.2740     3.3992     3.0854 </r>
       <r>    -8.1838     2.8700     3.3444 </r>
       <r>    -8.0935     2.9349     3.6093 </r>
       <r>    -8.0033     3.9585     3.9665 </r>
       <r>    -7.9131     5.6583     4.4771 </r>
       <r>    -7.8228     7.6302     5.1656 </r>
       <r>    -7.7326     6.9021     5.7885 </r>
       <r>    -7.6423     3.1419     6.0720 </r>
       <r>    -7.5521     4.7347     6.4992 </r>
       <r>    -7.4619    10.2823     7.4271 </r>
       <r>    -7.3716    11.1544     8.4337 </r>
       <r>    -7.2814     8.7939     9.2273 </r>
       <r>    -7.1911     6.2724     9.7933 </r>
       <r>    -7.1009     5.8347    10.3198 </r>
       <r>    -7.0107     8.2110    11.0608 </r>
       <r>    -6.9204     6.4382    11.6417 </r>
       <r>    -6.8302     3.1660    11.9274 </r>
       <r>    -6.7399     0.7477    11.9949 </r>
       <r>    -6.6497     0.0553    11.9999 </r>
       <r>    -6.5595     0.0011    12.0000 </r>
       <r>    -6.4692     0.0000    12.0000 </r>
       <r>    -6.3790     0.0000    12.0000 </r>
       <r>    -6.2887     0.0000    12.0000 </r>
       <r>    -6.1985     0.0000    12.0000 </r>
       <r>    -6.1083     0.0000    12.0000 </r>
       <r>    -6.0180     0.0000    12.0000 </r>
       <r>    -5.9278     0.0000    12.0000 </r>
       <r>    -5.8375     0.0009    12.0001 </r>
       <r>    -5.7473     0.0307    12.0028 </r>
       <r>    -5.6571     0.2385    12.0244 </r>
       <r>    -5.5668     0.4445    12.0645 </r>
       <r>    -5.4766     0.3584    12.0968 </r>
       <r>    -5.3863     1.1374    12.1995 </r>
       <r>    -5.2961     2.1336    12.3920 </r>
       <r>    -5.2059     1.7776    12.5524 </r>
       <r>    -5.1156     2.9274    12.8166 </r>
       <r>    -5.0254     4.1183    13.1882 </r>
       <r>    -4.9351     2.4783    13.4118 </r>
       <r>    -4.8449     2.7261    13.6579 </r>
       <r>    -4.7547     3.5199    13.9755 </r>
       <r>    -4.6644     2.1344    14.1681 </r>
       <r>    -4.5742     1.2727    14.2829 </r>
       <r>    -4.4839     2.3461    14.4947 </r>
       <r>    -4.3937     3.7372    14.8319 </r>
       <r>    -4.3035     5.0406    15.2868 </r>
       <r>    -4.2132     5.5644    15.7889 </r>
       <r>    -4.1230     4.8996    16.2310 </r>
       <r>    -4.0327     3.8595    16.5793 </r>
       <r>    -3.9425     3.9688    16.9375 </r>
       <r>    -3.8523     3.1182    17.2189 </r>
       <r>    -3.7620     1.8437    17.3852 </r>
       <r>    -3.6718     3.4105    17.6930 </r>
       <r>    -3.5815     4.9868    18.1430 </r>
       <r>    -3.4913     4.3371    18.5344 </r>
       <r>    -3.4011     3.8694    18.8836 </r>
       <r>    -3.3108     3.4086    19.1912 </r>
       <r>    -3.2206     1.4722    19.3240 </r>
       <r>    -3.1303     1.1537    19.4281 </r>
       <r>    -3.0401     3.0938    19.7073 </r>
       <r>    -2.9499     3.7356    20.0444 </r>
       <r>    -2.8596     2.8141    20.2983 </r>
       <r>    -2.7694     1.9853    20.4775 </r>
       <r>    -2.6791     1.3244    20.5970 </r>
       <r>    -2.5889     1.6654    20.7473 </r>
       <r>    -2.4987     2.9169    21.0105 </r>
       <r>    -2.4084     4.3463    21.4027 </r>
       <r>    -2.3182     6.3416    21.9750 </r>
       <r>    -2.2279     6.1782    22.5325 </r>
       <r>    -2.1377     4.5221    22.9406 </r>
       <r>    -2.0475     3.7869    23.2823 </r>
       <r>    -1.9572     3.0011    23.5531 </r>
       <r>    -1.8670     2.5053    23.7792 </r>
       <r>    -1.7767     1.8353    23.9448 </r>
       <r>    -1.6865     0.5598    23.9953 </r>
       <r>    -1.5963     0.0505    23.9999 </r>
       <r>    -1.5060     0.0011    24.0000 </r>
       <r>    -1.4158     0.0000    24.0000 </r>
       <r>    -1.3255     0.0001    24.0000 </r>
       <r>    -1.2353     0.0077    24.0007 </r>
       <r>    -1.1451     0.1607    24.0152 </r>
       <r>    -1.0548     0.9146    24.0977 </r>
       <r>    -0.9646     1.9992    24.2781 </r>
       <r>    -0.8743     2.0259    24.4610 </r>
       <r>    -0.7841     1.7044    24.6148 </r>
       <r>    -0.6939     2.5555    24.8454 </r>
       <r>    -0.6036     3.0823    25.1235 </r>
       <r>    -0.5134     3.7014    25.4575 </r>
       <r>    -0.4231     4.0307    25.8213 </r>
       <r>    -0.3329     4.3339    26.2124 </r>
       <r>    -0.2427     4.4057    26.6099 </r>
       <r>    -0.1524     5.2629    27.0849 </r>
       <r>    -0.0622     4.0950    27.4544 </r>
       <r>     0.0281     2.8707    27.7134 </r>
       <r>     0.1183     2.9996    27.9841 </r>
       <r>     0.2085     4.3459    28.3763 </r>
       <r>     0.2988     4.7644    28.8062 </r>
       <r>     0.3890     5.0708    29.2638 </r>
       <r>     0.4793     5.0860    29.7228 </r>
       <r>     0.5695     5.1441    30.1870 </r>
       <r>     0.6597     7.1742    30.8344 </r>
       <r>     0.7500     5.9184    31.3685 </r>
       <r>     0.8402     5.7774    31.8898 </r>
       <r>     0.9305     7.5841    32.5742 </r>
       <r>     1.0207     7.5733    33.2576 </r>
       <r>     1.1109     7.1101    33.8992 </r>
       <r>     1.2012     7.9739    34.6188 </r>
       <r>     1.2914     7.9336    35.3347 </r>
       <r>     1.3817     6.6084    35.9311 </r>
       <r>     1.4719     7.5284    36.6104 </r>
       <r>     1.5621    10.3989    37.5488 </r>
       <r>     1.6524    12.0518    38.6364 </r>
       <r>     1.7426    10.0571    39.5439 </r>
       <r>     1.8329     9.1140    40.3664 </r>
       <r>     1.9231     9.9851    41.2674 </r>
       <r>     2.0133     7.0025    41.8994 </r>
       <r>     2.1036     5.5412    42.3994 </r>
       <r>     2.1938     8.0374    43.1247 </r>
       <r>     2.2841     9.5083    43.9827 </r>
       <r>     2.3743     7.3809    44.6488 </r>
       <r>     2.4645     7.3689    45.3137 </r>
       <r>     2.5548     8.0846    46.0433 </r>
       <r>     2.6450     9.3847    46.8902 </r>
       <r>     2.7353     8.6033    47.6665 </r>
       <r>     2.8255     7.7947    48.3699 </r>
       <r>     2.9157    10.5057    49.3179 </r>
       <r>     3.0060     9.2730    50.1547 </r>
       <r>     3.0962     6.4561    50.7373 </r>
       <r>     3.1865     9.5676    51.6007 </r>
       <r>     3.2767    15.2104    52.9733 </r>
       <r>     3.3669    14.0284    54.2392 </r>
       <r>     3.4572    10.5368    55.1901 </r>
       <r>     3.5474     9.3531    56.0341 </r>
       <r>     3.6377    10.6193    56.9924 </r>
       <r>     3.7279     9.4299    57.8433 </r>
       <r>     3.8181    10.6075    58.8006 </r>
       <r>     3.9084    12.6438    59.9415 </r>
       <r>     3.9986     8.8479    60.7400 </r>
       <r>     4.0889     8.4741    61.5047 </r>
       <r>     4.1791    10.0988    62.4160 </r>
       <r>     4.2693    11.5569    63.4589 </r>
       <r>     4.3596    13.8130    64.7054 </r>
       <r>     4.4498    11.7892    65.7692 </r>
       <r>     4.5401     8.3448    66.5223 </r>
       <r>     4.6303    10.8971    67.5056 </r>
       <r>     4.7205    15.6457    68.9175 </r>
       <r>     4.8108    14.3585    70.2132 </r>
       <r>     4.9010     9.7040    71.0889 </r>
       <r>     4.9913     8.9718    71.8985 </r>
       <r>     5.0815     9.5370    72.7591 </r>
       <r>     5.1717    10.5185    73.7083 </r>
       <r>     5.2620    11.1969    74.7187 </r>
       <r>     5.3522    11.4638    75.7532 </r>
       <r>     5.4425    10.5582    76.7060 </r>
       <r>     5.5327    10.9368    77.6929 </r>
       <r>     5.6229     9.8839    78.5848 </r>
       <r>     5.7132     6.9803    79.2147 </r>
       <r>     5.8034     7.1977    79.8643 </r>
       <r>     5.8937    10.1956    80.7843 </r>
       <r>     5.9839    11.4614    81.8186 </r>
       <r>     6.0741    12.0943    82.9100 </r>
       <r>     6.1644    13.4327    84.1221 </r>
       <r>     6.2546    10.7971    85.0965 </r>
       <r>     6.3449     6.2818    85.6634 </r>
       <r>     6.4351     4.7325    86.0904 </r>
       <r>     6.5253     6.1312    86.6437 </r>
       <r>     6.6156     9.4824    87.4994 </r>
       <r>     6.7058    11.1683    88.5072 </r>
       <r>     6.7961    10.6918    89.4720 </r>
       <r>     6.8863     9.3167    90.3128 </r>
       <r>     6.9765     7.1490    90.9579 </r>
       <r>     7.0668     7.4005    91.6257 </r>
       <r>     7.1570     7.9545    92.3435 </r>
       <r>     7.2473     7.3080    93.0030 </r>
       <r>     7.3375     5.6592    93.5137 </r>
       <r>     7.4277     3.3133    93.8127 </r>
       <r>     7.5180     2.1725    94.0087 </r>
       <r>     7.6082     2.6654    94.2493 </r>
       <r>     7.6985     4.0759    94.6171 </r>
       <r>     7.7887     5.1417    95.0811 </r>
       <r>     7.8789     2.4020    95.2978 </r>
       <r>     7.9692     0.3746    95.3316 </r>
       <r>     8.0594     0.0187    95.3333 </r>
       <r>     8.1497     0.0008    95.3334 </r>
       <r>     8.2399     0.0289    95.3360 </r>
       <r>     8.3301     0.3235    95.3652 </r>
       <r>     8.4204     0.9030    95.4467 </r>
       <r>     8.5106     1.1466    95.5502 </r>
       <r>     8.6009     1.8045    95.7130 </r>
       <r>     8.6911     1.4660    95.8453 </r>
       <r>     8.7813     1.0342    95.9386 </r>
       <r>     8.8716     0.5822    95.9912 </r>
       <r>     8.9618     0.0944    95.9997 </r>
       <r>     9.0521     0.0036    96.0000 </r>
       <r>     9.1423     0.0000    96.0000 </r>
       <r>     9.2325     0.0000    96.0000 </r>
       <r>     9.3228     0.0000    96.0000 </r>
       <r>     9.4130     0.0000    96.0000 </r>
       <r>     9.5033     0.0000    96.0000 </r>
       <r>     9.5935     0.0000    96.0000 </r>
       <r>     9.6837     0.0000    96.0000 </r>
       <r>     9.7740     0.0000    96.0000 </r>
       <r>     9.8642     0.0001    96.0000 </r>
       <r>     9.9545     0.0082    96.0007 </r>
       <r>    10.0447     0.2447    96.0228 </r>
       <r>    10.1349     1.7538    96.1811 </r>
       <r>    10.2252     3.2573    96.4750 </r>
       <r>    10.3154     1.7630    96.6341 </r>
       <r>    10.4057     0.3372    96.6646 </r>
       <r>    10.4959     0.0890    96.6726 </r>
       <r>    10.5861     1.0604    96.7683 </r>
       <r>    10.6764     4.5349    97.1775 </r>
       <r>    10.7666     5.4169    97.6663 </r>
       <r>    10.8569     2.3869    97.8817 </r>
       <r>    10.9471     2.4180    98.0999 </r>
       <r>    11.0373     3.1660    98.3856 </r>
       <r>    11.1276     2.6197    98.6220 </r>
       <r>    11.2178     3.2514    98.9154 </r>
       <r>    11.3081     5.5118    99.4128 </r>
       <r>    11.3983     8.9625   100.2216 </r>
       <r>    11.4885    12.0460   101.3086 </r>
       <r>    11.5788     9.7256   102.1863 </r>
       <r>    11.6690     8.1769   102.9241 </r>
       <r>    11.7593     9.4793   103.7795 </r>
       <r>    11.8495     7.1381   104.4237 </r>
       <r>    11.9397     6.9286   105.0489 </r>
       <r>    12.0300     7.6246   105.7370 </r>
       <r>    12.1202     7.5382   106.4172 </r>
       <r>    12.2105     4.7078   106.8421 </r>
       <r>    12.3007     4.8435   107.2791 </r>
       <r>    12.3909     8.3369   108.0315 </r>
       <r>    12.4812    10.2529   108.9567 </r>
       <r>    12.5714    10.1366   109.8714 </r>
       <r>    12.6617    10.2658   110.7978 </r>
       <r>    12.7519     9.2500   111.6325 </r>
       <r>    12.8421     7.6270   112.3208 </r>
       <r>    12.9324     7.3853   112.9872 </r>
       <r>    13.0226     8.4995   113.7542 </r>
       <r>    13.1129    10.3711   114.6901 </r>
       <r>    13.2031     9.7215   115.5674 </r>
       <r>    13.2933     8.7141   116.3538 </r>
       <r>    13.3836     6.1544   116.9091 </r>
       <r>    13.4738     4.7729   117.3398 </r>
       <r>    13.5641     4.7394   117.7675 </r>
       <r>    13.6543     6.4997   118.3541 </r>
       <r>    13.7445     7.3932   119.0212 </r>
       <r>    13.8348     7.7713   119.7225 </r>
       <r>    13.9250     8.9142   120.5269 </r>
       <r>    14.0153     9.0036   121.3394 </r>
       <r>    14.1055     6.7994   121.9530 </r>
       <r>    14.1957     3.8454   122.3000 </r>
       <r>    14.2860     5.1820   122.7676 </r>
       <r>    14.3762     8.6982   123.5525 </r>
       <r>    14.4665     7.2306   124.2050 </r>
       <r>    14.5567     8.5816   124.9794 </r>
       <r>    14.6469     8.6712   125.7619 </r>
       <r>    14.7372     5.8445   126.2893 </r>
       <r>    14.8274     5.5072   126.7863 </r>
       <r>    14.9177     4.7637   127.2162 </r>
       <r>    15.0079     3.6160   127.5425 </r>
       <r>    15.0981     3.0025   127.8134 </r>
       <r>    15.1884     1.6186   127.9595 </r>
       <r>    15.2786     0.4137   127.9968 </r>
       <r>    15.3689     0.0345   127.9999 </r>
       <r>    15.4591     0.0007   128.0000 </r>
       <r>    15.5493     0.0000   128.0000 </r>
       <r>    15.6396     0.0000   128.0000 </r>
       <r>    15.7298     0.0000   128.0000 </r>
       <r>    15.8201     0.0000   128.0000 </r>
       <r>    15.9103     0.0000   128.0000 </r>
       <r>    16.0005     0.0000   128.0000 </r>
       <r>    16.0908     0.0000   128.0000 </r>
       <r>    16.1810     0.0000   128.0000 </r>
       <r>    16.2713     0.0000   128.0000 </r>
       <r>    16.3615     0.0000   128.0000 </r>
      </set>
     </set>
    </array>
   </total>
  </dos>
 </calculation>
 <structure name="finalpos" >
  <crystal>
   <varray name="basis" >
    <v>      16.16805053       0.00000000       0.03044617 </v>
    <v>       0.00000000       3.11450468       0.00000000 </v>
    <v>       0.00953685       0.00000000       5.09093404 </v>
   </varray>
   <i name="volume">    256.35546699 </i>
   <varray name="rec_basis" >
    <v>       0.06185059       0.00000000      -0.00011586 </v>
    <v>       0.00000000       0.32107834       0.00000000 </v>
    <v>      -0.00036990       0.00000000       0.19642830 </v>
   </varray>
  </crystal>
  <varray name="positions" >
   <v>       0.44662751       0.00000000       0.48960737 </v>
   <v>       0.27291967       0.50000000       0.48598527 </v>
   <v>       0.11180638       0.00000000       0.49562332 </v>
   <v>       0.94662751       0.50000000       0.48960737 </v>
   <v>       0.77291967       0.00000000       0.48598527 </v>
   <v>       0.61180638       0.50000000       0.49562332 </v>
   <v>       0.38749814       0.50000000       0.00841378 </v>
   <v>       0.22265720       0.00000000       0.00903718 </v>
   <v>       0.05774817       0.50000000       0.01018893 </v>
   <v>       0.88749814       0.00000000       0.00841378 </v>
   <v>       0.72265720       0.50000000       0.00903718 </v>
   <v>       0.55774817       0.00000000       0.01018893 </v>
   <v>       0.22160894       0.00000000       0.61461571 </v>
   <v>       0.05417713       0.50000000       0.61253867 </v>
   <v>       0.27863325       0.50000000       0.13457712 </v>
   <v>       0.72160894       0.50000000       0.61461571 </v>
   <v>       0.55417713       0.00000000       0.61253867 </v>
   <v>       0.77863325       0.00000000       0.13457712 </v>
   <v>       0.39203012       0.50000000       0.60947276 </v>
   <v>       0.44593593       0.00000000       0.13881044 </v>
   <v>       0.10835755       0.00000000       0.14112946 </v>
   <v>       0.89203012       0.00000000       0.60947276 </v>
   <v>       0.94593593       0.50000000       0.13881044 </v>
   <v>       0.60835755       0.50000000       0.14112946 </v>
  </varray>
 </structure>
</modeling>
