<?xml version="1.0" encoding="ISO-8859-1"?>
<modeling>
 <generator>
  <i name="program" type="string">vasp </i>
  <i name="version" type="string">5.3.5  </i>
  <i name="subversion" type="string">31Mar14 (build Jun 20 2014 13:15:13) complex                          parallel </i>
  <i name="platform" type="string">LinuxIFC </i>
  <i name="date" type="string">2025 11 28 </i>
  <i name="time" type="string">21:18:29 </i>
 </generator>
 <incar>
  <i type="string" name="PREC">accurate</i>
  <i type="int" name="IALGO">    68</i>
  <i type="logical" name="ADDGRID"> T  </i>
  <i type="int" name="NELM">   200</i>
  <i type="int" name="NELMIN">     4</i>
  <i type="int" name="IBRION">     2</i>
  <i name="EDIFF">      0.00000100</i>
  <i name="EDIFFG">     -0.02000000</i>
  <i type="int" name="NSW">    30</i>
  <i type="int" name="ISIF">     3</i>
  <i name="ENCUT">    500.00000000</i>
  <i type="logical" name="LREAL"> F  </i>
  <i type="int" name="ISMEAR">     1</i>
  <i name="SIGMA">      0.30000000</i>
  <i type="logical" name="LWAVE"> F  </i>
  <i type="logical" name="LCHARG"> F  </i>
  <i type="int" name="NELM">   200</i>
 </incar>
 <kpoints>
  <generation param="Auto">
   <i name="subdivisionlength">     70.00000000 </i>
   <v type="int" name="divisions">      16       17       17 </v>
   <v name="usershift">      0.00000000       0.00000000       0.00000000 </v>
   <v name="genvec1">      0.06250000       0.00000000       0.00000000 </v>
   <v name="genvec2">      0.00000000       0.05882353       0.00000000 </v>
   <v name="genvec3">      0.00000000       0.00000000       0.05882353 </v>
   <v name="shift">      0.00000000       0.00000000       0.00000000 </v>
  </generation>
  <varray name="kpointlist" >
   <v>       0.00000000       0.00000000       0.00000000 </v>
   <v>       0.06250000       0.00000000       0.00000000 </v>
   <v>       0.12500000       0.00000000       0.00000000 </v>
   <v>       0.18750000       0.00000000       0.00000000 </v>
   <v>       0.25000000       0.00000000       0.00000000 </v>
   <v>       0.31250000       0.00000000       0.00000000 </v>
   <v>       0.37500000       0.00000000       0.00000000 </v>
   <v>       0.43750000       0.00000000       0.00000000 </v>
   <v>       0.50000000       0.00000000       0.00000000 </v>
   <v>       0.00000000       0.05882353       0.00000000 </v>
   <v>       0.06250000       0.05882353       0.00000000 </v>
   <v>       0.12500000       0.05882353       0.00000000 </v>
   <v>       0.18750000       0.05882353       0.00000000 </v>
   <v>       0.25000000       0.05882353       0.00000000 </v>
   <v>       0.31250000       0.05882353       0.00000000 </v>
   <v>       0.37500000       0.05882353       0.00000000 </v>
   <v>       0.43750000       0.05882353       0.00000000 </v>
   <v>       0.50000000       0.05882353       0.00000000 </v>
   <v>      -0.43750000       0.05882353       0.00000000 </v>
   <v>      -0.37500000       0.05882353       0.00000000 </v>
   <v>      -0.31250000       0.05882353       0.00000000 </v>
   <v>      -0.25000000       0.05882353       0.00000000 </v>
   <v>      -0.18750000       0.05882353       0.00000000 </v>
   <v>      -0.12500000       0.05882353       0.00000000 </v>
   <v>      -0.06250000       0.05882353       0.00000000 </v>
   <v>       0.00000000       0.11764706       0.00000000 </v>
   <v>       0.06250000       0.11764706       0.00000000 </v>
   <v>       0.12500000       0.11764706       0.00000000 </v>
   <v>       0.18750000       0.11764706       0.00000000 </v>
   <v>       0.25000000       0.11764706       0.00000000 </v>
   <v>       0.31250000       0.11764706       0.00000000 </v>
   <v>       0.37500000       0.11764706       0.00000000 </v>
   <v>       0.43750000       0.11764706       0.00000000 </v>
   <v>       0.50000000       0.11764706       0.00000000 </v>
   <v>      -0.43750000       0.11764706       0.00000000 </v>
   <v>      -0.37500000       0.11764706       0.00000000 </v>
   <v>      -0.31250000       0.11764706       0.00000000 </v>
   <v>      -0.25000000       0.11764706       0.00000000 </v>
   <v>      -0.18750000       0.11764706       0.00000000 </v>
   <v>      -0.12500000       0.11764706       0.00000000 </v>
   <v>      -0.06250000       0.11764706       0.00000000 </v>
   <v>       0.00000000       0.17647059       0.00000000 </v>
   <v>       0.06250000       0.17647059       0.00000000 </v>
   <v>       0.12500000       0.17647059       0.00000000 </v>
   <v>       0.18750000       0.17647059       0.00000000 </v>
   <v>       0.25000000       0.17647059       0.00000000 </v>
   <v>       0.31250000       0.17647059       0.00000000 </v>
   <v>       0.37500000       0.17647059       0.00000000 </v>
   <v>       0.43750000       0.17647059       0.00000000 </v>
   <v>       0.50000000       0.17647059       0.00000000 </v>
   <v>      -0.43750000       0.17647059       0.00000000 </v>
   <v>      -0.37500000       0.17647059       0.00000000 </v>
   <v>      -0.31250000       0.17647059       0.00000000 </v>
   <v>      -0.25000000       0.17647059       0.00000000 </v>
   <v>      -0.18750000       0.17647059       0.00000000 </v>
   <v>      -0.12500000       0.17647059       0.00000000 </v>
   <v>      -0.06250000       0.17647059       0.00000000 </v>
   <v>       0.00000000       0.23529412       0.00000000 </v>
   <v>       0.06250000       0.23529412       0.00000000 </v>
   <v>       0.12500000       0.23529412       0.00000000 </v>
   <v>       0.18750000       0.23529412       0.00000000 </v>
   <v>       0.25000000       0.23529412       0.00000000 </v>
   <v>       0.31250000       0.23529412       0.00000000 </v>
   <v>       0.37500000       0.23529412       0.00000000 </v>
   <v>       0.43750000       0.23529412       0.00000000 </v>
   <v>       0.50000000       0.23529412       0.00000000 </v>
   <v>      -0.43750000       0.23529412       0.00000000 </v>
   <v>      -0.37500000       0.23529412       0.00000000 </v>
   <v>      -0.31250000       0.23529412       0.00000000 </v>
   <v>      -0.25000000       0.23529412       0.00000000 </v>
   <v>      -0.18750000       0.23529412       0.00000000 </v>
   <v>      -0.12500000       0.23529412       0.00000000 </v>
   <v>      -0.06250000       0.23529412       0.00000000 </v>
   <v>       0.00000000       0.29411765       0.00000000 </v>
   <v>       0.06250000       0.29411765       0.00000000 </v>
   <v>       0.12500000       0.29411765       0.00000000 </v>
   <v>       0.18750000       0.29411765       0.00000000 </v>
   <v>       0.25000000       0.29411765       0.00000000 </v>
   <v>       0.31250000       0.29411765       0.00000000 </v>
   <v>       0.37500000       0.29411765       0.00000000 </v>
   <v>       0.43750000       0.29411765       0.00000000 </v>
   <v>       0.50000000       0.29411765       0.00000000 </v>
   <v>      -0.43750000       0.29411765       0.00000000 </v>
   <v>      -0.37500000       0.29411765       0.00000000 </v>
   <v>      -0.31250000       0.29411765       0.00000000 </v>
   <v>      -0.25000000       0.29411765       0.00000000 </v>
   <v>      -0.18750000       0.29411765       0.00000000 </v>
   <v>      -0.12500000       0.29411765       0.00000000 </v>
   <v>      -0.06250000       0.29411765       0.00000000 </v>
   <v>       0.00000000       0.35294118       0.00000000 </v>
   <v>       0.06250000       0.35294118       0.00000000 </v>
   <v>       0.12500000       0.35294118       0.00000000 </v>
   <v>       0.18750000       0.35294118       0.00000000 </v>
   <v>       0.25000000       0.35294118       0.00000000 </v>
   <v>       0.31250000       0.35294118       0.00000000 </v>
   <v>       0.37500000       0.35294118       0.00000000 </v>
   <v>       0.43750000       0.35294118       0.00000000 </v>
   <v>       0.50000000       0.35294118       0.00000000 </v>
   <v>      -0.43750000       0.35294118       0.00000000 </v>
   <v>      -0.37500000       0.35294118       0.00000000 </v>
   <v>      -0.31250000       0.35294118       0.00000000 </v>
   <v>      -0.25000000       0.35294118       0.00000000 </v>
   <v>      -0.18750000       0.35294118       0.00000000 </v>
   <v>      -0.12500000       0.35294118       0.00000000 </v>
   <v>      -0.06250000       0.35294118       0.00000000 </v>
   <v>       0.00000000       0.41176471       0.00000000 </v>
   <v>       0.06250000       0.41176471       0.00000000 </v>
   <v>       0.12500000       0.41176471       0.00000000 </v>
   <v>       0.18750000       0.41176471       0.00000000 </v>
   <v>       0.25000000       0.41176471       0.00000000 </v>
   <v>       0.31250000       0.41176471       0.00000000 </v>
   <v>       0.37500000       0.41176471       0.00000000 </v>
   <v>       0.43750000       0.41176471       0.00000000 </v>
   <v>       0.50000000       0.41176471       0.00000000 </v>
   <v>      -0.43750000       0.41176471       0.00000000 </v>
   <v>      -0.37500000       0.41176471       0.00000000 </v>
   <v>      -0.31250000       0.41176471       0.00000000 </v>
   <v>      -0.25000000       0.41176471       0.00000000 </v>
   <v>      -0.18750000       0.41176471       0.00000000 </v>
   <v>      -0.12500000       0.41176471       0.00000000 </v>
   <v>      -0.06250000       0.41176471       0.00000000 </v>
   <v>       0.00000000       0.47058824       0.00000000 </v>
   <v>       0.06250000       0.47058824       0.00000000 </v>
   <v>       0.12500000       0.47058824       0.00000000 </v>
   <v>       0.18750000       0.47058824       0.00000000 </v>
   <v>       0.25000000       0.47058824       0.00000000 </v>
   <v>       0.31250000       0.47058824       0.00000000 </v>
   <v>       0.37500000       0.47058824       0.00000000 </v>
   <v>       0.43750000       0.47058824       0.00000000 </v>
   <v>       0.50000000       0.47058824       0.00000000 </v>
   <v>      -0.43750000       0.47058824       0.00000000 </v>
   <v>      -0.37500000       0.47058824       0.00000000 </v>
   <v>      -0.31250000       0.47058824       0.00000000 </v>
   <v>      -0.25000000       0.47058824       0.00000000 </v>
   <v>      -0.18750000       0.47058824       0.00000000 </v>
   <v>      -0.12500000       0.47058824       0.00000000 </v>
   <v>      -0.06250000       0.47058824       0.00000000 </v>
   <v>       0.00000000       0.05882353       0.05882353 </v>
   <v>       0.06250000       0.05882353       0.05882353 </v>
   <v>       0.12500000       0.05882353       0.05882353 </v>
   <v>       0.18750000       0.05882353       0.05882353 </v>
   <v>       0.25000000       0.05882353       0.05882353 </v>
   <v>       0.31250000       0.05882353       0.05882353 </v>
   <v>       0.37500000       0.05882353       0.05882353 </v>
   <v>       0.43750000       0.05882353       0.05882353 </v>
   <v>       0.50000000       0.05882353       0.05882353 </v>
   <v>      -0.43750000       0.05882353       0.05882353 </v>
   <v>      -0.37500000       0.05882353       0.05882353 </v>
   <v>      -0.31250000       0.05882353       0.05882353 </v>
   <v>      -0.25000000       0.05882353       0.05882353 </v>
   <v>      -0.18750000       0.05882353       0.05882353 </v>
   <v>      -0.12500000       0.05882353       0.05882353 </v>
   <v>      -0.06250000       0.05882353       0.05882353 </v>
   <v>       0.00000000       0.11764706       0.05882353 </v>
   <v>       0.06250000       0.11764706       0.05882353 </v>
   <v>       0.12500000       0.11764706       0.05882353 </v>
   <v>       0.18750000       0.11764706       0.05882353 </v>
   <v>       0.25000000       0.11764706       0.05882353 </v>
   <v>       0.31250000       0.11764706       0.05882353 </v>
   <v>       0.37500000       0.11764706       0.05882353 </v>
   <v>       0.43750000       0.11764706       0.05882353 </v>
   <v>       0.50000000       0.11764706       0.05882353 </v>
   <v>      -0.43750000       0.11764706       0.05882353 </v>
   <v>      -0.37500000       0.11764706       0.05882353 </v>
   <v>      -0.31250000       0.11764706       0.05882353 </v>
   <v>      -0.25000000       0.11764706       0.05882353 </v>
   <v>      -0.18750000       0.11764706       0.05882353 </v>
   <v>      -0.12500000       0.11764706       0.05882353 </v>
   <v>      -0.06250000       0.11764706       0.05882353 </v>
   <v>       0.00000000       0.17647059       0.05882353 </v>
   <v>       0.06250000       0.17647059       0.05882353 </v>
   <v>       0.12500000       0.17647059       0.05882353 </v>
   <v>       0.18750000       0.17647059       0.05882353 </v>
   <v>       0.25000000       0.17647059       0.05882353 </v>
   <v>       0.31250000       0.17647059       0.05882353 </v>
   <v>       0.37500000       0.17647059       0.05882353 </v>
   <v>       0.43750000       0.17647059       0.05882353 </v>
   <v>       0.50000000       0.17647059       0.05882353 </v>
   <v>      -0.43750000       0.17647059       0.05882353 </v>
   <v>      -0.37500000       0.17647059       0.05882353 </v>
   <v>      -0.31250000       0.17647059       0.05882353 </v>
   <v>      -0.25000000       0.17647059       0.05882353 </v>
   <v>      -0.18750000       0.17647059       0.05882353 </v>
   <v>      -0.12500000       0.17647059       0.05882353 </v>
   <v>      -0.06250000       0.17647059       0.05882353 </v>
   <v>       0.00000000       0.23529412       0.05882353 </v>
   <v>       0.06250000       0.23529412       0.05882353 </v>
   <v>       0.12500000       0.23529412       0.05882353 </v>
   <v>       0.18750000       0.23529412       0.05882353 </v>
   <v>       0.25000000       0.23529412       0.05882353 </v>
   <v>       0.31250000       0.23529412       0.05882353 </v>
   <v>       0.37500000       0.23529412       0.05882353 </v>
   <v>       0.43750000       0.23529412       0.05882353 </v>
   <v>       0.50000000       0.23529412       0.05882353 </v>
   <v>      -0.43750000       0.23529412       0.05882353 </v>
   <v>      -0.37500000       0.23529412       0.05882353 </v>
   <v>      -0.31250000       0.23529412       0.05882353 </v>
   <v>      -0.25000000       0.23529412       0.05882353 </v>
   <v>      -0.18750000       0.23529412       0.05882353 </v>
   <v>      -0.12500000       0.23529412       0.05882353 </v>
   <v>      -0.06250000       0.23529412       0.05882353 </v>
   <v>       0.00000000       0.29411765       0.05882353 </v>
   <v>       0.06250000       0.29411765       0.05882353 </v>
   <v>       0.12500000       0.29411765       0.05882353 </v>
   <v>       0.18750000       0.29411765       0.05882353 </v>
   <v>       0.25000000       0.29411765       0.05882353 </v>
   <v>       0.31250000       0.29411765       0.05882353 </v>
   <v>       0.37500000       0.29411765       0.05882353 </v>
   <v>       0.43750000       0.29411765       0.05882353 </v>
   <v>       0.50000000       0.29411765       0.05882353 </v>
   <v>      -0.43750000       0.29411765       0.05882353 </v>
   <v>      -0.37500000       0.29411765       0.05882353 </v>
   <v>      -0.31250000       0.29411765       0.05882353 </v>
   <v>      -0.25000000       0.29411765       0.05882353 </v>
   <v>      -0.18750000       0.29411765       0.05882353 </v>
   <v>      -0.12500000       0.29411765       0.05882353 </v>
   <v>      -0.06250000       0.29411765       0.05882353 </v>
   <v>       0.00000000       0.35294118       0.05882353 </v>
   <v>       0.06250000       0.35294118       0.05882353 </v>
   <v>       0.12500000       0.35294118       0.05882353 </v>
   <v>       0.18750000       0.35294118       0.05882353 </v>
   <v>       0.25000000       0.35294118       0.05882353 </v>
   <v>       0.31250000       0.35294118       0.05882353 </v>
   <v>       0.37500000       0.35294118       0.05882353 </v>
   <v>       0.43750000       0.35294118       0.05882353 </v>
   <v>       0.50000000       0.35294118       0.05882353 </v>
   <v>      -0.43750000       0.35294118       0.05882353 </v>
   <v>      -0.37500000       0.35294118       0.05882353 </v>
   <v>      -0.31250000       0.35294118       0.05882353 </v>
   <v>      -0.25000000       0.35294118       0.05882353 </v>
   <v>      -0.18750000       0.35294118       0.05882353 </v>
   <v>      -0.12500000       0.35294118       0.05882353 </v>
   <v>      -0.06250000       0.35294118       0.05882353 </v>
   <v>       0.00000000       0.41176471       0.05882353 </v>
   <v>       0.06250000       0.41176471       0.05882353 </v>
   <v>       0.12500000       0.41176471       0.05882353 </v>
   <v>       0.18750000       0.41176471       0.05882353 </v>
   <v>       0.25000000       0.41176471       0.05882353 </v>
   <v>       0.31250000       0.41176471       0.05882353 </v>
   <v>       0.37500000       0.41176471       0.05882353 </v>
   <v>       0.43750000       0.41176471       0.05882353 </v>
   <v>       0.50000000       0.41176471       0.05882353 </v>
   <v>      -0.43750000       0.41176471       0.05882353 </v>
   <v>      -0.37500000       0.41176471       0.05882353 </v>
   <v>      -0.31250000       0.41176471       0.05882353 </v>
   <v>      -0.25000000       0.41176471       0.05882353 </v>
   <v>      -0.18750000       0.41176471       0.05882353 </v>
   <v>      -0.12500000       0.41176471       0.05882353 </v>
   <v>      -0.06250000       0.41176471       0.05882353 </v>
   <v>       0.00000000       0.47058824       0.05882353 </v>
   <v>       0.06250000       0.47058824       0.05882353 </v>
   <v>       0.12500000       0.47058824       0.05882353 </v>
   <v>       0.18750000       0.47058824       0.05882353 </v>
   <v>       0.25000000       0.47058824       0.05882353 </v>
   <v>       0.31250000       0.47058824       0.05882353 </v>
   <v>       0.37500000       0.47058824       0.05882353 </v>
   <v>       0.43750000       0.47058824       0.05882353 </v>
   <v>       0.50000000       0.47058824       0.05882353 </v>
   <v>      -0.43750000       0.47058824       0.05882353 </v>
   <v>      -0.37500000       0.47058824       0.05882353 </v>
   <v>      -0.31250000       0.47058824       0.05882353 </v>
   <v>      -0.25000000       0.47058824       0.05882353 </v>
   <v>      -0.18750000       0.47058824       0.05882353 </v>
   <v>      -0.12500000       0.47058824       0.05882353 </v>
   <v>      -0.06250000       0.47058824       0.05882353 </v>
   <v>       0.00000000      -0.47058824       0.05882353 </v>
   <v>       0.06250000      -0.47058824       0.05882353 </v>
   <v>       0.12500000      -0.47058824       0.05882353 </v>
   <v>       0.18750000      -0.47058824       0.05882353 </v>
   <v>       0.25000000      -0.47058824       0.05882353 </v>
   <v>       0.31250000      -0.47058824       0.05882353 </v>
   <v>       0.37500000      -0.47058824       0.05882353 </v>
   <v>       0.43750000      -0.47058824       0.05882353 </v>
   <v>       0.50000000      -0.47058824       0.05882353 </v>
   <v>      -0.43750000      -0.47058824       0.05882353 </v>
   <v>      -0.37500000      -0.47058824       0.05882353 </v>
   <v>      -0.31250000      -0.47058824       0.05882353 </v>
   <v>      -0.25000000      -0.47058824       0.05882353 </v>
   <v>      -0.18750000      -0.47058824       0.05882353 </v>
   <v>      -0.12500000      -0.47058824       0.05882353 </v>
   <v>      -0.06250000      -0.47058824       0.05882353 </v>
   <v>       0.00000000      -0.41176471       0.05882353 </v>
   <v>       0.06250000      -0.41176471       0.05882353 </v>
   <v>       0.12500000      -0.41176471       0.05882353 </v>
   <v>       0.18750000      -0.41176471       0.05882353 </v>
   <v>       0.25000000      -0.41176471       0.05882353 </v>
   <v>       0.31250000      -0.41176471       0.05882353 </v>
   <v>       0.37500000      -0.41176471       0.05882353 </v>
   <v>       0.43750000      -0.41176471       0.05882353 </v>
   <v>       0.50000000      -0.41176471       0.05882353 </v>
   <v>      -0.43750000      -0.41176471       0.05882353 </v>
   <v>      -0.37500000      -0.41176471       0.05882353 </v>
   <v>      -0.31250000      -0.41176471       0.05882353 </v>
   <v>      -0.25000000      -0.41176471       0.05882353 </v>
   <v>      -0.18750000      -0.41176471       0.05882353 </v>
   <v>      -0.12500000      -0.41176471       0.05882353 </v>
   <v>      -0.06250000      -0.41176471       0.05882353 </v>
   <v>       0.00000000      -0.35294118       0.05882353 </v>
   <v>       0.06250000      -0.35294118       0.05882353 </v>
   <v>       0.12500000      -0.35294118       0.05882353 </v>
   <v>       0.18750000      -0.35294118       0.05882353 </v>
   <v>       0.25000000      -0.35294118       0.05882353 </v>
   <v>       0.31250000      -0.35294118       0.05882353 </v>
   <v>       0.37500000      -0.35294118       0.05882353 </v>
   <v>       0.43750000      -0.35294118       0.05882353 </v>
   <v>       0.50000000      -0.35294118       0.05882353 </v>
   <v>      -0.43750000      -0.35294118       0.05882353 </v>
   <v>      -0.37500000      -0.35294118       0.05882353 </v>
   <v>      -0.31250000      -0.35294118       0.05882353 </v>
   <v>      -0.25000000      -0.35294118       0.05882353 </v>
   <v>      -0.18750000      -0.35294118       0.05882353 </v>
   <v>      -0.12500000      -0.35294118       0.05882353 </v>
   <v>      -0.06250000      -0.35294118       0.05882353 </v>
   <v>       0.00000000      -0.29411765       0.05882353 </v>
   <v>       0.06250000      -0.29411765       0.05882353 </v>
   <v>       0.12500000      -0.29411765       0.05882353 </v>
   <v>       0.18750000      -0.29411765       0.05882353 </v>
   <v>       0.25000000      -0.29411765       0.05882353 </v>
   <v>       0.31250000      -0.29411765       0.05882353 </v>
   <v>       0.37500000      -0.29411765       0.05882353 </v>
   <v>       0.43750000      -0.29411765       0.05882353 </v>
   <v>       0.50000000      -0.29411765       0.05882353 </v>
   <v>      -0.43750000      -0.29411765       0.05882353 </v>
   <v>      -0.37500000      -0.29411765       0.05882353 </v>
   <v>      -0.31250000      -0.29411765       0.05882353 </v>
   <v>      -0.25000000      -0.29411765       0.05882353 </v>
   <v>      -0.18750000      -0.29411765       0.05882353 </v>
   <v>      -0.12500000      -0.29411765       0.05882353 </v>
   <v>      -0.06250000      -0.29411765       0.05882353 </v>
   <v>       0.00000000      -0.23529412       0.05882353 </v>
   <v>       0.06250000      -0.23529412       0.05882353 </v>
   <v>       0.12500000      -0.23529412       0.05882353 </v>
   <v>       0.18750000      -0.23529412       0.05882353 </v>
   <v>       0.25000000      -0.23529412       0.05882353 </v>
   <v>       0.31250000      -0.23529412       0.05882353 </v>
   <v>       0.37500000      -0.23529412       0.05882353 </v>
   <v>       0.43750000      -0.23529412       0.05882353 </v>
   <v>       0.50000000      -0.23529412       0.05882353 </v>
   <v>      -0.43750000      -0.23529412       0.05882353 </v>
   <v>      -0.37500000      -0.23529412       0.05882353 </v>
   <v>      -0.31250000      -0.23529412       0.05882353 </v>
   <v>      -0.25000000      -0.23529412       0.05882353 </v>
   <v>      -0.18750000      -0.23529412       0.05882353 </v>
   <v>      -0.12500000      -0.23529412       0.05882353 </v>
   <v>      -0.06250000      -0.23529412       0.05882353 </v>
   <v>       0.00000000      -0.17647059       0.05882353 </v>
   <v>       0.06250000      -0.17647059       0.05882353 </v>
   <v>       0.12500000      -0.17647059       0.05882353 </v>
   <v>       0.18750000      -0.17647059       0.05882353 </v>
   <v>       0.25000000      -0.17647059       0.05882353 </v>
   <v>       0.31250000      -0.17647059       0.05882353 </v>
   <v>       0.37500000      -0.17647059       0.05882353 </v>
   <v>       0.43750000      -0.17647059       0.05882353 </v>
   <v>       0.50000000      -0.17647059       0.05882353 </v>
   <v>      -0.43750000      -0.17647059       0.05882353 </v>
   <v>      -0.37500000      -0.17647059       0.05882353 </v>
   <v>      -0.31250000      -0.17647059       0.05882353 </v>
   <v>      -0.25000000      -0.17647059       0.05882353 </v>
   <v>      -0.18750000      -0.17647059       0.05882353 </v>
   <v>      -0.12500000      -0.17647059       0.05882353 </v>
   <v>      -0.06250000      -0.17647059       0.05882353 </v>
   <v>       0.00000000      -0.11764706       0.05882353 </v>
   <v>       0.06250000      -0.11764706       0.05882353 </v>
   <v>       0.12500000      -0.11764706       0.05882353 </v>
   <v>       0.18750000      -0.11764706       0.05882353 </v>
   <v>       0.25000000      -0.11764706       0.05882353 </v>
   <v>       0.31250000      -0.11764706       0.05882353 </v>
   <v>       0.37500000      -0.11764706       0.05882353 </v>
   <v>       0.43750000      -0.11764706       0.05882353 </v>
   <v>       0.50000000      -0.11764706       0.05882353 </v>
   <v>      -0.43750000      -0.11764706       0.05882353 </v>
   <v>      -0.37500000      -0.11764706       0.05882353 </v>
   <v>      -0.31250000      -0.11764706       0.05882353 </v>
   <v>      -0.25000000      -0.11764706       0.05882353 </v>
   <v>      -0.18750000      -0.11764706       0.05882353 </v>
   <v>      -0.12500000      -0.11764706       0.05882353 </v>
   <v>      -0.06250000      -0.11764706       0.05882353 </v>
   <v>       0.00000000      -0.05882353       0.05882353 </v>
   <v>       0.06250000      -0.05882353       0.05882353 </v>
   <v>       0.12500000      -0.05882353       0.05882353 </v>
   <v>       0.18750000      -0.05882353       0.05882353 </v>
   <v>       0.25000000      -0.05882353       0.05882353 </v>
   <v>       0.31250000      -0.05882353       0.05882353 </v>
   <v>       0.37500000      -0.05882353       0.05882353 </v>
   <v>       0.43750000      -0.05882353       0.05882353 </v>
   <v>       0.50000000      -0.05882353       0.05882353 </v>
   <v>       0.00000000       0.11764706       0.11764706 </v>
   <v>       0.06250000       0.11764706       0.11764706 </v>
   <v>       0.12500000       0.11764706       0.11764706 </v>
   <v>       0.18750000       0.11764706       0.11764706 </v>
   <v>       0.25000000       0.11764706       0.11764706 </v>
   <v>       0.31250000       0.11764706       0.11764706 </v>
   <v>       0.37500000       0.11764706       0.11764706 </v>
   <v>       0.43750000       0.11764706       0.11764706 </v>
   <v>       0.50000000       0.11764706       0.11764706 </v>
   <v>      -0.43750000       0.11764706       0.11764706 </v>
   <v>      -0.37500000       0.11764706       0.11764706 </v>
   <v>      -0.31250000       0.11764706       0.11764706 </v>
   <v>      -0.25000000       0.11764706       0.11764706 </v>
   <v>      -0.18750000       0.11764706       0.11764706 </v>
   <v>      -0.12500000       0.11764706       0.11764706 </v>
   <v>      -0.06250000       0.11764706       0.11764706 </v>
   <v>       0.00000000       0.17647059       0.11764706 </v>
   <v>       0.06250000       0.17647059       0.11764706 </v>
   <v>       0.12500000       0.17647059       0.11764706 </v>
   <v>       0.18750000       0.17647059       0.11764706 </v>
   <v>       0.25000000       0.17647059       0.11764706 </v>
   <v>       0.31250000       0.17647059       0.11764706 </v>
   <v>       0.37500000       0.17647059       0.11764706 </v>
   <v>       0.43750000       0.17647059       0.11764706 </v>
   <v>       0.50000000       0.17647059       0.11764706 </v>
   <v>      -0.43750000       0.17647059       0.11764706 </v>
   <v>      -0.37500000       0.17647059       0.11764706 </v>
   <v>      -0.31250000       0.17647059       0.11764706 </v>
   <v>      -0.25000000       0.17647059       0.11764706 </v>
   <v>      -0.18750000       0.17647059       0.11764706 </v>
   <v>      -0.12500000       0.17647059       0.11764706 </v>
   <v>      -0.06250000       0.17647059       0.11764706 </v>
   <v>       0.00000000       0.23529412       0.11764706 </v>
   <v>       0.06250000       0.23529412       0.11764706 </v>
   <v>       0.12500000       0.23529412       0.11764706 </v>
   <v>       0.18750000       0.23529412       0.11764706 </v>
   <v>       0.25000000       0.23529412       0.11764706 </v>
   <v>       0.31250000       0.23529412       0.11764706 </v>
   <v>       0.37500000       0.23529412       0.11764706 </v>
   <v>       0.43750000       0.23529412       0.11764706 </v>
   <v>       0.50000000       0.23529412       0.11764706 </v>
   <v>      -0.43750000       0.23529412       0.11764706 </v>
   <v>      -0.37500000       0.23529412       0.11764706 </v>
   <v>      -0.31250000       0.23529412       0.11764706 </v>
   <v>      -0.25000000       0.23529412       0.11764706 </v>
   <v>      -0.18750000       0.23529412       0.11764706 </v>
   <v>      -0.12500000       0.23529412       0.11764706 </v>
   <v>      -0.06250000       0.23529412       0.11764706 </v>
   <v>       0.00000000       0.29411765       0.11764706 </v>
   <v>       0.06250000       0.29411765       0.11764706 </v>
   <v>       0.12500000       0.29411765       0.11764706 </v>
   <v>       0.18750000       0.29411765       0.11764706 </v>
   <v>       0.25000000       0.29411765       0.11764706 </v>
   <v>       0.31250000       0.29411765       0.11764706 </v>
   <v>       0.37500000       0.29411765       0.11764706 </v>
   <v>       0.43750000       0.29411765       0.11764706 </v>
   <v>       0.50000000       0.29411765       0.11764706 </v>
   <v>      -0.43750000       0.29411765       0.11764706 </v>
   <v>      -0.37500000       0.29411765       0.11764706 </v>
   <v>      -0.31250000       0.29411765       0.11764706 </v>
   <v>      -0.25000000       0.29411765       0.11764706 </v>
   <v>      -0.18750000       0.29411765       0.11764706 </v>
   <v>      -0.12500000       0.29411765       0.11764706 </v>
   <v>      -0.06250000       0.29411765       0.11764706 </v>
   <v>       0.00000000       0.35294118       0.11764706 </v>
   <v>       0.06250000       0.35294118       0.11764706 </v>
   <v>       0.12500000       0.35294118       0.11764706 </v>
   <v>       0.18750000       0.35294118       0.11764706 </v>
   <v>       0.25000000       0.35294118       0.11764706 </v>
   <v>       0.31250000       0.35294118       0.11764706 </v>
   <v>       0.37500000       0.35294118       0.11764706 </v>
   <v>       0.43750000       0.35294118       0.11764706 </v>
   <v>       0.50000000       0.35294118       0.11764706 </v>
   <v>      -0.43750000       0.35294118       0.11764706 </v>
   <v>      -0.37500000       0.35294118       0.11764706 </v>
   <v>      -0.31250000       0.35294118       0.11764706 </v>
   <v>      -0.25000000       0.35294118       0.11764706 </v>
   <v>      -0.18750000       0.35294118       0.11764706 </v>
   <v>      -0.12500000       0.35294118       0.11764706 </v>
   <v>      -0.06250000       0.35294118       0.11764706 </v>
   <v>       0.00000000       0.41176471       0.11764706 </v>
   <v>       0.06250000       0.41176471       0.11764706 </v>
   <v>       0.12500000       0.41176471       0.11764706 </v>
   <v>       0.18750000       0.41176471       0.11764706 </v>
   <v>       0.25000000       0.41176471       0.11764706 </v>
   <v>       0.31250000       0.41176471       0.11764706 </v>
   <v>       0.37500000       0.41176471       0.11764706 </v>
   <v>       0.43750000       0.41176471       0.11764706 </v>
   <v>       0.50000000       0.41176471       0.11764706 </v>
   <v>      -0.43750000       0.41176471       0.11764706 </v>
   <v>      -0.37500000       0.41176471       0.11764706 </v>
   <v>      -0.31250000       0.41176471       0.11764706 </v>
   <v>      -0.25000000       0.41176471       0.11764706 </v>
   <v>      -0.18750000       0.41176471       0.11764706 </v>
   <v>      -0.12500000       0.41176471       0.11764706 </v>
   <v>      -0.06250000       0.41176471       0.11764706 </v>
   <v>       0.00000000       0.47058824       0.11764706 </v>
   <v>       0.06250000       0.47058824       0.11764706 </v>
   <v>       0.12500000       0.47058824       0.11764706 </v>
   <v>       0.18750000       0.47058824       0.11764706 </v>
   <v>       0.25000000       0.47058824       0.11764706 </v>
   <v>       0.31250000       0.47058824       0.11764706 </v>
   <v>       0.37500000       0.47058824       0.11764706 </v>
   <v>       0.43750000       0.47058824       0.11764706 </v>
   <v>       0.50000000       0.47058824       0.11764706 </v>
   <v>      -0.43750000       0.47058824       0.11764706 </v>
   <v>      -0.37500000       0.47058824       0.11764706 </v>
   <v>      -0.31250000       0.47058824       0.11764706 </v>
   <v>      -0.25000000       0.47058824       0.11764706 </v>
   <v>      -0.18750000       0.47058824       0.11764706 </v>
   <v>      -0.12500000       0.47058824       0.11764706 </v>
   <v>      -0.06250000       0.47058824       0.11764706 </v>
   <v>       0.00000000      -0.47058824       0.11764706 </v>
   <v>       0.06250000      -0.47058824       0.11764706 </v>
   <v>       0.12500000      -0.47058824       0.11764706 </v>
   <v>       0.18750000      -0.47058824       0.11764706 </v>
   <v>       0.25000000      -0.47058824       0.11764706 </v>
   <v>       0.31250000      -0.47058824       0.11764706 </v>
   <v>       0.37500000      -0.47058824       0.11764706 </v>
   <v>       0.43750000      -0.47058824       0.11764706 </v>
   <v>       0.50000000      -0.47058824       0.11764706 </v>
   <v>      -0.43750000      -0.47058824       0.11764706 </v>
   <v>      -0.37500000      -0.47058824       0.11764706 </v>
   <v>      -0.31250000      -0.47058824       0.11764706 </v>
   <v>      -0.25000000      -0.47058824       0.11764706 </v>
   <v>      -0.18750000      -0.47058824       0.11764706 </v>
   <v>      -0.12500000      -0.47058824       0.11764706 </v>
   <v>      -0.06250000      -0.47058824       0.11764706 </v>
   <v>       0.00000000      -0.41176471       0.11764706 </v>
   <v>       0.06250000      -0.41176471       0.11764706 </v>
   <v>       0.12500000      -0.41176471       0.11764706 </v>
   <v>       0.18750000      -0.41176471       0.11764706 </v>
   <v>       0.25000000      -0.41176471       0.11764706 </v>
   <v>       0.31250000      -0.41176471       0.11764706 </v>
   <v>       0.37500000      -0.41176471       0.11764706 </v>
   <v>       0.43750000      -0.41176471       0.11764706 </v>
   <v>       0.50000000      -0.41176471       0.11764706 </v>
   <v>      -0.43750000      -0.41176471       0.11764706 </v>
   <v>      -0.37500000      -0.41176471       0.11764706 </v>
   <v>      -0.31250000      -0.41176471       0.11764706 </v>
   <v>      -0.25000000      -0.41176471       0.11764706 </v>
   <v>      -0.18750000      -0.41176471       0.11764706 </v>
   <v>      -0.12500000      -0.41176471       0.11764706 </v>
   <v>      -0.06250000      -0.41176471       0.11764706 </v>
   <v>       0.00000000      -0.35294118       0.11764706 </v>
   <v>       0.06250000      -0.35294118       0.11764706 </v>
   <v>       0.12500000      -0.35294118       0.11764706 </v>
   <v>       0.18750000      -0.35294118       0.11764706 </v>
   <v>       0.25000000      -0.35294118       0.11764706 </v>
   <v>       0.31250000      -0.35294118       0.11764706 </v>
   <v>       0.37500000      -0.35294118       0.11764706 </v>
   <v>       0.43750000      -0.35294118       0.11764706 </v>
   <v>       0.50000000      -0.35294118       0.11764706 </v>
   <v>      -0.43750000      -0.35294118       0.11764706 </v>
   <v>      -0.37500000      -0.35294118       0.11764706 </v>
   <v>      -0.31250000      -0.35294118       0.11764706 </v>
   <v>      -0.25000000      -0.35294118       0.11764706 </v>
   <v>      -0.18750000      -0.35294118       0.11764706 </v>
   <v>      -0.12500000      -0.35294118       0.11764706 </v>
   <v>      -0.06250000      -0.35294118       0.11764706 </v>
   <v>       0.00000000      -0.29411765       0.11764706 </v>
   <v>       0.06250000      -0.29411765       0.11764706 </v>
   <v>       0.12500000      -0.29411765       0.11764706 </v>
   <v>       0.18750000      -0.29411765       0.11764706 </v>
   <v>       0.25000000      -0.29411765       0.11764706 </v>
   <v>       0.31250000      -0.29411765       0.11764706 </v>
   <v>       0.37500000      -0.29411765       0.11764706 </v>
   <v>       0.43750000      -0.29411765       0.11764706 </v>
   <v>       0.50000000      -0.29411765       0.11764706 </v>
   <v>      -0.43750000      -0.29411765       0.11764706 </v>
   <v>      -0.37500000      -0.29411765       0.11764706 </v>
   <v>      -0.31250000      -0.29411765       0.11764706 </v>
   <v>      -0.25000000      -0.29411765       0.11764706 </v>
   <v>      -0.18750000      -0.29411765       0.11764706 </v>
   <v>      -0.12500000      -0.29411765       0.11764706 </v>
   <v>      -0.06250000      -0.29411765       0.11764706 </v>
   <v>       0.00000000      -0.23529412       0.11764706 </v>
   <v>       0.06250000      -0.23529412       0.11764706 </v>
   <v>       0.12500000      -0.23529412       0.11764706 </v>
   <v>       0.18750000      -0.23529412       0.11764706 </v>
   <v>       0.25000000      -0.23529412       0.11764706 </v>
   <v>       0.31250000      -0.23529412       0.11764706 </v>
   <v>       0.37500000      -0.23529412       0.11764706 </v>
   <v>       0.43750000      -0.23529412       0.11764706 </v>
   <v>       0.50000000      -0.23529412       0.11764706 </v>
   <v>      -0.43750000      -0.23529412       0.11764706 </v>
   <v>      -0.37500000      -0.23529412       0.11764706 </v>
   <v>      -0.31250000      -0.23529412       0.11764706 </v>
   <v>      -0.25000000      -0.23529412       0.11764706 </v>
   <v>      -0.18750000      -0.23529412       0.11764706 </v>
   <v>      -0.12500000      -0.23529412       0.11764706 </v>
   <v>      -0.06250000      -0.23529412       0.11764706 </v>
   <v>       0.00000000      -0.17647059       0.11764706 </v>
   <v>       0.06250000      -0.17647059       0.11764706 </v>
   <v>       0.12500000      -0.17647059       0.11764706 </v>
   <v>       0.18750000      -0.17647059       0.11764706 </v>
   <v>       0.25000000      -0.17647059       0.11764706 </v>
   <v>       0.31250000      -0.17647059       0.11764706 </v>
   <v>       0.37500000      -0.17647059       0.11764706 </v>
   <v>       0.43750000      -0.17647059       0.11764706 </v>
   <v>       0.50000000      -0.17647059       0.11764706 </v>
   <v>      -0.43750000      -0.17647059       0.11764706 </v>
   <v>      -0.37500000      -0.17647059       0.11764706 </v>
   <v>      -0.31250000      -0.17647059       0.11764706 </v>
   <v>      -0.25000000      -0.17647059       0.11764706 </v>
   <v>      -0.18750000      -0.17647059       0.11764706 </v>
   <v>      -0.12500000      -0.17647059       0.11764706 </v>
   <v>      -0.06250000      -0.17647059       0.11764706 </v>
   <v>       0.00000000      -0.11764706       0.11764706 </v>
   <v>       0.06250000      -0.11764706       0.11764706 </v>
   <v>       0.12500000      -0.11764706       0.11764706 </v>
   <v>       0.18750000      -0.11764706       0.11764706 </v>
   <v>       0.25000000      -0.11764706       0.11764706 </v>
   <v>       0.31250000      -0.11764706       0.11764706 </v>
   <v>       0.37500000      -0.11764706       0.11764706 </v>
   <v>       0.43750000      -0.11764706       0.11764706 </v>
   <v>       0.50000000      -0.11764706       0.11764706 </v>
   <v>       0.00000000       0.17647059       0.17647059 </v>
   <v>       0.06250000       0.17647059       0.17647059 </v>
   <v>       0.12500000       0.17647059       0.17647059 </v>
   <v>       0.18750000       0.17647059       0.17647059 </v>
   <v>       0.25000000       0.17647059       0.17647059 </v>
   <v>       0.31250000       0.17647059       0.17647059 </v>
   <v>       0.37500000       0.17647059       0.17647059 </v>
   <v>       0.43750000       0.17647059       0.17647059 </v>
   <v>       0.50000000       0.17647059       0.17647059 </v>
   <v>      -0.43750000       0.17647059       0.17647059 </v>
   <v>      -0.37500000       0.17647059       0.17647059 </v>
   <v>      -0.31250000       0.17647059       0.17647059 </v>
   <v>      -0.25000000       0.17647059       0.17647059 </v>
   <v>      -0.18750000       0.17647059       0.17647059 </v>
   <v>      -0.12500000       0.17647059       0.17647059 </v>
   <v>      -0.06250000       0.17647059       0.17647059 </v>
   <v>       0.00000000       0.23529412       0.17647059 </v>
   <v>       0.06250000       0.23529412       0.17647059 </v>
   <v>       0.12500000       0.23529412       0.17647059 </v>
   <v>       0.18750000       0.23529412       0.17647059 </v>
   <v>       0.25000000       0.23529412       0.17647059 </v>
   <v>       0.31250000       0.23529412       0.17647059 </v>
   <v>       0.37500000       0.23529412       0.17647059 </v>
   <v>       0.43750000       0.23529412       0.17647059 </v>
   <v>       0.50000000       0.23529412       0.17647059 </v>
   <v>      -0.43750000       0.23529412       0.17647059 </v>
   <v>      -0.37500000       0.23529412       0.17647059 </v>
   <v>      -0.31250000       0.23529412       0.17647059 </v>
   <v>      -0.25000000       0.23529412       0.17647059 </v>
   <v>      -0.18750000       0.23529412       0.17647059 </v>
   <v>      -0.12500000       0.23529412       0.17647059 </v>
   <v>      -0.06250000       0.23529412       0.17647059 </v>
   <v>       0.00000000       0.29411765       0.17647059 </v>
   <v>       0.06250000       0.29411765       0.17647059 </v>
   <v>       0.12500000       0.29411765       0.17647059 </v>
   <v>       0.18750000       0.29411765       0.17647059 </v>
   <v>       0.25000000       0.29411765       0.17647059 </v>
   <v>       0.31250000       0.29411765       0.17647059 </v>
   <v>       0.37500000       0.29411765       0.17647059 </v>
   <v>       0.43750000       0.29411765       0.17647059 </v>
   <v>       0.50000000       0.29411765       0.17647059 </v>
   <v>      -0.43750000       0.29411765       0.17647059 </v>
   <v>      -0.37500000       0.29411765       0.17647059 </v>
   <v>      -0.31250000       0.29411765       0.17647059 </v>
   <v>      -0.25000000       0.29411765       0.17647059 </v>
   <v>      -0.18750000       0.29411765       0.17647059 </v>
   <v>      -0.12500000       0.29411765       0.17647059 </v>
   <v>      -0.06250000       0.29411765       0.17647059 </v>
   <v>       0.00000000       0.35294118       0.17647059 </v>
   <v>       0.06250000       0.35294118       0.17647059 </v>
   <v>       0.12500000       0.35294118       0.17647059 </v>
   <v>       0.18750000       0.35294118       0.17647059 </v>
   <v>       0.25000000       0.35294118       0.17647059 </v>
   <v>       0.31250000       0.35294118       0.17647059 </v>
   <v>       0.37500000       0.35294118       0.17647059 </v>
   <v>       0.43750000       0.35294118       0.17647059 </v>
   <v>       0.50000000       0.35294118       0.17647059 </v>
   <v>      -0.43750000       0.35294118       0.17647059 </v>
   <v>      -0.37500000       0.35294118       0.17647059 </v>
   <v>      -0.31250000       0.35294118       0.17647059 </v>
   <v>      -0.25000000       0.35294118       0.17647059 </v>
   <v>      -0.18750000       0.35294118       0.17647059 </v>
   <v>      -0.12500000       0.35294118       0.17647059 </v>
   <v>      -0.06250000       0.35294118       0.17647059 </v>
   <v>       0.00000000       0.41176471       0.17647059 </v>
   <v>       0.06250000       0.41176471       0.17647059 </v>
   <v>       0.12500000       0.41176471       0.17647059 </v>
   <v>       0.18750000       0.41176471       0.17647059 </v>
   <v>       0.25000000       0.41176471       0.17647059 </v>
   <v>       0.31250000       0.41176471       0.17647059 </v>
   <v>       0.37500000       0.41176471       0.17647059 </v>
   <v>       0.43750000       0.41176471       0.17647059 </v>
   <v>       0.50000000       0.41176471       0.17647059 </v>
   <v>      -0.43750000       0.41176471       0.17647059 </v>
   <v>      -0.37500000       0.41176471       0.17647059 </v>
   <v>      -0.31250000       0.41176471       0.17647059 </v>
   <v>      -0.25000000       0.41176471       0.17647059 </v>
   <v>      -0.18750000       0.41176471       0.17647059 </v>
   <v>      -0.12500000       0.41176471       0.17647059 </v>
   <v>      -0.06250000       0.41176471       0.17647059 </v>
   <v>       0.00000000       0.47058824       0.17647059 </v>
   <v>       0.06250000       0.47058824       0.17647059 </v>
   <v>       0.12500000       0.47058824       0.17647059 </v>
   <v>       0.18750000       0.47058824       0.17647059 </v>
   <v>       0.25000000       0.47058824       0.17647059 </v>
   <v>       0.31250000       0.47058824       0.17647059 </v>
   <v>       0.37500000       0.47058824       0.17647059 </v>
   <v>       0.43750000       0.47058824       0.17647059 </v>
   <v>       0.50000000       0.47058824       0.17647059 </v>
   <v>      -0.43750000       0.47058824       0.17647059 </v>
   <v>      -0.37500000       0.47058824       0.17647059 </v>
   <v>      -0.31250000       0.47058824       0.17647059 </v>
   <v>      -0.25000000       0.47058824       0.17647059 </v>
   <v>      -0.18750000       0.47058824       0.17647059 </v>
   <v>      -0.12500000       0.47058824       0.17647059 </v>
   <v>      -0.06250000       0.47058824       0.17647059 </v>
   <v>       0.00000000      -0.47058824       0.17647059 </v>
   <v>       0.06250000      -0.47058824       0.17647059 </v>
   <v>       0.12500000      -0.47058824       0.17647059 </v>
   <v>       0.18750000      -0.47058824       0.17647059 </v>
   <v>       0.25000000      -0.47058824       0.17647059 </v>
   <v>       0.31250000      -0.47058824       0.17647059 </v>
   <v>       0.37500000      -0.47058824       0.17647059 </v>
   <v>       0.43750000      -0.47058824       0.17647059 </v>
   <v>       0.50000000      -0.47058824       0.17647059 </v>
   <v>      -0.43750000      -0.47058824       0.17647059 </v>
   <v>      -0.37500000      -0.47058824       0.17647059 </v>
   <v>      -0.31250000      -0.47058824       0.17647059 </v>
   <v>      -0.25000000      -0.47058824       0.17647059 </v>
   <v>      -0.18750000      -0.47058824       0.17647059 </v>
   <v>      -0.12500000      -0.47058824       0.17647059 </v>
   <v>      -0.06250000      -0.47058824       0.17647059 </v>
   <v>       0.00000000      -0.41176471       0.17647059 </v>
   <v>       0.06250000      -0.41176471       0.17647059 </v>
   <v>       0.12500000      -0.41176471       0.17647059 </v>
   <v>       0.18750000      -0.41176471       0.17647059 </v>
   <v>       0.25000000      -0.41176471       0.17647059 </v>
   <v>       0.31250000      -0.41176471       0.17647059 </v>
   <v>       0.37500000      -0.41176471       0.17647059 </v>
   <v>       0.43750000      -0.41176471       0.17647059 </v>
   <v>       0.50000000      -0.41176471       0.17647059 </v>
   <v>      -0.43750000      -0.41176471       0.17647059 </v>
   <v>      -0.37500000      -0.41176471       0.17647059 </v>
   <v>      -0.31250000      -0.41176471       0.17647059 </v>
   <v>      -0.25000000      -0.41176471       0.17647059 </v>
   <v>      -0.18750000      -0.41176471       0.17647059 </v>
   <v>      -0.12500000      -0.41176471       0.17647059 </v>
   <v>      -0.06250000      -0.41176471       0.17647059 </v>
   <v>       0.00000000      -0.35294118       0.17647059 </v>
   <v>       0.06250000      -0.35294118       0.17647059 </v>
   <v>       0.12500000      -0.35294118       0.17647059 </v>
   <v>       0.18750000      -0.35294118       0.17647059 </v>
   <v>       0.25000000      -0.35294118       0.17647059 </v>
   <v>       0.31250000      -0.35294118       0.17647059 </v>
   <v>       0.37500000      -0.35294118       0.17647059 </v>
   <v>       0.43750000      -0.35294118       0.17647059 </v>
   <v>       0.50000000      -0.35294118       0.17647059 </v>
   <v>      -0.43750000      -0.35294118       0.17647059 </v>
   <v>      -0.37500000      -0.35294118       0.17647059 </v>
   <v>      -0.31250000      -0.35294118       0.17647059 </v>
   <v>      -0.25000000      -0.35294118       0.17647059 </v>
   <v>      -0.18750000      -0.35294118       0.17647059 </v>
   <v>      -0.12500000      -0.35294118       0.17647059 </v>
   <v>      -0.06250000      -0.35294118       0.17647059 </v>
   <v>       0.00000000      -0.29411765       0.17647059 </v>
   <v>       0.06250000      -0.29411765       0.17647059 </v>
   <v>       0.12500000      -0.29411765       0.17647059 </v>
   <v>       0.18750000      -0.29411765       0.17647059 </v>
   <v>       0.25000000      -0.29411765       0.17647059 </v>
   <v>       0.31250000      -0.29411765       0.17647059 </v>
   <v>       0.37500000      -0.29411765       0.17647059 </v>
   <v>       0.43750000      -0.29411765       0.17647059 </v>
   <v>       0.50000000      -0.29411765       0.17647059 </v>
   <v>      -0.43750000      -0.29411765       0.17647059 </v>
   <v>      -0.37500000      -0.29411765       0.17647059 </v>
   <v>      -0.31250000      -0.29411765       0.17647059 </v>
   <v>      -0.25000000      -0.29411765       0.17647059 </v>
   <v>      -0.18750000      -0.29411765       0.17647059 </v>
   <v>      -0.12500000      -0.29411765       0.17647059 </v>
   <v>      -0.06250000      -0.29411765       0.17647059 </v>
   <v>       0.00000000      -0.23529412       0.17647059 </v>
   <v>       0.06250000      -0.23529412       0.17647059 </v>
   <v>       0.12500000      -0.23529412       0.17647059 </v>
   <v>       0.18750000      -0.23529412       0.17647059 </v>
   <v>       0.25000000      -0.23529412       0.17647059 </v>
   <v>       0.31250000      -0.23529412       0.17647059 </v>
   <v>       0.37500000      -0.23529412       0.17647059 </v>
   <v>       0.43750000      -0.23529412       0.17647059 </v>
   <v>       0.50000000      -0.23529412       0.17647059 </v>
   <v>      -0.43750000      -0.23529412       0.17647059 </v>
   <v>      -0.37500000      -0.23529412       0.17647059 </v>
   <v>      -0.31250000      -0.23529412       0.17647059 </v>
   <v>      -0.25000000      -0.23529412       0.17647059 </v>
   <v>      -0.18750000      -0.23529412       0.17647059 </v>
   <v>      -0.12500000      -0.23529412       0.17647059 </v>
   <v>      -0.06250000      -0.23529412       0.17647059 </v>
   <v>       0.00000000      -0.17647059       0.17647059 </v>
   <v>       0.06250000      -0.17647059       0.17647059 </v>
   <v>       0.12500000      -0.17647059       0.17647059 </v>
   <v>       0.18750000      -0.17647059       0.17647059 </v>
   <v>       0.25000000      -0.17647059       0.17647059 </v>
   <v>       0.31250000      -0.17647059       0.17647059 </v>
   <v>       0.37500000      -0.17647059       0.17647059 </v>
   <v>       0.43750000      -0.17647059       0.17647059 </v>
   <v>       0.50000000      -0.17647059       0.17647059 </v>
   <v>       0.00000000       0.23529412       0.23529412 </v>
   <v>       0.06250000       0.23529412       0.23529412 </v>
   <v>       0.12500000       0.23529412       0.23529412 </v>
   <v>       0.18750000       0.23529412       0.23529412 </v>
   <v>       0.25000000       0.23529412       0.23529412 </v>
   <v>       0.31250000       0.23529412       0.23529412 </v>
   <v>       0.37500000       0.23529412       0.23529412 </v>
   <v>       0.43750000       0.23529412       0.23529412 </v>
   <v>       0.50000000       0.23529412       0.23529412 </v>
   <v>      -0.43750000       0.23529412       0.23529412 </v>
   <v>      -0.37500000       0.23529412       0.23529412 </v>
   <v>      -0.31250000       0.23529412       0.23529412 </v>
   <v>      -0.25000000       0.23529412       0.23529412 </v>
   <v>      -0.18750000       0.23529412       0.23529412 </v>
   <v>      -0.12500000       0.23529412       0.23529412 </v>
   <v>      -0.06250000       0.23529412       0.23529412 </v>
   <v>       0.00000000       0.29411765       0.23529412 </v>
   <v>       0.06250000       0.29411765       0.23529412 </v>
   <v>       0.12500000       0.29411765       0.23529412 </v>
   <v>       0.18750000       0.29411765       0.23529412 </v>
   <v>       0.25000000       0.29411765       0.23529412 </v>
   <v>       0.31250000       0.29411765       0.23529412 </v>
   <v>       0.37500000       0.29411765       0.23529412 </v>
   <v>       0.43750000       0.29411765       0.23529412 </v>
   <v>       0.50000000       0.29411765       0.23529412 </v>
   <v>      -0.43750000       0.29411765       0.23529412 </v>
   <v>      -0.37500000       0.29411765       0.23529412 </v>
   <v>      -0.31250000       0.29411765       0.23529412 </v>
   <v>      -0.25000000       0.29411765       0.23529412 </v>
   <v>      -0.18750000       0.29411765       0.23529412 </v>
   <v>      -0.12500000       0.29411765       0.23529412 </v>
   <v>      -0.06250000       0.29411765       0.23529412 </v>
   <v>       0.00000000       0.35294118       0.23529412 </v>
   <v>       0.06250000       0.35294118       0.23529412 </v>
   <v>       0.12500000       0.35294118       0.23529412 </v>
   <v>       0.18750000       0.35294118       0.23529412 </v>
   <v>       0.25000000       0.35294118       0.23529412 </v>
   <v>       0.31250000       0.35294118       0.23529412 </v>
   <v>       0.37500000       0.35294118       0.23529412 </v>
   <v>       0.43750000       0.35294118       0.23529412 </v>
   <v>       0.50000000       0.35294118       0.23529412 </v>
   <v>      -0.43750000       0.35294118       0.23529412 </v>
   <v>      -0.37500000       0.35294118       0.23529412 </v>
   <v>      -0.31250000       0.35294118       0.23529412 </v>
   <v>      -0.25000000       0.35294118       0.23529412 </v>
   <v>      -0.18750000       0.35294118       0.23529412 </v>
   <v>      -0.12500000       0.35294118       0.23529412 </v>
   <v>      -0.06250000       0.35294118       0.23529412 </v>
   <v>       0.00000000       0.41176471       0.23529412 </v>
   <v>       0.06250000       0.41176471       0.23529412 </v>
   <v>       0.12500000       0.41176471       0.23529412 </v>
   <v>       0.18750000       0.41176471       0.23529412 </v>
   <v>       0.25000000       0.41176471       0.23529412 </v>
   <v>       0.31250000       0.41176471       0.23529412 </v>
   <v>       0.37500000       0.41176471       0.23529412 </v>
   <v>       0.43750000       0.41176471       0.23529412 </v>
   <v>       0.50000000       0.41176471       0.23529412 </v>
   <v>      -0.43750000       0.41176471       0.23529412 </v>
   <v>      -0.37500000       0.41176471       0.23529412 </v>
   <v>      -0.31250000       0.41176471       0.23529412 </v>
   <v>      -0.25000000       0.41176471       0.23529412 </v>
   <v>      -0.18750000       0.41176471       0.23529412 </v>
   <v>      -0.12500000       0.41176471       0.23529412 </v>
   <v>      -0.06250000       0.41176471       0.23529412 </v>
   <v>       0.00000000       0.47058824       0.23529412 </v>
   <v>       0.06250000       0.47058824       0.23529412 </v>
   <v>       0.12500000       0.47058824       0.23529412 </v>
   <v>       0.18750000       0.47058824       0.23529412 </v>
   <v>       0.25000000       0.47058824       0.23529412 </v>
   <v>       0.31250000       0.47058824       0.23529412 </v>
   <v>       0.37500000       0.47058824       0.23529412 </v>
   <v>       0.43750000       0.47058824       0.23529412 </v>
   <v>       0.50000000       0.47058824       0.23529412 </v>
   <v>      -0.43750000       0.47058824       0.23529412 </v>
   <v>      -0.37500000       0.47058824       0.23529412 </v>
   <v>      -0.31250000       0.47058824       0.23529412 </v>
   <v>      -0.25000000       0.47058824       0.23529412 </v>
   <v>      -0.18750000       0.47058824       0.23529412 </v>
   <v>      -0.12500000       0.47058824       0.23529412 </v>
   <v>      -0.06250000       0.47058824       0.23529412 </v>
   <v>       0.00000000      -0.47058824       0.23529412 </v>
   <v>       0.06250000      -0.47058824       0.23529412 </v>
   <v>       0.12500000      -0.47058824       0.23529412 </v>
   <v>       0.18750000      -0.47058824       0.23529412 </v>
   <v>       0.25000000      -0.47058824       0.23529412 </v>
   <v>       0.31250000      -0.47058824       0.23529412 </v>
   <v>       0.37500000      -0.47058824       0.23529412 </v>
   <v>       0.43750000      -0.47058824       0.23529412 </v>
   <v>       0.50000000      -0.47058824       0.23529412 </v>
   <v>      -0.43750000      -0.47058824       0.23529412 </v>
   <v>      -0.37500000      -0.47058824       0.23529412 </v>
   <v>      -0.31250000      -0.47058824       0.23529412 </v>
   <v>      -0.25000000      -0.47058824       0.23529412 </v>
   <v>      -0.18750000      -0.47058824       0.23529412 </v>
   <v>      -0.12500000      -0.47058824       0.23529412 </v>
   <v>      -0.06250000      -0.47058824       0.23529412 </v>
   <v>       0.00000000      -0.41176471       0.23529412 </v>
   <v>       0.06250000      -0.41176471       0.23529412 </v>
   <v>       0.12500000      -0.41176471       0.23529412 </v>
   <v>       0.18750000      -0.41176471       0.23529412 </v>
   <v>       0.25000000      -0.41176471       0.23529412 </v>
   <v>       0.31250000      -0.41176471       0.23529412 </v>
   <v>       0.37500000      -0.41176471       0.23529412 </v>
   <v>       0.43750000      -0.41176471       0.23529412 </v>
   <v>       0.50000000      -0.41176471       0.23529412 </v>
   <v>      -0.43750000      -0.41176471       0.23529412 </v>
   <v>      -0.37500000      -0.41176471       0.23529412 </v>
   <v>      -0.31250000      -0.41176471       0.23529412 </v>
   <v>      -0.25000000      -0.41176471       0.23529412 </v>
   <v>      -0.18750000      -0.41176471       0.23529412 </v>
   <v>      -0.12500000      -0.41176471       0.23529412 </v>
   <v>      -0.06250000      -0.41176471       0.23529412 </v>
   <v>       0.00000000      -0.35294118       0.23529412 </v>
   <v>       0.06250000      -0.35294118       0.23529412 </v>
   <v>       0.12500000      -0.35294118       0.23529412 </v>
   <v>       0.18750000      -0.35294118       0.23529412 </v>
   <v>       0.25000000      -0.35294118       0.23529412 </v>
   <v>       0.31250000      -0.35294118       0.23529412 </v>
   <v>       0.37500000      -0.35294118       0.23529412 </v>
   <v>       0.43750000      -0.35294118       0.23529412 </v>
   <v>       0.50000000      -0.35294118       0.23529412 </v>
   <v>      -0.43750000      -0.35294118       0.23529412 </v>
   <v>      -0.37500000      -0.35294118       0.23529412 </v>
   <v>      -0.31250000      -0.35294118       0.23529412 </v>
   <v>      -0.25000000      -0.35294118       0.23529412 </v>
   <v>      -0.18750000      -0.35294118       0.23529412 </v>
   <v>      -0.12500000      -0.35294118       0.23529412 </v>
   <v>      -0.06250000      -0.35294118       0.23529412 </v>
   <v>       0.00000000      -0.29411765       0.23529412 </v>
   <v>       0.06250000      -0.29411765       0.23529412 </v>
   <v>       0.12500000      -0.29411765       0.23529412 </v>
   <v>       0.18750000      -0.29411765       0.23529412 </v>
   <v>       0.25000000      -0.29411765       0.23529412 </v>
   <v>       0.31250000      -0.29411765       0.23529412 </v>
   <v>       0.37500000      -0.29411765       0.23529412 </v>
   <v>       0.43750000      -0.29411765       0.23529412 </v>
   <v>       0.50000000      -0.29411765       0.23529412 </v>
   <v>      -0.43750000      -0.29411765       0.23529412 </v>
   <v>      -0.37500000      -0.29411765       0.23529412 </v>
   <v>      -0.31250000      -0.29411765       0.23529412 </v>
   <v>      -0.25000000      -0.29411765       0.23529412 </v>
   <v>      -0.18750000      -0.29411765       0.23529412 </v>
   <v>      -0.12500000      -0.29411765       0.23529412 </v>
   <v>      -0.06250000      -0.29411765       0.23529412 </v>
   <v>       0.00000000      -0.23529412       0.23529412 </v>
   <v>       0.06250000      -0.23529412       0.23529412 </v>
   <v>       0.12500000      -0.23529412       0.23529412 </v>
   <v>       0.18750000      -0.23529412       0.23529412 </v>
   <v>       0.25000000      -0.23529412       0.23529412 </v>
   <v>       0.31250000      -0.23529412       0.23529412 </v>
   <v>       0.37500000      -0.23529412       0.23529412 </v>
   <v>       0.43750000      -0.23529412       0.23529412 </v>
   <v>       0.50000000      -0.23529412       0.23529412 </v>
   <v>       0.00000000       0.29411765       0.29411765 </v>
   <v>       0.06250000       0.29411765       0.29411765 </v>
   <v>       0.12500000       0.29411765       0.29411765 </v>
   <v>       0.18750000       0.29411765       0.29411765 </v>
   <v>       0.25000000       0.29411765       0.29411765 </v>
   <v>       0.31250000       0.29411765       0.29411765 </v>
   <v>       0.37500000       0.29411765       0.29411765 </v>
   <v>       0.43750000       0.29411765       0.29411765 </v>
   <v>       0.50000000       0.29411765       0.29411765 </v>
   <v>      -0.43750000       0.29411765       0.29411765 </v>
   <v>      -0.37500000       0.29411765       0.29411765 </v>
   <v>      -0.31250000       0.29411765       0.29411765 </v>
   <v>      -0.25000000       0.29411765       0.29411765 </v>
   <v>      -0.18750000       0.29411765       0.29411765 </v>
   <v>      -0.12500000       0.29411765       0.29411765 </v>
   <v>      -0.06250000       0.29411765       0.29411765 </v>
   <v>       0.00000000       0.35294118       0.29411765 </v>
   <v>       0.06250000       0.35294118       0.29411765 </v>
   <v>       0.12500000       0.35294118       0.29411765 </v>
   <v>       0.18750000       0.35294118       0.29411765 </v>
   <v>       0.25000000       0.35294118       0.29411765 </v>
   <v>       0.31250000       0.35294118       0.29411765 </v>
   <v>       0.37500000       0.35294118       0.29411765 </v>
   <v>       0.43750000       0.35294118       0.29411765 </v>
   <v>       0.50000000       0.35294118       0.29411765 </v>
   <v>      -0.43750000       0.35294118       0.29411765 </v>
   <v>      -0.37500000       0.35294118       0.29411765 </v>
   <v>      -0.31250000       0.35294118       0.29411765 </v>
   <v>      -0.25000000       0.35294118       0.29411765 </v>
   <v>      -0.18750000       0.35294118       0.29411765 </v>
   <v>      -0.12500000       0.35294118       0.29411765 </v>
   <v>      -0.06250000       0.35294118       0.29411765 </v>
   <v>       0.00000000       0.41176471       0.29411765 </v>
   <v>       0.06250000       0.41176471       0.29411765 </v>
   <v>       0.12500000       0.41176471       0.29411765 </v>
   <v>       0.18750000       0.41176471       0.29411765 </v>
   <v>       0.25000000       0.41176471       0.29411765 </v>
   <v>       0.31250000       0.41176471       0.29411765 </v>
   <v>       0.37500000       0.41176471       0.29411765 </v>
   <v>       0.43750000       0.41176471       0.29411765 </v>
   <v>       0.50000000       0.41176471       0.29411765 </v>
   <v>      -0.43750000       0.41176471       0.29411765 </v>
   <v>      -0.37500000       0.41176471       0.29411765 </v>
   <v>      -0.31250000       0.41176471       0.29411765 </v>
   <v>      -0.25000000       0.41176471       0.29411765 </v>
   <v>      -0.18750000       0.41176471       0.29411765 </v>
   <v>      -0.12500000       0.41176471       0.29411765 </v>
   <v>      -0.06250000       0.41176471       0.29411765 </v>
   <v>       0.00000000       0.47058824       0.29411765 </v>
   <v>       0.06250000       0.47058824       0.29411765 </v>
   <v>       0.12500000       0.47058824       0.29411765 </v>
   <v>       0.18750000       0.47058824       0.29411765 </v>
   <v>       0.25000000       0.47058824       0.29411765 </v>
   <v>       0.31250000       0.47058824       0.29411765 </v>
   <v>       0.37500000       0.47058824       0.29411765 </v>
   <v>       0.43750000       0.47058824       0.29411765 </v>
   <v>       0.50000000       0.47058824       0.29411765 </v>
   <v>      -0.43750000       0.47058824       0.29411765 </v>
   <v>      -0.37500000       0.47058824       0.29411765 </v>
   <v>      -0.31250000       0.47058824       0.29411765 </v>
   <v>      -0.25000000       0.47058824       0.29411765 </v>
   <v>      -0.18750000       0.47058824       0.29411765 </v>
   <v>      -0.12500000       0.47058824       0.29411765 </v>
   <v>      -0.06250000       0.47058824       0.29411765 </v>
   <v>       0.00000000      -0.47058824       0.29411765 </v>
   <v>       0.06250000      -0.47058824       0.29411765 </v>
   <v>       0.12500000      -0.47058824       0.29411765 </v>
   <v>       0.18750000      -0.47058824       0.29411765 </v>
   <v>       0.25000000      -0.47058824       0.29411765 </v>
   <v>       0.31250000      -0.47058824       0.29411765 </v>
   <v>       0.37500000      -0.47058824       0.29411765 </v>
   <v>       0.43750000      -0.47058824       0.29411765 </v>
   <v>       0.50000000      -0.47058824       0.29411765 </v>
   <v>      -0.43750000      -0.47058824       0.29411765 </v>
   <v>      -0.37500000      -0.47058824       0.29411765 </v>
   <v>      -0.31250000      -0.47058824       0.29411765 </v>
   <v>      -0.25000000      -0.47058824       0.29411765 </v>
   <v>      -0.18750000      -0.47058824       0.29411765 </v>
   <v>      -0.12500000      -0.47058824       0.29411765 </v>
   <v>      -0.06250000      -0.47058824       0.29411765 </v>
   <v>       0.00000000      -0.41176471       0.29411765 </v>
   <v>       0.06250000      -0.41176471       0.29411765 </v>
   <v>       0.12500000      -0.41176471       0.29411765 </v>
   <v>       0.18750000      -0.41176471       0.29411765 </v>
   <v>       0.25000000      -0.41176471       0.29411765 </v>
   <v>       0.31250000      -0.41176471       0.29411765 </v>
   <v>       0.37500000      -0.41176471       0.29411765 </v>
   <v>       0.43750000      -0.41176471       0.29411765 </v>
   <v>       0.50000000      -0.41176471       0.29411765 </v>
   <v>      -0.43750000      -0.41176471       0.29411765 </v>
   <v>      -0.37500000      -0.41176471       0.29411765 </v>
   <v>      -0.31250000      -0.41176471       0.29411765 </v>
   <v>      -0.25000000      -0.41176471       0.29411765 </v>
   <v>      -0.18750000      -0.41176471       0.29411765 </v>
   <v>      -0.12500000      -0.41176471       0.29411765 </v>
   <v>      -0.06250000      -0.41176471       0.29411765 </v>
   <v>       0.00000000      -0.35294118       0.29411765 </v>
   <v>       0.06250000      -0.35294118       0.29411765 </v>
   <v>       0.12500000      -0.35294118       0.29411765 </v>
   <v>       0.18750000      -0.35294118       0.29411765 </v>
   <v>       0.25000000      -0.35294118       0.29411765 </v>
   <v>       0.31250000      -0.35294118       0.29411765 </v>
   <v>       0.37500000      -0.35294118       0.29411765 </v>
   <v>       0.43750000      -0.35294118       0.29411765 </v>
   <v>       0.50000000      -0.35294118       0.29411765 </v>
   <v>      -0.43750000      -0.35294118       0.29411765 </v>
   <v>      -0.37500000      -0.35294118       0.29411765 </v>
   <v>      -0.31250000      -0.35294118       0.29411765 </v>
   <v>      -0.25000000      -0.35294118       0.29411765 </v>
   <v>      -0.18750000      -0.35294118       0.29411765 </v>
   <v>      -0.12500000      -0.35294118       0.29411765 </v>
   <v>      -0.06250000      -0.35294118       0.29411765 </v>
   <v>       0.00000000      -0.29411765       0.29411765 </v>
   <v>       0.06250000      -0.29411765       0.29411765 </v>
   <v>       0.12500000      -0.29411765       0.29411765 </v>
   <v>       0.18750000      -0.29411765       0.29411765 </v>
   <v>       0.25000000      -0.29411765       0.29411765 </v>
   <v>       0.31250000      -0.29411765       0.29411765 </v>
   <v>       0.37500000      -0.29411765       0.29411765 </v>
   <v>       0.43750000      -0.29411765       0.29411765 </v>
   <v>       0.50000000      -0.29411765       0.29411765 </v>
   <v>       0.00000000       0.35294118       0.35294118 </v>
   <v>       0.06250000       0.35294118       0.35294118 </v>
   <v>       0.12500000       0.35294118       0.35294118 </v>
   <v>       0.18750000       0.35294118       0.35294118 </v>
   <v>       0.25000000       0.35294118       0.35294118 </v>
   <v>       0.31250000       0.35294118       0.35294118 </v>
   <v>       0.37500000       0.35294118       0.35294118 </v>
   <v>       0.43750000       0.35294118       0.35294118 </v>
   <v>       0.50000000       0.35294118       0.35294118 </v>
   <v>      -0.43750000       0.35294118       0.35294118 </v>
   <v>      -0.37500000       0.35294118       0.35294118 </v>
   <v>      -0.31250000       0.35294118       0.35294118 </v>
   <v>      -0.25000000       0.35294118       0.35294118 </v>
   <v>      -0.18750000       0.35294118       0.35294118 </v>
   <v>      -0.12500000       0.35294118       0.35294118 </v>
   <v>      -0.06250000       0.35294118       0.35294118 </v>
   <v>       0.00000000       0.41176471       0.35294118 </v>
   <v>       0.06250000       0.41176471       0.35294118 </v>
   <v>       0.12500000       0.41176471       0.35294118 </v>
   <v>       0.18750000       0.41176471       0.35294118 </v>
   <v>       0.25000000       0.41176471       0.35294118 </v>
   <v>       0.31250000       0.41176471       0.35294118 </v>
   <v>       0.37500000       0.41176471       0.35294118 </v>
   <v>       0.43750000       0.41176471       0.35294118 </v>
   <v>       0.50000000       0.41176471       0.35294118 </v>
   <v>      -0.43750000       0.41176471       0.35294118 </v>
   <v>      -0.37500000       0.41176471       0.35294118 </v>
   <v>      -0.31250000       0.41176471       0.35294118 </v>
   <v>      -0.25000000       0.41176471       0.35294118 </v>
   <v>      -0.18750000       0.41176471       0.35294118 </v>
   <v>      -0.12500000       0.41176471       0.35294118 </v>
   <v>      -0.06250000       0.41176471       0.35294118 </v>
   <v>       0.00000000       0.47058824       0.35294118 </v>
   <v>       0.06250000       0.47058824       0.35294118 </v>
   <v>       0.12500000       0.47058824       0.35294118 </v>
   <v>       0.18750000       0.47058824       0.35294118 </v>
   <v>       0.25000000       0.47058824       0.35294118 </v>
   <v>       0.31250000       0.47058824       0.35294118 </v>
   <v>       0.37500000       0.47058824       0.35294118 </v>
   <v>       0.43750000       0.47058824       0.35294118 </v>
   <v>       0.50000000       0.47058824       0.35294118 </v>
   <v>      -0.43750000       0.47058824       0.35294118 </v>
   <v>      -0.37500000       0.47058824       0.35294118 </v>
   <v>      -0.31250000       0.47058824       0.35294118 </v>
   <v>      -0.25000000       0.47058824       0.35294118 </v>
   <v>      -0.18750000       0.47058824       0.35294118 </v>
   <v>      -0.12500000       0.47058824       0.35294118 </v>
   <v>      -0.06250000       0.47058824       0.35294118 </v>
   <v>       0.00000000      -0.47058824       0.35294118 </v>
   <v>       0.06250000      -0.47058824       0.35294118 </v>
   <v>       0.12500000      -0.47058824       0.35294118 </v>
   <v>       0.18750000      -0.47058824       0.35294118 </v>
   <v>       0.25000000      -0.47058824       0.35294118 </v>
   <v>       0.31250000      -0.47058824       0.35294118 </v>
   <v>       0.37500000      -0.47058824       0.35294118 </v>
   <v>       0.43750000      -0.47058824       0.35294118 </v>
   <v>       0.50000000      -0.47058824       0.35294118 </v>
   <v>      -0.43750000      -0.47058824       0.35294118 </v>
   <v>      -0.37500000      -0.47058824       0.35294118 </v>
   <v>      -0.31250000      -0.47058824       0.35294118 </v>
   <v>      -0.25000000      -0.47058824       0.35294118 </v>
   <v>      -0.18750000      -0.47058824       0.35294118 </v>
   <v>      -0.12500000      -0.47058824       0.35294118 </v>
   <v>      -0.06250000      -0.47058824       0.35294118 </v>
   <v>       0.00000000      -0.41176471       0.35294118 </v>
   <v>       0.06250000      -0.41176471       0.35294118 </v>
   <v>       0.12500000      -0.41176471       0.35294118 </v>
   <v>       0.18750000      -0.41176471       0.35294118 </v>
   <v>       0.25000000      -0.41176471       0.35294118 </v>
   <v>       0.31250000      -0.41176471       0.35294118 </v>
   <v>       0.37500000      -0.41176471       0.35294118 </v>
   <v>       0.43750000      -0.41176471       0.35294118 </v>
   <v>       0.50000000      -0.41176471       0.35294118 </v>
   <v>      -0.43750000      -0.41176471       0.35294118 </v>
   <v>      -0.37500000      -0.41176471       0.35294118 </v>
   <v>      -0.31250000      -0.41176471       0.35294118 </v>
   <v>      -0.25000000      -0.41176471       0.35294118 </v>
   <v>      -0.18750000      -0.41176471       0.35294118 </v>
   <v>      -0.12500000      -0.41176471       0.35294118 </v>
   <v>      -0.06250000      -0.41176471       0.35294118 </v>
   <v>       0.00000000      -0.35294118       0.35294118 </v>
   <v>       0.06250000      -0.35294118       0.35294118 </v>
   <v>       0.12500000      -0.35294118       0.35294118 </v>
   <v>       0.18750000      -0.35294118       0.35294118 </v>
   <v>       0.25000000      -0.35294118       0.35294118 </v>
   <v>       0.31250000      -0.35294118       0.35294118 </v>
   <v>       0.37500000      -0.35294118       0.35294118 </v>
   <v>       0.43750000      -0.35294118       0.35294118 </v>
   <v>       0.50000000      -0.35294118       0.35294118 </v>
   <v>       0.00000000       0.41176471       0.41176471 </v>
   <v>       0.06250000       0.41176471       0.41176471 </v>
   <v>       0.12500000       0.41176471       0.41176471 </v>
   <v>       0.18750000       0.41176471       0.41176471 </v>
   <v>       0.25000000       0.41176471       0.41176471 </v>
   <v>       0.31250000       0.41176471       0.41176471 </v>
   <v>       0.37500000       0.41176471       0.41176471 </v>
   <v>       0.43750000       0.41176471       0.41176471 </v>
   <v>       0.50000000       0.41176471       0.41176471 </v>
   <v>      -0.43750000       0.41176471       0.41176471 </v>
   <v>      -0.37500000       0.41176471       0.41176471 </v>
   <v>      -0.31250000       0.41176471       0.41176471 </v>
   <v>      -0.25000000       0.41176471       0.41176471 </v>
   <v>      -0.18750000       0.41176471       0.41176471 </v>
   <v>      -0.12500000       0.41176471       0.41176471 </v>
   <v>      -0.06250000       0.41176471       0.41176471 </v>
   <v>       0.00000000       0.47058824       0.41176471 </v>
   <v>       0.06250000       0.47058824       0.41176471 </v>
   <v>       0.12500000       0.47058824       0.41176471 </v>
   <v>       0.18750000       0.47058824       0.41176471 </v>
   <v>       0.25000000       0.47058824       0.41176471 </v>
   <v>       0.31250000       0.47058824       0.41176471 </v>
   <v>       0.37500000       0.47058824       0.41176471 </v>
   <v>       0.43750000       0.47058824       0.41176471 </v>
   <v>       0.50000000       0.47058824       0.41176471 </v>
   <v>      -0.43750000       0.47058824       0.41176471 </v>
   <v>      -0.37500000       0.47058824       0.41176471 </v>
   <v>      -0.31250000       0.47058824       0.41176471 </v>
   <v>      -0.25000000       0.47058824       0.41176471 </v>
   <v>      -0.18750000       0.47058824       0.41176471 </v>
   <v>      -0.12500000       0.47058824       0.41176471 </v>
   <v>      -0.06250000       0.47058824       0.41176471 </v>
   <v>       0.00000000      -0.47058824       0.41176471 </v>
   <v>       0.06250000      -0.47058824       0.41176471 </v>
   <v>       0.12500000      -0.47058824       0.41176471 </v>
   <v>       0.18750000      -0.47058824       0.41176471 </v>
   <v>       0.25000000      -0.47058824       0.41176471 </v>
   <v>       0.31250000      -0.47058824       0.41176471 </v>
   <v>       0.37500000      -0.47058824       0.41176471 </v>
   <v>       0.43750000      -0.47058824       0.41176471 </v>
   <v>       0.50000000      -0.47058824       0.41176471 </v>
   <v>      -0.43750000      -0.47058824       0.41176471 </v>
   <v>      -0.37500000      -0.47058824       0.41176471 </v>
   <v>      -0.31250000      -0.47058824       0.41176471 </v>
   <v>      -0.25000000      -0.47058824       0.41176471 </v>
   <v>      -0.18750000      -0.47058824       0.41176471 </v>
   <v>      -0.12500000      -0.47058824       0.41176471 </v>
   <v>      -0.06250000      -0.47058824       0.41176471 </v>
   <v>       0.00000000      -0.41176471       0.41176471 </v>
   <v>       0.06250000      -0.41176471       0.41176471 </v>
   <v>       0.12500000      -0.41176471       0.41176471 </v>
   <v>       0.18750000      -0.41176471       0.41176471 </v>
   <v>       0.25000000      -0.41176471       0.41176471 </v>
   <v>       0.31250000      -0.41176471       0.41176471 </v>
   <v>       0.37500000      -0.41176471       0.41176471 </v>
   <v>       0.43750000      -0.41176471       0.41176471 </v>
   <v>       0.50000000      -0.41176471       0.41176471 </v>
   <v>       0.00000000       0.47058824       0.47058824 </v>
   <v>       0.06250000       0.47058824       0.47058824 </v>
   <v>       0.12500000       0.47058824       0.47058824 </v>
   <v>       0.18750000       0.47058824       0.47058824 </v>
   <v>       0.25000000       0.47058824       0.47058824 </v>
   <v>       0.31250000       0.47058824       0.47058824 </v>
   <v>       0.37500000       0.47058824       0.47058824 </v>
   <v>       0.43750000       0.47058824       0.47058824 </v>
   <v>       0.50000000       0.47058824       0.47058824 </v>
   <v>      -0.43750000       0.47058824       0.47058824 </v>
   <v>      -0.37500000       0.47058824       0.47058824 </v>
   <v>      -0.31250000       0.47058824       0.47058824 </v>
   <v>      -0.25000000       0.47058824       0.47058824 </v>
   <v>      -0.18750000       0.47058824       0.47058824 </v>
   <v>      -0.12500000       0.47058824       0.47058824 </v>
   <v>      -0.06250000       0.47058824       0.47058824 </v>
   <v>       0.00000000      -0.47058824       0.47058824 </v>
   <v>       0.06250000      -0.47058824       0.47058824 </v>
   <v>       0.12500000      -0.47058824       0.47058824 </v>
   <v>       0.18750000      -0.47058824       0.47058824 </v>
   <v>       0.25000000      -0.47058824       0.47058824 </v>
   <v>       0.31250000      -0.47058824       0.47058824 </v>
   <v>       0.37500000      -0.47058824       0.47058824 </v>
   <v>       0.43750000      -0.47058824       0.47058824 </v>
   <v>       0.50000000      -0.47058824       0.47058824 </v>
  </varray>
  <varray name="weights" >
   <v>       0.00021626 </v>
   <v>       0.00043253 </v>
   <v>       0.00043253 </v>
   <v>       0.00043253 </v>
   <v>       0.00043253 </v>
   <v>       0.00043253 </v>
   <v>       0.00043253 </v>
   <v>       0.00043253 </v>
   <v>       0.00021626 </v>
   <v>       0.00086505 </v>
   <v>       0.00086505 </v>
   <v>       0.00086505 </v>
   <v>       0.00086505 </v>
   <v>       0.00086505 </v>
   <v>       0.00086505 </v>
   <v>       0.00086505 </v>
   <v>       0.00086505 </v>
   <v>       0.00086505 </v>
[...]
       <r>    5.2781    1.0000 </r>
       <r>    5.3789    1.0000 </r>
       <r>    5.5255    1.0000 </r>
       <r>    5.5757    1.0000 </r>
       <r>    5.7557    1.0000 </r>
       <r>    5.8715    1.0000 </r>
       <r>    5.9620    1.0000 </r>
       <r>    5.9953    1.0000 </r>
       <r>    6.0359    1.0000 </r>
       <r>    6.0794    1.0000 </r>
       <r>    6.0885    1.0000 </r>
       <r>    7.1710    1.0048 </r>
       <r>    7.5497    1.0094 </r>
       <r>    8.5859   -0.0009 </r>
       <r>    9.3282    0.0000 </r>
       <r>   12.4178    0.0000 </r>
       <r>   14.8398    0.0000 </r>
       <r>   15.7121    0.0000 </r>
       <r>   13.6407    0.0000 </r>
      </set>
      <set comment="kpoint 1232">
       <r>    1.7076    1.0000 </r>
       <r>    1.8058    1.0000 </r>
       <r>    2.0920    1.0000 </r>
       <r>    2.2134    1.0000 </r>
       <r>    2.2769    1.0000 </r>
       <r>    2.3856    1.0000 </r>
       <r>    2.5312    1.0000 </r>
       <r>    2.6733    1.0000 </r>
       <r>    2.7435    1.0000 </r>
       <r>    2.9469    1.0000 </r>
       <r>    3.0628    1.0000 </r>
       <r>    3.2331    1.0000 </r>
       <r>    3.4271    1.0000 </r>
       <r>    3.9412    1.0000 </r>
       <r>    4.0131    1.0000 </r>
       <r>    4.3750    1.0000 </r>
       <r>    4.5630    1.0000 </r>
       <r>    4.6248    1.0000 </r>
       <r>    5.0638    1.0000 </r>
       <r>    5.1173    1.0000 </r>
       <r>    5.2001    1.0000 </r>
       <r>    5.2228    1.0000 </r>
       <r>    5.3166    1.0000 </r>
       <r>    5.5329    1.0000 </r>
       <r>    5.5633    1.0000 </r>
       <r>    5.7103    1.0000 </r>
       <r>    5.8852    1.0000 </r>
       <r>    5.9787    1.0000 </r>
       <r>    6.0351    1.0000 </r>
       <r>    6.0852    1.0000 </r>
       <r>    6.1392    1.0000 </r>
       <r>    6.3080    1.0000 </r>
       <r>    6.7698    1.0000 </r>
       <r>    7.0730    1.0013 </r>
       <r>    8.7350   -0.0001 </r>
       <r>    9.2404    0.0000 </r>
       <r>   12.8965    0.0000 </r>
       <r>   14.1849    0.0000 </r>
       <r>   15.0086    0.0000 </r>
       <r>   13.6861    0.0000 </r>
      </set>
      <set comment="kpoint 1233">
       <r>    1.7742    1.0000 </r>
       <r>    1.7991    1.0000 </r>
       <r>    2.1238    1.0000 </r>
       <r>    2.2569    1.0000 </r>
       <r>    2.2890    1.0000 </r>
       <r>    2.4364    1.0000 </r>
       <r>    2.5108    1.0000 </r>
       <r>    2.6861    1.0000 </r>
       <r>    2.7540    1.0000 </r>
       <r>    2.9007    1.0000 </r>
       <r>    3.0456    1.0000 </r>
       <r>    3.1789    1.0000 </r>
       <r>    3.3735    1.0000 </r>
       <r>    3.9558    1.0000 </r>
       <r>    3.9941    1.0000 </r>
       <r>    4.4301    1.0000 </r>
       <r>    4.5311    1.0000 </r>
       <r>    4.6183    1.0000 </r>
       <r>    5.0643    1.0000 </r>
       <r>    5.1368    1.0000 </r>
       <r>    5.1654    1.0000 </r>
       <r>    5.2138    1.0000 </r>
       <r>    5.2881    1.0000 </r>
       <r>    5.5517    1.0000 </r>
       <r>    5.5533    1.0000 </r>
       <r>    5.6843    1.0000 </r>
       <r>    5.8902    1.0000 </r>
       <r>    5.9719    1.0000 </r>
       <r>    6.0350    1.0000 </r>
       <r>    6.0851    1.0000 </r>
       <r>    6.3448    1.0000 </r>
       <r>    6.4292    1.0000 </r>
       <r>    6.6164    1.0000 </r>
       <r>    6.7466    1.0000 </r>
       <r>    8.7951    0.0000 </r>
       <r>    9.2011    0.0000 </r>
       <r>   13.2862    0.0000 </r>
       <r>   13.7346    0.0000 </r>
       <r>   14.5152    0.0000 </r>
       <r>   13.9351    0.0000 </r>
      </set>
     </set>
    </set>
   </array>
  </eigenvalues>
  <separator name="orbital magnetization" >
   <v name="MAGDIPOLOUT">      0.00000000      0.00000000      0.00000000</v>
  </separator>
  <dos>
   <i name="efermi">      7.81637526 </i>
   <total>
    <array>
     <dimension dim="1">gridpoints</dimension>
     <dimension dim="2">spin</dimension>
     <field>energy</field>
     <field>total</field>
     <field>integrated</field>
     <set>
      <set comment="spin 1">
       <r>    -3.8426     0.0000     0.0000 </r>
       <r>    -3.7656     0.0000     0.0000 </r>
       <r>    -3.6885     0.0000     0.0000 </r>
       <r>    -3.6114     0.0000     0.0000 </r>
       <r>    -3.5343     0.0000     0.0000 </r>
       <r>    -3.4573     0.0000     0.0000 </r>
       <r>    -3.3802     0.0000     0.0000 </r>
       <r>    -3.3031     0.0000     0.0000 </r>
       <r>    -3.2260     0.0000     0.0000 </r>
       <r>    -3.1490     0.0000     0.0000 </r>
       <r>    -3.0719     0.0000     0.0000 </r>
       <r>    -2.9948     0.0000     0.0000 </r>
       <r>    -2.9178     0.0000     0.0000 </r>
       <r>    -2.8407     0.0000     0.0000 </r>
       <r>    -2.7636     0.0000     0.0000 </r>
       <r>    -2.6865     0.0000     0.0000 </r>
       <r>    -2.6095     0.0000     0.0000 </r>
       <r>    -2.5324     0.0000     0.0000 </r>
       <r>    -2.4553     0.0000     0.0000 </r>
       <r>    -2.3782     0.0000     0.0000 </r>
       <r>    -2.3012     0.0000     0.0000 </r>
       <r>    -2.2241     0.0000     0.0000 </r>
       <r>    -2.1470     0.0000     0.0000 </r>
       <r>    -2.0700     0.0000     0.0000 </r>
       <r>    -1.9929     0.0000     0.0000 </r>
       <r>    -1.9158     0.0000     0.0000 </r>
       <r>    -1.8387     0.0000     0.0000 </r>
       <r>    -1.7617     0.0000     0.0000 </r>
       <r>    -1.6846     0.0000     0.0000 </r>
       <r>    -1.6075    -0.0001     0.0000 </r>
       <r>    -1.5304    -0.0002     0.0000 </r>
       <r>    -1.4534    -0.0006    -0.0001 </r>
       <r>    -1.3763    -0.0015    -0.0002 </r>
       <r>    -1.2992    -0.0032    -0.0004 </r>
       <r>    -1.2221    -0.0056    -0.0009 </r>
       <r>    -1.1451    -0.0078    -0.0015 </r>
       <r>    -1.0680    -0.0070    -0.0020 </r>
       <r>    -0.9909     0.0009    -0.0019 </r>
       <r>    -0.9139     0.0207    -0.0003 </r>
       <r>    -0.8368     0.0550     0.0039 </r>
       <r>    -0.7597     0.1026     0.0118 </r>
       <r>    -0.6826     0.1584     0.0240 </r>
       <r>    -0.6056     0.2158     0.0407 </r>
       <r>    -0.5285     0.2692     0.0614 </r>
       <r>    -0.4514     0.3163     0.0858 </r>
       <r>    -0.3743     0.3576     0.1133 </r>
       <r>    -0.2973     0.3947     0.1438 </r>
       <r>    -0.2202     0.4296     0.1769 </r>
       <r>    -0.1431     0.4637     0.2126 </r>
       <r>    -0.0661     0.4977     0.2510 </r>
       <r>     0.0110     0.5321     0.2920 </r>
       <r>     0.0881     0.5675     0.3357 </r>
       <r>     0.1652     0.6045     0.3823 </r>
       <r>     0.2422     0.6443     0.4320 </r>
       <r>     0.3193     0.6882     0.4850 </r>
       <r>     0.3964     0.7371     0.5418 </r>
       <r>     0.4735     0.7913     0.6028 </r>
       <r>     0.5505     0.8499     0.6683 </r>
       <r>     0.6276     0.9110     0.7385 </r>
       <r>     0.7047     0.9726     0.8135 </r>
       <r>     0.7817     1.0342     0.8932 </r>
       <r>     0.8588     1.0975     0.9778 </r>
       <r>     0.9359     1.1657     1.0676 </r>
       <r>     1.0130     1.2432     1.1635 </r>
       <r>     1.0900     1.3417     1.2669 </r>
       <r>     1.1671     1.4925     1.3819 </r>
       <r>     1.2442     1.7608     1.5176 </r>
       <r>     1.3213     2.2361     1.6899 </r>
       <r>     1.3983     2.9861     1.9201 </r>
       <r>     1.4754     3.9881     2.2275 </r>
       <r>     1.5525     5.0981     2.6204 </r>
       <r>     1.6296     6.1075     3.0911 </r>
       <r>     1.7066     6.8682     3.6205 </r>
       <r>     1.7837     7.3960     4.1905 </r>
       <r>     1.8608     7.8697     4.7970 </r>
       <r>     1.9378     8.5264     5.4542 </r>
       <r>     2.0149     9.5301     6.1887 </r>
       <r>     2.0920    10.8895     7.0280 </r>
       <r>     2.1691    12.4446     7.9871 </r>
       <r>     2.2461    13.9016     9.0586 </r>
       <r>     2.3232    14.9044    10.2073 </r>
       <r>     2.4003    15.1461    11.3747 </r>
       <r>     2.4774    14.5027    12.4924 </r>
       <r>     2.5544    13.1269    13.5041 </r>
       <r>     2.6315    11.4227    14.3845 </r>
       <r>     2.7086     9.8870    15.1465 </r>
       <r>     2.7856     8.8928    15.8319 </r>
       <r>     2.8627     8.5444    16.4905 </r>
       <r>     2.9398     8.6916    17.1604 </r>
       <r>     3.0169     9.0854    17.8606 </r>
       <r>     3.0939     9.5554    18.5971 </r>
       <r>     3.1710    10.0729    19.3734 </r>
       <r>     3.2481    10.6675    20.1956 </r>
       <r>     3.3252    11.2931    21.0660 </r>
       <r>     3.4022    11.7813    21.9740 </r>
       <r>     3.4793    11.9322    22.8937 </r>
       <r>     3.5564    11.6644    23.7927 </r>
       <r>     3.6334    11.0951    24.6478 </r>
       <r>     3.7105    10.4894    25.4563 </r>
       <r>     3.7876    10.1214    26.2363 </r>
       <r>     3.8647    10.1366    27.0176 </r>
       <r>     3.9417    10.4746    27.8249 </r>
       <r>     4.0188    10.8747    28.6631 </r>
       <r>     4.0959    10.9676    29.5084 </r>
       <r>     4.1730    10.4409    30.3131 </r>
       <r>     4.2500     9.2178    31.0235 </r>
       <r>     4.3271     7.5420    31.6048 </r>
       <r>     4.4042     5.8961    32.0592 </r>
       <r>     4.4813     4.7909    32.4285 </r>
       <r>     4.5583     4.5563    32.7797 </r>
       <r>     4.6354     5.2543    33.1846 </r>
       <r>     4.7125     6.7328    33.7035 </r>
       <r>     4.7895     8.7442    34.3775 </r>
       <r>     4.8666    11.0399    35.2284 </r>
       <r>     4.9437    13.3991    36.2611 </r>
       <r>     5.0208    15.6156    37.4646 </r>
       <r>     5.0978    17.4956    38.8130 </r>
       <r>     5.1749    18.8945    40.2693 </r>
       <r>     5.2520    19.7568    41.7920 </r>
       <r>     5.3291    20.1085    43.3418 </r>
       <r>     5.4061    20.0157    44.8845 </r>
       <r>     5.4832    19.6003    46.3951 </r>
       <r>     5.5603    19.1342    47.8699 </r>
       <r>     5.6373    19.0819    49.3406 </r>
       <r>     5.7144    19.9206    50.8759 </r>
       <r>     5.7915    21.7629    52.5532 </r>
       <r>     5.8686    24.0622    54.4078 </r>
       <r>     5.9456    25.7034    56.3888 </r>
       <r>     6.0227    25.5231    58.3560 </r>
       <r>     6.0998    22.9562    60.1253 </r>
       <r>     6.1769    18.3852    61.5423 </r>
       <r>     6.2539    12.9553    62.5408 </r>
       <r>     6.3310     7.9862    63.1563 </r>
       <r>     6.4081     4.3736    63.4934 </r>
       <r>     6.4851     2.3271    63.6727 </r>
       <r>     6.5622     1.5145    63.7895 </r>
       <r>     6.6393     1.4049    63.8977 </r>
       <r>     6.7164     1.5555    64.0176 </r>
       <r>     6.7934     1.7203    64.1502 </r>
       <r>     6.8705     1.8192    64.2904 </r>
       <r>     6.9476     1.8586    64.4337 </r>
       <r>     7.0247     1.8676    64.5776 </r>
       <r>     7.1017     1.8671    64.7215 </r>
       <r>     7.1788     1.8643    64.8652 </r>
       <r>     7.2559     1.8582    65.0084 </r>
       <r>     7.3329     1.8465    65.1507 </r>
       <r>     7.4100     1.8277    65.2916 </r>
       <r>     7.4871     1.8014    65.4304 </r>
       <r>     7.5642     1.7692    65.5668 </r>
       <r>     7.6412     1.7366    65.7006 </r>
       <r>     7.7183     1.7130    65.8327 </r>
       <r>     7.7954     1.7058    65.9641 </r>
       <r>     7.8725     1.7138    66.0962 </r>
       <r>     7.9495     1.7261    66.2292 </r>
       <r>     8.0266     1.7313    66.3627 </r>
       <r>     8.1037     1.7260    66.4957 </r>
       <r>     8.1808     1.7156    66.6279 </r>
       <r>     8.2578     1.7062    66.7594 </r>
       <r>     8.3349     1.6980    66.8903 </r>
       <r>     8.4120     1.6875    67.0204 </r>
       <r>     8.4890     1.6737    67.1494 </r>
       <r>     8.5661     1.6595    67.2773 </r>
       <r>     8.6432     1.6487    67.4043 </r>
       <r>     8.7203     1.6418    67.5309 </r>
       <r>     8.7973     1.6369    67.6570 </r>
       <r>     8.8744     1.6322    67.7828 </r>
       <r>     8.9515     1.6264    67.9082 </r>
       <r>     9.0286     1.6186    68.0329 </r>
       <r>     9.1056     1.6084    68.1569 </r>
       <r>     9.1827     1.5973    68.2800 </r>
       <r>     9.2598     1.5885    68.4024 </r>
       <r>     9.3368     1.5849    68.5246 </r>
       <r>     9.4139     1.5853    68.6468 </r>
       <r>     9.4910     1.5835    68.7688 </r>
       <r>     9.5681     1.5720    68.8900 </r>
       <r>     9.6451     1.5475    69.0092 </r>
       <r>     9.7222     1.5143    69.1259 </r>
       <r>     9.7993     1.4813    69.2401 </r>
       <r>     9.8764     1.4553    69.3523 </r>
       <r>     9.9534     1.4359    69.4629 </r>
       <r>    10.0305     1.4181    69.5722 </r>
       <r>    10.1076     1.3986    69.6800 </r>
       <r>    10.1846     1.3783    69.7863 </r>
       <r>    10.2617     1.3596    69.8910 </r>
       <r>    10.3388     1.3421    69.9945 </r>
       <r>    10.4159     1.3209    70.0963 </r>
       <r>    10.4929     1.2897    70.1957 </r>
       <r>    10.5700     1.2455    70.2917 </r>
       <r>    10.6471     1.1917    70.3835 </r>
       <r>    10.7242     1.1377    70.4712 </r>
       <r>    10.8012     1.0965    70.5557 </r>
       <r>    10.8783     1.0819    70.6391 </r>
       <r>    10.9554     1.1063    70.7244 </r>
       <r>    11.0325     1.1783    70.8152 </r>
       <r>    11.1095     1.2996    70.9154 </r>
       <r>    11.1866     1.4600    71.0279 </r>
       <r>    11.2637     1.6365    71.1540 </r>
       <r>    11.3407     1.7980    71.2926 </r>
       <r>    11.4178     1.9162    71.4403 </r>
       <r>    11.4949     1.9767    71.5926 </r>
       <r>    11.5720     1.9833    71.7455 </r>
       <r>    11.6490     1.9538    71.8961 </r>
       <r>    11.7261     1.9106    72.0433 </r>
       <r>    11.8032     1.8704    72.1875 </r>
       <r>    11.8803     1.8400    72.3293 </r>
       <r>    11.9573     1.8172    72.4693 </r>
       <r>    12.0344     1.7961    72.6078 </r>
       <r>    12.1115     1.7728    72.7444 </r>
       <r>    12.1885     1.7487    72.8792 </r>
       <r>    12.2656     1.7291    73.0125 </r>
       <r>    12.3427     1.7192    73.1450 </r>
       <r>    12.4198     1.7212    73.2776 </r>
       <r>    12.4968     1.7336    73.4112 </r>
       <r>    12.5739     1.7519    73.5463 </r>
       <r>    12.6510     1.7682    73.6825 </r>
       <r>    12.7281     1.7732    73.8192 </r>
       <r>    12.8051     1.7608    73.9549 </r>
       <r>    12.8822     1.7337    74.0885 </r>
       <r>    12.9593     1.7033    74.2198 </r>
       <r>    13.0363     1.6826    74.3495 </r>
       <r>    13.1134     1.6774    74.4788 </r>
       <r>    13.1905     1.6822    74.6084 </r>
       <r>    13.2676     1.6857    74.7384 </r>
       <r>    13.3446     1.6828    74.8681 </r>
       <r>    13.4217     1.6807    74.9976 </r>
       <r>    13.4988     1.6943    75.1282 </r>
       <r>    13.5759     1.7336    75.2618 </r>
       <r>    13.6529     1.7951    75.4001 </r>
       <r>    13.7300     1.8661    75.5440 </r>
       <r>    13.8071     1.9351    75.6931 </r>
       <r>    13.8841     1.9972    75.8470 </r>
       <r>    13.9612     2.0495    76.0050 </r>
       <r>    14.0383     2.0849    76.1657 </r>
       <r>    14.1154     2.0936    76.3270 </r>
       <r>    14.1924     2.0712    76.4867 </r>
       <r>    14.2695     2.0258    76.6428 </r>
       <r>    14.3466     1.9762    76.7951 </r>
       <r>    14.4237     1.9429    76.9449 </r>
       <r>    14.5007     1.9365    77.0941 </r>
       <r>    14.5778     1.9513    77.2445 </r>
       <r>    14.6549     1.9684    77.3962 </r>
       <r>    14.7320     1.9686    77.5480 </r>
       <r>    14.8090     1.9456    77.6979 </r>
       <r>    14.8861     1.9079    77.8450 </r>
       <r>    14.9632     1.8686    77.9890 </r>
       <r>    15.0402     1.8327    78.1302 </r>
       <r>    15.1173     1.7932    78.2684 </r>
       <r>    15.1944     1.7404    78.4026 </r>
       <r>    15.2715     1.6728    78.5315 </r>
       <r>    15.3485     1.6011    78.6549 </r>
       <r>    15.4256     1.5403    78.7736 </r>
       <r>    15.5027     1.5013    78.8893 </r>
       <r>    15.5798     1.4871    79.0040 </r>
       <r>    15.6568     1.4978    79.1194 </r>
       <r>    15.7339     1.5354    79.2377 </r>
       <r>    15.8110     1.5991    79.3610 </r>
       <r>    15.8880     1.6695    79.4897 </r>
       <r>    15.9651     1.6983    79.6206 </r>
       <r>    16.0422     1.6217    79.7455 </r>
       <r>    16.1193     1.3999    79.8534 </r>
       <r>    16.1963     1.0529    79.9346 </r>
       <r>    16.2734     0.6593    79.9854 </r>
       <r>    16.3505     0.3147    80.0097 </r>
       <r>    16.4276     0.0814    80.0159 </r>
       <r>    16.5046    -0.0336    80.0133 </r>
       <r>    16.5817    -0.0637    80.0084 </r>
       <r>    16.6588    -0.0526    80.0044 </r>
       <r>    16.7358    -0.0318    80.0019 </r>
       <r>    16.8129    -0.0155    80.0007 </r>
       <r>    16.8900    -0.0064    80.0002 </r>
       <r>    16.9671    -0.0022    80.0001 </r>
       <r>    17.0441    -0.0007    80.0000 </r>
       <r>    17.1212    -0.0002    80.0000 </r>
       <r>    17.1983     0.0000    80.0000 </r>
       <r>    17.2754     0.0000    80.0000 </r>
       <r>    17.3524     0.0000    80.0000 </r>
       <r>    17.4295     0.0000    80.0000 </r>
       <r>    17.5066     0.0000    80.0000 </r>
       <r>    17.5837     0.0000    80.0000 </r>
       <r>    17.6607     0.0000    80.0000 </r>
       <r>    17.7378     0.0000    80.0000 </r>
       <r>    17.8149     0.0000    80.0000 </r>
       <r>    17.8919     0.0000    80.0000 </r>
       <r>    17.9690     0.0000    80.0000 </r>
       <r>    18.0461     0.0000    80.0000 </r>
       <r>    18.1232     0.0000    80.0000 </r>
       <r>    18.2002     0.0000    80.0000 </r>
       <r>    18.2773     0.0000    80.0000 </r>
       <r>    18.3544     0.0000    80.0000 </r>
       <r>    18.4315     0.0000    80.0000 </r>
       <r>    18.5085     0.0000    80.0000 </r>
       <r>    18.5856     0.0000    80.0000 </r>
       <r>    18.6627     0.0000    80.0000 </r>
       <r>    18.7397     0.0000    80.0000 </r>
       <r>    18.8168     0.0000    80.0000 </r>
       <r>    18.8939     0.0000    80.0000 </r>
       <r>    18.9710     0.0000    80.0000 </r>
       <r>    19.0480     0.0000    80.0000 </r>
       <r>    19.1251     0.0000    80.0000 </r>
       <r>    19.2022     0.0000    80.0000 </r>
       <r>    19.2793     0.0000    80.0000 </r>
      </set>
     </set>
    </array>
   </total>
  </dos>
 </calculation>
 <structure name="finalpos" >
  <crystal>
   <varray name="basis" >
    <v>      -1.96508691      -3.77922850      -1.96508691 </v>
    <v>      -3.99648090       1.90915259       1.99122663 </v>
    <v>       1.99122663       1.90915259      -3.99648090 </v>
   </varray>
   <i name="volume">     90.30430350 </i>
   <varray name="rec_basis" >
    <v>      -0.12658807      -0.13296018      -0.12658807 </v>
    <v>      -0.20879697       0.13029684      -0.04178815 </v>
    <v>      -0.04178815       0.13029684      -0.20879697 </v>
   </varray>
  </crystal>
  <varray name="positions" >
   <v>       0.00000000       0.66612133       0.33387867 </v>
   <v>       0.00000000       0.33017727       0.66982273 </v>
   <v>       0.50000000       0.17243685       0.82756315 </v>
   <v>       0.00000000       0.00882934       0.99117066 </v>
   <v>       0.50000000       0.82498335       0.17501665 </v>
   <v>       0.50000000       0.49745186       0.50254814 </v>
  </varray>
 </structure>
</modeling>
