<?xml version="1.0" encoding="ISO-8859-1"?>
<modeling>
 <generator>
  <i name="program" type="string">vasp </i>
  <i name="version" type="string">5.3.5  </i>
  <i name="subversion" type="string">31Mar14 (build Jun 20 2014 13:15:13) complex                          parallel </i>
  <i name="platform" type="string">LinuxIFC </i>
  <i name="date" type="string">2025 12 12 </i>
  <i name="time" type="string">11:25:26 </i>
 </generator>
 <incar>
  <i type="string" name="PREC">accurate</i>
  <i type="int" name="IALGO">    38</i>
  <i type="logical" name="ADDGRID"> T  </i>
  <i type="int" name="ISPIN">     2</i>
  <i type="int" name="NELM">   100</i>
  <i type="int" name="NELMIN">     4</i>
  <i name="EDIFF">      0.00000100</i>
  <i name="ENCUT">    500.00000000</i>
  <i type="logical" name="LREAL"> F  </i>
  <i type="int" name="ISMEAR">     0</i>
  <i name="SIGMA">      0.05000000</i>
  <i type="logical" name="LWAVE"> F  </i>
  <i type="logical" name="LCHARG"> F  </i>
  <i type="int" name="NELM">   100</i>
  <i type="logical" name="LDAU"> T  </i>
  <v name="LDAUU">      0.00000000      4.00000000      0.00000000</v>
  <v name="LDAUJ">      0.00000000      0.00000000      0.00000000</v>
 </incar>
 <kpoints>
  <generation param="Auto">
   <i name="subdivisionlength">     20.00000000 </i>
   <v type="int" name="divisions">       5        5        3 </v>
   <v name="usershift">      0.00000000       0.00000000       0.00000000 </v>
   <v name="genvec1">      0.20000000       0.00000000       0.00000000 </v>
   <v name="genvec2">      0.00000000       0.20000000       0.00000000 </v>
   <v name="genvec3">      0.00000000       0.00000000       0.33333333 </v>
   <v name="shift">      0.00000000       0.00000000       0.00000000 </v>
  </generation>
  <varray name="kpointlist" >
   <v>       0.00000000       0.00000000       0.00000000 </v>
   <v>       0.20000000       0.00000000       0.00000000 </v>
   <v>       0.40000000       0.00000000       0.00000000 </v>
   <v>       0.20000000       0.20000000       0.00000000 </v>
   <v>       0.40000000       0.20000000       0.00000000 </v>
   <v>       0.40000000       0.40000000       0.00000000 </v>
   <v>       0.00000000       0.00000000       0.33333333 </v>
   <v>       0.20000000       0.00000000       0.33333333 </v>
   <v>       0.40000000       0.00000000       0.33333333 </v>
   <v>       0.20000000       0.20000000       0.33333333 </v>
   <v>       0.40000000       0.20000000       0.33333333 </v>
   <v>       0.40000000       0.40000000       0.33333333 </v>
  </varray>
  <varray name="weights" >
   <v>       0.01333333 </v>
   <v>       0.05333333 </v>
   <v>       0.05333333 </v>
   <v>       0.05333333 </v>
   <v>       0.10666667 </v>
   <v>       0.05333333 </v>
   <v>       0.02666667 </v>
   <v>       0.10666667 </v>
   <v>       0.10666667 </v>
   <v>       0.10666667 </v>
   <v>       0.21333333 </v>
   <v>       0.10666667 </v>
  </varray>
 </kpoints>
 <parameters>
  <separator name="general" >
   <i type="string" name="SYSTEM">unknown system</i>
   <i type="logical" name="LCOMPAT"> F  </i>
  </separator>
  <separator name="electronic" >
   <i type="string" name="PREC">accura</i>
   <i name="ENMAX">    500.00000000</i>
   <i name="ENAUG">    586.98000000</i>
   <i name="EDIFF">      0.00000100</i>
   <i type="int" name="IALGO">    38</i>
   <i type="int" name="IWAVPR">    10</i>
   <i type="int" name="NBANDS">    44</i>
   <i name="NELECT">     66.00000000</i>
   <i type="int" name="TURBO">     0</i>
   <i type="int" name="IRESTART">     0</i>
   <i type="int" name="NREBOOT">     0</i>
   <i type="int" name="NMIN">     0</i>
   <i name="EREF">      0.00000000</i>
   <separator name="electronic smearing" >
    <i type="int" name="ISMEAR">     0</i>
    <i name="SIGMA">      0.05000000</i>
    <i name="KSPACING">      0.50000000</i>
    <i type="logical" name="KGAMMA"> T  </i>
   </separator>
   <separator name="electronic projectors" >
    <i type="logical" name="LREAL"> F  </i>
    <v name="ROPT">      0.00000000      0.00000000      0.00000000</v>
    <i type="int" name="LMAXPAW">  -100</i>
    <i type="int" name="LMAXMIX">     2</i>
    <i type="logical" name="NLSPLINE"> F  </i>
   </separator>
   <separator name="electronic startup" >
    <i type="int" name="ISTART">     0</i>
    <i type="int" name="ICHARG">     2</i>
    <i type="int" name="INIWAV">     1</i>
   </separator>
   <separator name="electronic spin" >
    <i type="int" name="ISPIN">     2</i>
    <i type="logical" name="LNONCOLLINEAR"> F  </i>
    <v name="MAGMOM">      1.00000000      1.00000000      1.00000000      1.00000000      1.00000000      1.00000000      1.00000000      1.00000000</v>
    <i name="NUPDOWN">     -1.00000000</i>
    <i type="logical" name="LSORBIT"> F  </i>
    <v name="SAXIS">      0.00000000      0.00000000      1.00000000</v>
    <i type="logical" name="LSPIRAL"> F  </i>
    <v name="QSPIRAL">      0.00000000      0.00000000      0.00000000</v>
    <i type="logical" name="LZEROZ"> F  </i>
   </separator>
   <separator name="electronic exchange-correlation" >
    <i type="logical" name="LASPH"> F  </i>
    <i type="logical" name="LMETAGGA"> F  </i>
   </separator>
   <separator name="electronic convergence" >
    <i type="int" name="NELM">   100</i>
    <i type="int" name="NELMDL">    -5</i>
    <i type="int" name="NELMIN">     4</i>
    <i name="ENINI">    500.00000000</i>
    <separator name="electronic convergence detail" >
     <i type="logical" name="LDIAG"> T  </i>
     <i type="logical" name="LSUBROT"> F  </i>
     <i name="WEIMIN">      0.00000000</i>
     <i name="EBREAK">      0.00000001</i>
     <i name="DEPER">      0.30000000</i>
     <i type="int" name="NRMM">     4</i>
     <i name="TIME">      0.40000000</i>
    </separator>
   </separator>
   <separator name="electronic mixer" >
    <i name="AMIX">      0.40000000</i>
    <i name="BMIX">      1.00000000</i>
    <i name="AMIN">      0.10000000</i>
    <i name="AMIX_MAG">      1.60000000</i>
    <i name="BMIX_MAG">      1.00000000</i>
    <separator name="electronic mixer details" >
     <i type="int" name="IMIX">     4</i>
     <i type="int" name="MAXMIX">   -45</i>
     <i name="WC">    100.00000000</i>
     <i type="int" name="INIMIX">     1</i>
     <i type="int" name="MIXPRE">     1</i>
     <i type="int" name="MREMOVE">     5</i>
    </separator>
   </separator>
   <separator name="electronic dipolcorrection" >
    <i type="logical" name="LDIPOL"> F  </i>
    <i type="logical" name="LMONO"> F  </i>
    <i type="int" name="IDIPOL">     0</i>
    <i name="EPSILON">      1.00000000</i>
    <v name="DIPOL">   -100.00000000   -100.00000000   -100.00000000</v>
    <i name="EFIELD">      0.00000000</i>
   </separator>
  </separator>
  <separator name="grids" >
   <i type="int" name="NGX">    30</i>
   <i type="int" name="NGY">    30</i>
   <i type="int" name="NGZ">    60</i>
   <i type="int" name="NGXF">    60</i>
   <i type="int" name="NGYF">    60</i>
   <i type="int" name="NGZF">   120</i>
   <i type="logical" name="ADDGRID"> T  </i>
  </separator>
  <separator name="ionic" >
   <i type="int" name="NSW">     0</i>
   <i type="int" name="IBRION">    -1</i>
   <i type="int" name="ISIF">     2</i>
   <i name="PSTRESS">      0.00000000</i>
   <i name="EDIFFG">      0.00001000</i>
   <i type="int" name="NFREE">     0</i>
   <i name="POTIM">      0.50000000</i>
   <i name="SMASS">     -3.00000000</i>
   <i name="SCALEE">      1.00000000</i>
  </separator>
  <separator name="ionic md" >
   <i name="TEBEG">      0.00010000</i>
   <i name="TEEND">      0.00010000</i>
   <i type="int" name="NBLOCK">     1</i>
   <i type="int" name="KBLOCK">     1</i>
   <i type="int" name="NPACO">   256</i>
   <i name="APACO">     16.00000000</i>
  </separator>
  <separator name="symmetry" >
   <i type="int" name="ISYM">     2</i>
   <i name="SYMPREC">      0.00001000</i>
  </separator>
  <separator name="dos" >
   <i type="logical" name="LORBIT"> F  </i>
   <v name="RWIGS">     -1.00000000     -1.00000000     -1.00000000</v>
   <i type="int" name="NEDOS">   301</i>
   <i name="EMIN">     10.00000000</i>
   <i name="EMAX">    -10.00000000</i>
   <i name="EFERMI">      0.00000000</i>
  </separator>
  <separator name="writing" >
   <i type="int" name="NWRITE">     2</i>
   <i type="logical" name="LWAVE"> F  </i>
   <i type="logical" name="LCHARG"> F  </i>
   <i type="logical" name="LPARD"> F  </i>
   <i type="logical" name="LVTOT"> F  </i>
   <i type="logical" name="LVHAR"> F  </i>
   <i type="logical" name="LELF"> F  </i>
   <i type="logical" name="LOPTICS"> F  </i>
   <v name="STM">      0.00000000      0.00000000      0.00000000      0.00000000      0.00000000      0.00000000      0.00000000</v>
  </separator>
  <separator name="performance" >
   <i type="int" name="NPAR">     4</i>
   <i type="int" name="NSIM">     4</i>
   <i type="int" name="NBLK">    -1</i>
   <i type="logical" name="LPLANE"> T  </i>
   <i type="logical" name="LSCALAPACK"> T  </i>
   <i type="logical" name="LSCAAWARE"> F  </i>
   <i type="logical" name="LSCALU"> F  </i>
   <i type="logical" name="LASYNC"> F  </i>
   <i type="logical" name="LORBITALREAL"> F  </i>
  </separator>
  <separator name="miscellaneous" >
   <i type="int" name="IDIOT">     3</i>
   <i type="logical" name="LMUSIC"> F  </i>
   <v name="POMASS">     87.62000000     63.54600000     16.00000000</v>
   <v name="DARWINR">      0.00000000      0.00000000      0.00000000</v>
   <v name="DARWINV">      1.00000000      1.00000000      1.00000000</v>
   <i type="logical" name="LCORR"> T  </i>
  </separator>
  <i type="logical" name="GGA_COMPAT"> T  </i>
  <i type="logical" name="LBERRY"> F  </i>
  <i type="int" name="ICORELEVEL">     0</i>
  <i type="logical" name="LDAU"> T  </i>
  <v type="int" name="LDAUTYPE">     2</v>
  <v type="int" name="LDAUL">     2</v>
  <v name="LDAUU">      0.00000000</v>
  <v name="LDAUJ">      0.00000000</v>
  <i type="int" name="LDAUPRINT">     0</i>
  <i type="int" name="I_CONSTRAINED_M">     0</i>
  <separator name="electronic exchange-correlation" >
   <i type="string" name="GGA">--</i>
   <i type="int" name="VOSKOWN">     0</i>
   <i type="logical" name="LHFCALC"> F  </i>
   <i type="string" name="PRECFOCK"></i>
   <i type="logical" name="LSYMGRAD"> F  </i>
   <i type="logical" name="LHFONE"> F  </i>
   <i type="logical" name="LRHFCALC"> F  </i>
   <i type="logical" name="LTHOMAS"> F  </i>
   <i type="logical" name="LMODELHF"> F  </i>
   <i name="ENCUT4O">     -1.00000000</i>
   <i type="int" name="EXXOEP">     0</i>
   <i type="int" name="FOURORBIT">     0</i>
   <i name="AEXX">      0.00000000</i>
   <i name="HFALPHA">      0.00000000</i>
   <i name="MCALPHA">      0.00000000</i>
   <i name="ALDAX">      1.00000000</i>
   <i name="AGGAX">      1.00000000</i>
   <i name="ALDAC">      1.00000000</i>
   <i name="AGGAC">      1.00000000</i>
   <i type="int" name="NKREDX">     1</i>
   <i type="int" name="NKREDY">     1</i>
   <i type="int" name="NKREDZ">     1</i>
   <i type="logical" name="SHIFTRED"> F  </i>
   <i type="logical" name="ODDONLY"> F  </i>
   <i type="logical" name="EVENONLY"> F  </i>
   <i type="int" name="LMAXFOCK">     0</i>
   <i type="int" name="NMAXFOCKAE">     0</i>
   <i type="logical" name="LFOCKAEDFT"> F  </i>
   <i name="HFSCREEN">      0.00000000</i>
   <i name="HFSCREENC">      0.00000000</i>
   <i type="int" name="NBANDSGWLOW">     0</i>
  </separator>
  <separator name="vdW DFT" >
   <i type="logical" name="LUSE_VDW"> F  </i>
   <i name="Zab_VDW">     -0.84910000</i>
   <i name="PARAM1">      0.12340000</i>
   <i name="PARAM2">      1.00000000</i>
   <i name="PARAM3">      0.00000000</i>
  </separator>
  <separator name="model GW" >
   <i type="int" name="MODEL_GW">     0</i>
   <i name="MODEL_EPS0">      9.60000000</i>
   <i name="MODEL_ALPHA">      1.00000000</i>
  </separator>
  <separator name="linear response parameters" >
   <i type="logical" name="LEPSILON"> F  </i>
   <i type="logical" name="LRPA"> F  </i>
   <i type="logical" name="LNABLA"> F  </i>
   <i type="logical" name="LVEL"> F  </i>
   <i type="int" name="KINTER">     0</i>
   <i name="CSHIFT">      0.10000000</i>
   <i name="OMEGAMAX">     -1.00000000</i>
   <i name="DEG_THRESHOLD">      0.00200000</i>
  </separator>
  <separator name="orbital magnetization" >
   <i type="logical" name="NUCIND"> F  </i>
   <v name="MAGPOS">      0.00000000      0.00000000      0.00000000</v>
   <i type="logical" name="LNICSALL"> T  </i>
   <i type="logical" name="ORBITALMAG"> F  </i>
   <i type="logical" name="LMAGBLOCH"> F  </i>
   <i type="logical" name="LCHIMAG"> F  </i>
   <i type="logical" name="LGAUGE"> T  </i>
   <i type="int" name="MAGATOM">     0</i>
   <v name="MAGDIPOL">      0.00000000      0.00000000      0.00000000</v>
   <v name="AVECCONST">      0.00000000      0.00000000      0.00000000</v>
  </separator>
  <separator name="response functions" >
   <i type="logical" name="LADDER"> F  </i>
   <i type="logical" name="LFXC"> F  </i>
   <i type="logical" name="LHARTREE"> T  </i>
   <i type="int" name="IBSE">     0</i>
   <i type="logical" name="LTCTE"> F  </i>
   <i type="logical" name="LTETE"> F  </i>
   <i type="logical" name="LTRIPLET"> F  </i>
   <i type="logical" name="LFXCEPS"> F  </i>
   <i type="logical" name="LFXHEG"> F  </i>
   <i type="logical" name="L2ORDER"> F  </i>
   <i type="logical" name="LUSEW"> F  </i>
   <i name="ENCUTGW">     -2.00000000</i>
   <i name="ENCUTGWSOFT">     -2.00000000</i>
   <i name="ENCUTLF">     -1.00000000</i>
   <i type="int" name="LMAXMP2">    -1</i>
   <i name="SCISSOR">      0.00000000</i>
   <i type="int" name="NOMEGA">     0</i>
   <i type="int" name="NOMEGAR">     0</i>
   <i type="int" name="NBANDSGW">    -1</i>
   <i type="int" name="NBANDSO">    -1</i>
   <i type="int" name="NBANDSV">    -1</i>
   <i type="int" name="NELM">   100</i>
   <i type="int" name="DIM">     3</i>
   <i type="int" name="ANTIRES">     0</i>
   <i name="OMEGAMAX">    -30.00000000</i>
   <i name="OMEGAMIN">    -30.00000000</i>
   <i name="OMEGATL">   -200.00000000</i>
   <i type="int" name="OMEGAGRID">     0</i>
   <i name="CSHIFT">     -0.10000000</i>
   <i type="logical" name="SELFENERGY"> F  </i>
   <i type="logical" name="LSPECTRAL"> F  </i>
   <i type="logical" name="ODDONLYGW"> F  </i>
   <i type="logical" name="EVENONLYGW"> F  </i>
   <i type="int" name="NKREDLFX">     1</i>
   <i type="int" name="NKREDLFY">     1</i>
   <i type="int" name="NKREDLFZ">     1</i>
   <i type="int" name="MAXMEM">  1800</i>
   <i type="int" name="TELESCOPE">     0</i>
   <i type="int" name="TAUPAR">     1</i>
  </separator>
  <separator name="External order field" >
   <i name="OFIELD_KAPPA">      0.00000000</i>
   <v name="OFIELD_K">      0.00000000      0.00000000      0.00000000</v>
   <i name="OFIELD_Q6_NEAR">      0.00000000</i>
   <i name="OFIELD_Q6_FAR">      0.00000000</i>
   <i name="OFIELD_A">      0.00000000</i>
  </separator>
 </parameters>
 <atominfo>
  <atoms>       8 </atoms>
  <types>       3 </types>
  <array name="atoms" >
   <dimension dim="1">ion</dimension>
   <field type="string">element</field>
   <field type="int">atomtype</field>
   <set>
    <rc><c>Sr</c><c>   1</c></rc>
    <rc><c>Sr</c><c>   1</c></rc>
    <rc><c>Cu</c><c>   2</c></rc>
    <rc><c>Cu</c><c>   2</c></rc>
    <rc><c>O </c><c>   3</c></rc>
    <rc><c>O </c><c>   3</c></rc>
    <rc><c>O </c><c>   3</c></rc>
    <rc><c>O </c><c>   3</c></rc>
   </set>
  </array>
  <array name="atomtypes" >
   <dimension dim="1">type</dimension>
   <field type="int">atomspertype</field>
   <field type="string">element</field>
   <field>mass</field>
   <field>valence</field>
   <field type="string">pseudopotential</field>
   <set>
    <rc><c>   2</c><c>Sr</c><c>     87.62000000</c><c>     10.00000000</c><c>  PAW_PBE Sr_sv 07Sep2000               </c></rc>
    <rc><c>   2</c><c>Cu</c><c>     63.54600000</c><c>     11.00000000</c><c>  PAW_PBE Cu 22Jun2005                  </c></rc>
    <rc><c>   4</c><c>O </c><c>     16.00000000</c><c>      6.00000000</c><c>  PAW_PBE O_s 07Sep2000                 </c></rc>
   </set>
  </array>
 </atominfo>
 <structure name="initialpos" >
  <crystal>
   <varray name="basis" >
    <v>       4.00000000       0.00000000       0.00000000 </v>
    <v>       0.00000000       4.00000000       0.00000000 </v>
    <v>       0.00000000       0.00000000       8.00000000 </v>
   </varray>
   <i name="volume">    128.00000000 </i>
   <varray name="rec_basis" >
    <v>       0.25000000       0.00000000       0.00000000 </v>
    <v>       0.00000000       0.25000000       0.00000000 </v>
    <v>       0.00000000       0.00000000       0.12500000 </v>
   </varray>
  </crystal>
  <varray name="positions" >
   <v>       0.00000000       0.00000000       0.75000000 </v>
   <v>       0.00000000       0.00000000       0.25000000 </v>
   <v>       0.50000000       0.50000000       0.00000000 </v>
   <v>       0.50000000       0.50000000       0.50000000 </v>
   <v>       0.50000000       0.50000000       0.75000000 </v>
   <v>       0.50000000       0.50000000       0.25000000 </v>
   <v>       0.00000000       0.50000000       0.50000000 </v>
   <v>       0.50000000       0.00000000       0.00000000 </v>
  </varray>
 </structure>
 <calculation>
  <scstep>
   <time name="dav">    0.46    0.46</time>
   <time name="total">    0.57    0.58</time>
   <energy>
    <i name="alphaZ">    299.32682072 </i>
    <i name="ewald">  -4377.18623461 </i>
    <i name="hartreedc">  -1844.98766123 </i>
    <i name="XCdc">    271.54760538 </i>
    <i name="pawpsdc">   5094.48486484 </i>
    <i name="pawaedc">  -5258.86638562 </i>
    <i name="eentropy">     -0.00161236 </i>
    <i name="bandstr">    355.40496774 </i>
    <i name="atom">   6197.50364118 </i>
    <i name="e_fr_energy">    737.22600604 </i>
    <i name="e_wo_entrp">    737.22761840 </i>
    <i name="e_0_energy">    737.22681222 </i>
   </energy>
  </scstep>
  <scstep>
   <time name="dav">    0.47    0.47</time>
   <time name="total">    0.47    0.48</time>
   <energy>
    <i name="e_fr_energy">     42.75864273 </i>
    <i name="e_wo_entrp">     42.76370217 </i>
    <i name="e_0_energy">     42.76117245 </i>
   </energy>
  </scstep>
  <scstep>
   <time name="dav">    0.50    0.50</time>
   <time name="total">    0.50    0.51</time>
   <energy>
    <i name="e_fr_energy">    -42.43291070 </i>
    <i name="e_wo_entrp">    -42.42956501 </i>
    <i name="e_0_energy">    -42.43123785 </i>
   </energy>
  </scstep>
  <scstep>
   <time name="dav">    0.74    0.74</time>
   <time name="total">    0.74    0.75</time>
   <energy>
    <i name="e_fr_energy">    -48.74082299 </i>
    <i name="e_wo_entrp">    -48.73749488 </i>
    <i name="e_0_energy">    -48.73915893 </i>
   </energy>
  </scstep>
  <scstep>
   <time name="dav">    0.69    0.69</time>
   <time name="total">    0.82    0.83</time>
   <energy>
    <i name="e_fr_energy">    -49.04023950 </i>
    <i name="e_wo_entrp">    -49.03698049 </i>
    <i name="e_0_energy">    -49.03860999 </i>
   </energy>
  </scstep>
  <scstep>
   <time name="dav">    0.61    0.61</time>
   <time name="total">    0.85    0.86</time>
   <energy>
    <i name="e_fr_energy">    -42.66128119 </i>
    <i name="e_wo_entrp">    -42.65332475 </i>
    <i name="e_0_energy">    -42.65730297 </i>
   </energy>
  </scstep>
  <scstep>
   <time name="dav">    0.64    0.64</time>
   <time name="total">    0.88    0.89</time>
   <energy>
    <i name="e_fr_energy">    -40.80592529 </i>
    <i name="e_wo_entrp">    -40.80464537 </i>
    <i name="e_0_energy">    -40.80528533 </i>
   </energy>
  </scstep>
  <scstep>
   <time name="dav">    0.66    0.66</time>
   <time name="total">    0.89    0.91</time>
   <energy>
    <i name="e_fr_energy">    -40.76028970 </i>
    <i name="e_wo_entrp">    -40.75898718 </i>
    <i name="e_0_energy">    -40.75963844 </i>
   </energy>
  </scstep>
  <scstep>
   <time name="dav">    0.70    0.70</time>
   <time name="total">    0.93    0.94</time>
   <energy>
    <i name="e_fr_energy">    -40.62057236 </i>
    <i name="e_wo_entrp">    -40.61885818 </i>
    <i name="e_0_energy">    -40.61971527 </i>
   </energy>
  </scstep>
  <scstep>
   <time name="dav">    0.68    0.68</time>
   <time name="total">    0.91    0.93</time>
   <energy>
    <i name="e_fr_energy">    -40.64602014 </i>
    <i name="e_wo_entrp">    -40.64326256 </i>
    <i name="e_0_energy">    -40.64464135 </i>
   </energy>
  </scstep>
  <scstep>
   <time name="dav">    0.63    0.63</time>
   <time name="total">    0.86    0.87</time>
   <energy>
    <i name="e_fr_energy">    -40.65025729 </i>
    <i name="e_wo_entrp">    -40.64715432 </i>
    <i name="e_0_energy">    -40.64870580 </i>
   </energy>
  </scstep>
  <scstep>
   <time name="dav">    0.66    0.66</time>
   <time name="total">    0.89    0.90</time>
   <energy>
    <i name="e_fr_energy">    -40.65243079 </i>
    <i name="e_wo_entrp">    -40.64909105 </i>
    <i name="e_0_energy">    -40.65076092 </i>
   </energy>
  </scstep>
  <scstep>
   <time name="dav">    0.68    0.68</time>
   <time name="total">    0.91    0.92</time>
   <energy>
    <i name="e_fr_energy">    -40.65369066 </i>
    <i name="e_wo_entrp">    -40.64987345 </i>
    <i name="e_0_energy">    -40.65178206 </i>
   </energy>
  </scstep>
  <scstep>
   <time name="dav">    0.71    0.71</time>
   <time name="total">    0.94    0.96</time>
   <energy>
    <i name="e_fr_energy">    -40.65503518 </i>
    <i name="e_wo_entrp">    -40.65156338 </i>
    <i name="e_0_energy">    -40.65329928 </i>
   </energy>
  </scstep>
  <scstep>
   <time name="dav">    0.71    0.71</time>
   <time name="total">    0.94    0.96</time>
   <energy>
    <i name="e_fr_energy">    -40.65624204 </i>
    <i name="e_wo_entrp">    -40.65285052 </i>
    <i name="e_0_energy">    -40.65454628 </i>
   </energy>
  </scstep>
  <scstep>
   <time name="dav">    0.68    0.68</time>
   <time name="total">    0.91    0.93</time>
   <energy>
    <i name="e_fr_energy">    -40.65687961 </i>
    <i name="e_wo_entrp">    -40.65270832 </i>
    <i name="e_0_energy">    -40.65479396 </i>
   </energy>
  </scstep>
  <scstep>
   <time name="dav">    0.72    0.72</time>
   <time name="total">    0.95    0.97</time>
   <energy>
    <i name="e_fr_energy">    -40.65786155 </i>
    <i name="e_wo_entrp">    -40.65348626 </i>
    <i name="e_0_energy">    -40.65567390 </i>
   </energy>
  </scstep>
  <scstep>
   <time name="dav">    0.63    0.63</time>
   <time name="total">    0.86    0.87</time>
   <energy>
    <i name="e_fr_energy">    -40.65752028 </i>
    <i name="e_wo_entrp">    -40.65312759 </i>
    <i name="e_0_energy">    -40.65532394 </i>
   </energy>
  </scstep>
  <scstep>
   <time name="dav">    0.67    0.67</time>
   <time name="total">    0.90    0.91</time>
   <energy>
    <i name="e_fr_energy">    -40.65824840 </i>
    <i name="e_wo_entrp">    -40.65413965 </i>
    <i name="e_0_energy">    -40.65619403 </i>
   </energy>
  </scstep>
  <scstep>
   <time name="dav">    0.68    0.68</time>
   <time name="total">    0.91    0.93</time>
   <energy>
    <i name="e_fr_energy">    -40.65891925 </i>
    <i name="e_wo_entrp">    -40.65534111 </i>
    <i name="e_0_energy">    -40.65713018 </i>
   </energy>
  </scstep>
  <scstep>
   <time name="dav">    0.69    0.69</time>
   <time name="total">    0.92    0.93</time>
   <energy>
    <i name="e_fr_energy">    -40.65921748 </i>
    <i name="e_wo_entrp">    -40.65603219 </i>
    <i name="e_0_energy">    -40.65762483 </i>
   </energy>
  </scstep>
  <scstep>
   <time name="dav">    0.67    0.67</time>
   <time name="total">    0.90    0.91</time>
   <energy>
    <i name="e_fr_energy">    -40.65731765 </i>
    <i name="e_wo_entrp">    -40.65341405 </i>
    <i name="e_0_energy">    -40.65536585 </i>
   </energy>
  </scstep>
  <scstep>
   <time name="dav">    0.70    0.70</time>
   <time name="total">    0.93    0.94</time>
   <energy>
    <i name="e_fr_energy">    -40.65381564 </i>
    <i name="e_wo_entrp">    -40.64974085 </i>
    <i name="e_0_energy">    -40.65177825 </i>
   </energy>
  </scstep>
  <scstep>
   <time name="dav">    0.71    0.71</time>
   <time name="total">    0.94    0.95</time>
   <energy>
    <i name="e_fr_energy">    -40.65298592 </i>
    <i name="e_wo_entrp">    -40.64950153 </i>
    <i name="e_0_energy">    -40.65124373 </i>
   </energy>
  </scstep>
  <scstep>
   <time name="dav">    0.71    0.72</time>
   <time name="total">    0.95    0.96</time>
   <energy>
    <i name="e_fr_energy">    -40.65270498 </i>
    <i name="e_wo_entrp">    -40.64884137 </i>
    <i name="e_0_energy">    -40.65077317 </i>
   </energy>
  </scstep>
  <scstep>
   <time name="dav">    0.70    0.70</time>
   <time name="total">    0.93    0.95</time>
   <energy>
    <i name="e_fr_energy">    -40.65333587 </i>
    <i name="e_wo_entrp">    -40.64954348 </i>
    <i name="e_0_energy">    -40.65143967 </i>
   </energy>
  </scstep>
  <scstep>
   <time name="dav">    0.69    0.69</time>
   <time name="total">    0.92    0.97</time>
   <energy>
    <i name="e_fr_energy">    -40.65399247 </i>
    <i name="e_wo_entrp">    -40.65014497 </i>
    <i name="e_0_energy">    -40.65206872 </i>
   </energy>
  </scstep>
  <scstep>
   <time name="dav">    0.69    0.69</time>
   <time name="total">    0.93    0.94</time>
   <energy>
    <i name="e_fr_energy">    -40.65520210 </i>
    <i name="e_wo_entrp">    -40.65168281 </i>
    <i name="e_0_energy">    -40.65344246 </i>
   </energy>
  </scstep>
  <scstep>
   <time name="dav">    0.69    0.69</time>
   <time name="total">    0.92    0.94</time>
   <energy>
    <i name="e_fr_energy">    -40.65647095 </i>
    <i name="e_wo_entrp">    -40.65247238 </i>
    <i name="e_0_energy">    -40.65447167 </i>
   </energy>
  </scstep>
  <scstep>
   <time name="dav">    0.71    0.71</time>
   <time name="total">    0.94    0.96</time>
   <energy>
    <i name="e_fr_energy">    -40.65776961 </i>
    <i name="e_wo_entrp">    -40.65341088 </i>
    <i name="e_0_energy">    -40.65559025 </i>
   </energy>
  </scstep>
  <scstep>
   <time name="dav">    0.71    0.71</time>
   <time name="total">    0.94    0.96</time>
   <energy>
    <i name="e_fr_energy">    -40.65956608 </i>
    <i name="e_wo_entrp">    -40.65628590 </i>
    <i name="e_0_energy">    -40.65792599 </i>
   </energy>
  </scstep>
  <scstep>
   <time name="dav">    0.70    0.70</time>
   <time name="total">    0.93    0.94</time>
   <energy>
    <i name="e_fr_energy">    -40.66001351 </i>
    <i name="e_wo_entrp">    -40.65729207 </i>
    <i name="e_0_energy">    -40.65865279 </i>
   </energy>
  </scstep>
  <scstep>
   <time name="dav">    0.66    0.66</time>
   <time name="total">    0.89    0.91</time>
   <energy>
    <i name="e_fr_energy">    -40.66075323 </i>
    <i name="e_wo_entrp">    -40.65847941 </i>
    <i name="e_0_energy">    -40.65961632 </i>
   </energy>
  </scstep>
  <scstep>
   <time name="dav">    0.62    0.62</time>
   <time name="total">    0.85    0.87</time>
   <energy>
    <i name="e_fr_energy">    -40.66085053 </i>
    <i name="e_wo_entrp">    -40.65868346 </i>
    <i name="e_0_energy">    -40.65976700 </i>
   </energy>
  </scstep>
  <scstep>
   <time name="dav">    0.67    0.67</time>
   <time name="total">    0.91    0.92</time>
   <energy>
    <i name="e_fr_energy">    -40.65902729 </i>
    <i name="e_wo_entrp">    -40.65632207 </i>
    <i name="e_0_energy">    -40.65767468 </i>
   </energy>
  </scstep>
  <scstep>
   <time name="dav">    0.65    0.65</time>
   <time name="total">    0.89    0.90</time>
   <energy>
    <i name="e_fr_energy">    -40.65880836 </i>
    <i name="e_wo_entrp">    -40.65578759 </i>
    <i name="e_0_energy">    -40.65729797 </i>
   </energy>
  </scstep>
  <scstep>
   <time name="dav">    0.66    0.66</time>
   <time name="total">    0.89    0.91</time>
   <energy>
    <i name="e_fr_energy">    -40.65978080 </i>
    <i name="e_wo_entrp">    -40.65707881 </i>
    <i name="e_0_energy">    -40.65842981 </i>
   </energy>
  </scstep>
  <scstep>
   <time name="dav">    0.58    0.58</time>
   <time name="total">    0.81    0.82</time>
   <energy>
    <i name="e_fr_energy">    -40.65985799 </i>
    <i name="e_wo_entrp">    -40.65727134 </i>
    <i name="e_0_energy">    -40.65856466 </i>
   </energy>
  </scstep>
  <scstep>
   <time name="dav">    0.66    0.66</time>
   <time name="total">    0.89    0.90</time>
   <energy>
    <i name="e_fr_energy">    -40.66051380 </i>
    <i name="e_wo_entrp">    -40.65819979 </i>
    <i name="e_0_energy">    -40.65935679 </i>
   </energy>
  </scstep>
  <scstep>
   <time name="dav">    0.64    0.64</time>
   <time name="total">    0.87    0.89</time>
   <energy>
    <i name="e_fr_energy">    -40.66071562 </i>
    <i name="e_wo_entrp">    -40.65851375 </i>
    <i name="e_0_energy">    -40.65961469 </i>
   </energy>
  </scstep>
  <scstep>
   <time name="dav">    0.64    0.64</time>
   <time name="total">    0.87    0.89</time>
   <energy>
    <i name="e_fr_energy">    -40.65997871 </i>
    <i name="e_wo_entrp">    -40.65760576 </i>
    <i name="e_0_energy">    -40.65879224 </i>
   </energy>
  </scstep>
  <scstep>
   <time name="dav">    0.60    0.60</time>
   <time name="total">    0.83    0.85</time>
   <energy>
    <i name="e_fr_energy">    -40.65963502 </i>
    <i name="e_wo_entrp">    -40.65708830 </i>
    <i name="e_0_energy">    -40.65836166 </i>
   </energy>
  </scstep>
  <scstep>
   <time name="dav">    0.64    0.64</time>
   <time name="total">    0.89    1.07</time>
   <energy>
    <i name="e_fr_energy">    -40.65908672 </i>
    <i name="e_wo_entrp">    -40.65625785 </i>
    <i name="e_0_energy">    -40.65767229 </i>
   </energy>
  </scstep>
  <scstep>
   <time name="dav">    0.52    0.52</time>
   <time name="total">    0.75    0.77</time>
   <energy>
    <i name="e_fr_energy">    -40.65893380 </i>
    <i name="e_wo_entrp">    -40.65592668 </i>
    <i name="e_0_energy">    -40.65743024 </i>
   </energy>
  </scstep>
  <scstep>
   <time name="dav">    0.48    0.48</time>
   <time name="total">    0.72    0.73</time>
   <energy>
    <i name="e_fr_energy">    -40.65886789 </i>
    <i name="e_wo_entrp">    -40.65576299 </i>
    <i name="e_0_energy">    -40.65731544 </i>
   </energy>
  </scstep>
  <scstep>
   <time name="dav">    0.68    0.68</time>
   <time name="total">    0.91    0.93</time>
   <energy>
    <i name="e_fr_energy">    -40.65672673 </i>
    <i name="e_wo_entrp">    -40.65268187 </i>
    <i name="e_0_energy">    -40.65470430 </i>
   </energy>
  </scstep>
  <scstep>
   <time name="dav">    0.68    0.68</time>
   <time name="total">    0.92    0.93</time>
   <energy>
    <i name="e_fr_energy">    -40.65294164 </i>
    <i name="e_wo_entrp">    -40.64923280 </i>
    <i name="e_0_energy">    -40.65108722 </i>
   </energy>
  </scstep>
  <scstep>
   <time name="dav">    0.72    0.72</time>
   <time name="total">    0.95    0.97</time>
   <energy>
    <i name="e_fr_energy">    -40.65354120 </i>
    <i name="e_wo_entrp">    -40.65006517 </i>
    <i name="e_0_energy">    -40.65180318 </i>
   </energy>
  </scstep>
  <scstep>
   <time name="dav">    0.71    0.71</time>
   <time name="total">    0.94    0.95</time>
   <energy>
    <i name="e_fr_energy">    -40.65344519 </i>
    <i name="e_wo_entrp">    -40.64963751 </i>
    <i name="e_0_energy">    -40.65154135 </i>
   </energy>
  </scstep>
  <scstep>
   <time name="dav">    0.66    0.66</time>
   <time name="total">    0.89    0.91</time>
   <energy>
    <i name="e_fr_energy">    -40.65206626 </i>
    <i name="e_wo_entrp">    -40.64846879 </i>
    <i name="e_0_energy">    -40.65026752 </i>
   </energy>
  </scstep>
  <scstep>
   <time name="dav">    0.63    0.63</time>
   <time name="total">    0.87    0.89</time>
   <energy>
    <i name="e_fr_energy">    -40.65362768 </i>
    <i name="e_wo_entrp">    -40.64988762 </i>
    <i name="e_0_energy">    -40.65175765 </i>
   </energy>
  </scstep>
  <scstep>
   <time name="dav">    0.68    0.68</time>
   <time name="total">    0.92    0.93</time>
   <energy>
    <i name="e_fr_energy">    -40.65436164 </i>
    <i name="e_wo_entrp">    -40.65053428 </i>
    <i name="e_0_energy">    -40.65244796 </i>
   </energy>
  </scstep>
  <scstep>
   <time name="dav">    0.68    0.68</time>
   <time name="total">    0.92    0.94</time>
   <energy>
    <i name="e_fr_energy">    -40.65540183 </i>
    <i name="e_wo_entrp">    -40.65201773 </i>
    <i name="e_0_energy">    -40.65370978 </i>
   </energy>
  </scstep>
  <scstep>
   <time name="dav">    0.73    0.73</time>
   <time name="total">    0.97    0.98</time>
   <energy>
    <i name="e_fr_energy">    -40.65618009 </i>
    <i name="e_wo_entrp">    -40.65285614 </i>
    <i name="e_0_energy">    -40.65451811 </i>
   </energy>
  </scstep>
  <scstep>
   <time name="dav">    0.62    0.62</time>
   <time name="total">    0.86    0.88</time>
   <energy>
    <i name="e_fr_energy">    -40.65613737 </i>
    <i name="e_wo_entrp">    -40.65278754 </i>
    <i name="e_0_energy">    -40.65446245 </i>
   </energy>
  </scstep>
  <scstep>
   <time name="dav">    0.69    0.69</time>
   <time name="total">    0.93    0.95</time>
   <energy>
    <i name="e_fr_energy">    -40.65556760 </i>
    <i name="e_wo_entrp">    -40.65232063 </i>
    <i name="e_0_energy">    -40.65394412 </i>
   </energy>
  </scstep>
  <scstep>
   <time name="dav">    0.69    0.69</time>
   <time name="total">    0.93    0.94</time>
   <energy>
    <i name="e_fr_energy">    -40.65439765 </i>
    <i name="e_wo_entrp">    -40.65090034 </i>
    <i name="e_0_energy">    -40.65264899 </i>
   </energy>
  </scstep>
  <scstep>
   <time name="dav">    0.68    0.68</time>
   <time name="total">    0.92    0.94</time>
   <energy>
    <i name="e_fr_energy">    -40.65331717 </i>
    <i name="e_wo_entrp">    -40.64948961 </i>
    <i name="e_0_energy">    -40.65140339 </i>
   </energy>
  </scstep>
  <scstep>
   <time name="dav">    0.71    0.71</time>
   <time name="total">    0.94    0.96</time>
   <energy>
    <i name="e_fr_energy">    -40.65324377 </i>
    <i name="e_wo_entrp">    -40.64939065 </i>
    <i name="e_0_energy">    -40.65131721 </i>
   </energy>
  </scstep>
  <scstep>
   <time name="dav">    0.67    0.67</time>
   <time name="total">    0.91    0.92</time>
   <energy>
    <i name="e_fr_energy">    -40.65315979 </i>
    <i name="e_wo_entrp">    -40.64939725 </i>
    <i name="e_0_energy">    -40.65127852 </i>
   </energy>
  </scstep>
  <scstep>
   <time name="dav">    0.66    0.66</time>
   <time name="total">    0.90    0.91</time>
   <energy>
    <i name="e_fr_energy">    -40.65409585 </i>
    <i name="e_wo_entrp">    -40.65023961 </i>
    <i name="e_0_energy">    -40.65216773 </i>
   </energy>
  </scstep>
  <scstep>
   <time name="dav">    0.66    0.66</time>
   <time name="total">    0.89    0.91</time>
   <energy>
    <i name="e_fr_energy">    -40.65468235 </i>
    <i name="e_wo_entrp">    -40.65099129 </i>
    <i name="e_0_energy">    -40.65283682 </i>
   </energy>
  </scstep>
  <scstep>
   <time name="dav">    0.65    0.65</time>
   <time name="total">    0.89    0.90</time>
   <energy>
    <i name="e_fr_energy">    -40.65453998 </i>
    <i name="e_wo_entrp">    -40.65088462 </i>
    <i name="e_0_energy">    -40.65271230 </i>
   </energy>
  </scstep>
  <scstep>
   <time name="dav">    0.68    0.68</time>
   <time name="total">    0.92    0.94</time>
   <energy>
    <i name="e_fr_energy">    -40.65404116 </i>
    <i name="e_wo_entrp">    -40.65028002 </i>
    <i name="e_0_energy">    -40.65216059 </i>
   </energy>
  </scstep>
  <scstep>
   <time name="dav">    0.56    0.56</time>
   <time name="total">    0.80    0.82</time>
   <energy>
    <i name="e_fr_energy">    -40.65388995 </i>
    <i name="e_wo_entrp">    -40.65007148 </i>
    <i name="e_0_energy">    -40.65198072 </i>
   </energy>
  </scstep>
  <scstep>
   <time name="dav">    0.51    0.51</time>
   <time name="total">    0.76    0.77</time>
   <energy>
    <i name="e_fr_energy">    -40.65380559 </i>
    <i name="e_wo_entrp">    -40.64995917 </i>
    <i name="e_0_energy">    -40.65188238 </i>
   </energy>
  </scstep>
  <scstep>
   <time name="dav">    0.45    0.45</time>
   <time name="total">    0.69    0.71</time>
   <energy>
    <i name="e_fr_energy">    -40.65381212 </i>
    <i name="e_wo_entrp">    -40.64995730 </i>
    <i name="e_0_energy">    -40.65188471 </i>
   </energy>
  </scstep>
  <scstep>
   <time name="dav">    0.46    0.46</time>
   <time name="total">    0.70    0.72</time>
   <energy>
    <i name="e_fr_energy">    -40.65391837 </i>
    <i name="e_wo_entrp">    -40.65006829 </i>
    <i name="e_0_energy">    -40.65199333 </i>
   </energy>
  </scstep>
  <scstep>
   <time name="dav">    0.35    0.35</time>
   <time name="total">    0.60    0.61</time>
   <energy>
    <i name="e_fr_energy">    -40.65392600 </i>
    <i name="e_wo_entrp">    -40.65007829 </i>
    <i name="e_0_energy">    -40.65200215 </i>
   </energy>
  </scstep>
  <scstep>
   <time name="dav">    0.33    0.33</time>
   <time name="total">    0.57    0.59</time>
   <energy>
    <i name="e_fr_energy">    -40.65392973 </i>
    <i name="e_wo_entrp">    -40.65008357 </i>
    <i name="e_0_energy">    -40.65200665 </i>
   </energy>
  </scstep>
  <scstep>
   <time name="dav">    0.33    0.33</time>
   <time name="total">    0.57    0.58</time>
   <energy>
    <i name="e_fr_energy">    -40.65393283 </i>
    <i name="e_wo_entrp">    -40.65008841 </i>
    <i name="e_0_energy">    -40.65201062 </i>
   </energy>
  </scstep>
  <scstep>
   <time name="dav">    0.49    0.49</time>
   <time name="total">    0.74    0.75</time>
   <energy>
    <i name="e_fr_energy">    -40.65417317 </i>
    <i name="e_wo_entrp">    -40.65036403 </i>
    <i name="e_0_energy">    -40.65226860 </i>
   </energy>
  </scstep>
  <scstep>
   <time name="dav">    0.48    0.48</time>
   <time name="total">    0.72    0.73</time>
   <energy>
    <i name="e_fr_energy">    -40.65427154 </i>
    <i name="e_wo_entrp">    -40.65050027 </i>
    <i name="e_0_energy">    -40.65238590 </i>
   </energy>
  </scstep>
  <scstep>
   <time name="dav">    0.48    0.48</time>
   <time name="total">    0.72    0.73</time>
   <energy>
    <i name="e_fr_energy">    -40.65425185 </i>
    <i name="e_wo_entrp">    -40.65049361 </i>
    <i name="e_0_energy">    -40.65237273 </i>
   </energy>
  </scstep>
  <scstep>
   <time name="dav">    0.36    0.36</time>
   <time name="total">    0.60    0.61</time>
   <energy>
    <i name="e_fr_energy">    -40.65425954 </i>
    <i name="e_wo_entrp">    -40.65050968 </i>
    <i name="e_0_energy">    -40.65238461 </i>
   </energy>
  </scstep>
  <scstep>
   <time name="dav">    0.64    0.64</time>
   <time name="total">    0.88    0.89</time>
   <energy>
    <i name="e_fr_energy">    -40.65474985 </i>
    <i name="e_wo_entrp">    -40.65114306 </i>
    <i name="e_0_energy">    -40.65294646 </i>
   </energy>
  </scstep>
  <scstep>
   <time name="dav">    0.53    0.53</time>
   <time name="total">    0.78    0.79</time>
   <energy>
    <i name="e_fr_energy">    -40.65473514 </i>
    <i name="e_wo_entrp">    -40.65117372 </i>
    <i name="e_0_energy">    -40.65295443 </i>
   </energy>
  </scstep>
  <scstep>
   <time name="dav">    0.45    0.45</time>
   <time name="total">    0.69    0.71</time>
   <energy>
    <i name="e_fr_energy">    -40.65483575 </i>
    <i name="e_wo_entrp">    -40.65132354 </i>
    <i name="e_0_energy">    -40.65307964 </i>
   </energy>
  </scstep>
  <scstep>
   <time name="dav">    0.40    0.40</time>
   <time name="total">    0.64    0.65</time>
   <energy>
    <i name="e_fr_energy">    -40.65486860 </i>
    <i name="e_wo_entrp">    -40.65138262 </i>
    <i name="e_0_energy">    -40.65312561 </i>
   </energy>
  </scstep>
  <scstep>
   <time name="dav">    0.35    0.35</time>
   <time name="total">    0.59    0.61</time>
   <energy>
    <i name="e_fr_energy">    -40.65489054 </i>
    <i name="e_wo_entrp">    -40.65141976 </i>
    <i name="e_0_energy">    -40.65315515 </i>
   </energy>
  </scstep>
  <scstep>
   <time name="dav">    0.61    0.61</time>
   <time name="total">    0.85    0.86</time>
   <energy>
    <i name="e_fr_energy">    -40.65518601 </i>
    <i name="e_wo_entrp">    -40.65180938 </i>
    <i name="e_0_energy">    -40.65349770 </i>
   </energy>
  </scstep>
  <scstep>
   <time name="dav">    0.50    0.50</time>
   <time name="total">    0.74    0.76</time>
   <energy>
    <i name="e_fr_energy">    -40.65503284 </i>
    <i name="e_wo_entrp">    -40.65163480 </i>
    <i name="e_0_energy">    -40.65333382 </i>
   </energy>
  </scstep>
  <scstep>
   <time name="dav">    0.34    0.34</time>
   <time name="total">    0.59    0.60</time>
   <energy>
    <i name="e_fr_energy">    -40.65504427 </i>
    <i name="e_wo_entrp">    -40.65164535 </i>
    <i name="e_0_energy">    -40.65334481 </i>
   </energy>
  </scstep>
  <scstep>
   <time name="dav">    0.33    0.33</time>
   <time name="total">    0.57    0.58</time>
   <energy>
    <i name="e_fr_energy">    -40.65496570 </i>
    <i name="e_wo_entrp">    -40.65154404 </i>
    <i name="e_0_energy">    -40.65325487 </i>
   </energy>
  </scstep>
  <scstep>
   <time name="dav">    0.55    0.55</time>
   <time name="total">    0.79    0.81</time>
   <energy>
    <i name="e_fr_energy">    -40.65476559 </i>
    <i name="e_wo_entrp">    -40.65127817 </i>
    <i name="e_0_energy">    -40.65302188 </i>
   </energy>
  </scstep>
  <scstep>
   <time name="dav">    0.55    0.55</time>
   <time name="total">    0.79    0.80</time>
   <energy>
    <i name="e_fr_energy">    -40.65516169 </i>
    <i name="e_wo_entrp">    -40.65176996 </i>
    <i name="e_0_energy">    -40.65346582 </i>
   </energy>
  </scstep>
  <scstep>
   <time name="dav">    0.40    0.40</time>
   <time name="total">    0.64    0.65</time>
   <energy>
    <i name="e_fr_energy">    -40.65515556 </i>
    <i name="e_wo_entrp">    -40.65178269 </i>
    <i name="e_0_energy">    -40.65346913 </i>
   </energy>
  </scstep>
  <scstep>
   <time name="dav">    0.37    0.37</time>
   <time name="total">    0.61    0.62</time>
   <energy>
    <i name="e_fr_energy">    -40.65512559 </i>
    <i name="e_wo_entrp">    -40.65175078 </i>
    <i name="e_0_energy">    -40.65343819 </i>
   </energy>
  </scstep>
  <scstep>
   <time name="dav">    0.33    0.33</time>
   <time name="total">    0.57    0.59</time>
   <energy>
    <i name="e_fr_energy">    -40.65510999 </i>
    <i name="e_wo_entrp">    -40.65173052 </i>
    <i name="e_0_energy">    -40.65342026 </i>
   </energy>
  </scstep>
  <scstep>
   <time name="dav">    0.32    0.32</time>
   <time name="total">    0.57    0.58</time>
   <energy>
    <i name="e_fr_energy">    -40.65512942 </i>
    <i name="e_wo_entrp">    -40.65175443 </i>
    <i name="e_0_energy">    -40.65344193 </i>
   </energy>
  </scstep>
  <scstep>
   <time name="dav">    0.64    0.64</time>
   <time name="total">    0.88    0.90</time>
   <energy>
    <i name="e_fr_energy">    -40.65638983 </i>
    <i name="e_wo_entrp">    -40.65290585 </i>
    <i name="e_0_energy">    -40.65464784 </i>
   </energy>
  </scstep>
  <scstep>
   <time name="dav">    0.67    0.67</time>
   <time name="total">    0.91    0.92</time>
   <energy>
    <i name="e_fr_energy">    -40.65683712 </i>
    <i name="e_wo_entrp">    -40.65275130 </i>
    <i name="e_0_energy">    -40.65479421 </i>
   </energy>
  </scstep>
  <scstep>
   <time name="dav">    0.66    0.66</time>
   <time name="total">    0.90    0.91</time>
   <energy>
    <i name="e_fr_energy">    -40.65764602 </i>
    <i name="e_wo_entrp">    -40.65322342 </i>
    <i name="e_0_energy">    -40.65543472 </i>
   </energy>
  </scstep>
  <scstep>
   <time name="dav">    0.68    0.68</time>
   <time name="total">    0.93    0.94</time>
   <energy>
    <i name="e_fr_energy">    -40.65986553 </i>
    <i name="e_wo_entrp">    -40.65690638 </i>
    <i name="e_0_energy">    -40.65838595 </i>
   </energy>
  </scstep>
  <scstep>
   <time name="dav">    0.73    0.73</time>
   <time name="total">    0.97    0.98</time>
   <energy>
    <i name="e_fr_energy">    -40.66193324 </i>
    <i name="e_wo_entrp">    -40.65991263 </i>
    <i name="e_0_energy">    -40.66092293 </i>
   </energy>
  </scstep>
  <scstep>
   <time name="dav">    0.72    0.72</time>
   <time name="total">    0.96    0.97</time>
   <energy>
    <i name="e_fr_energy">    -40.66260362 </i>
    <i name="e_wo_entrp">    -40.66066248 </i>
    <i name="e_0_energy">    -40.66163305 </i>
   </energy>
  </scstep>
  <scstep>
   <time name="dav">    0.61    0.61</time>
   <time name="total">    0.85    0.86</time>
   <energy>
    <i name="e_fr_energy">    -40.66227744 </i>
    <i name="e_wo_entrp">    -40.66033134 </i>
    <i name="e_0_energy">    -40.66130439 </i>
   </energy>
  </scstep>
  <scstep>
   <time name="dav">    0.55    0.55</time>
   <time name="total">    0.80    0.81</time>
   <energy>
    <i name="e_fr_energy">    -40.66245207 </i>
    <i name="e_wo_entrp">    -40.66051759 </i>
    <i name="e_0_energy">    -40.66148483 </i>
   </energy>
  </scstep>
  <scstep>
   <time name="dav">    0.38    0.38</time>
   <time name="total">    0.63    0.64</time>
   <energy>
    <i name="e_fr_energy">    -40.66256110 </i>
    <i name="e_wo_entrp">    -40.66063621 </i>
    <i name="e_0_energy">    -40.66159865 </i>
   </energy>
  </scstep>
  <scstep>
   <time name="dav">    0.39    0.39</time>
   <time name="total">    0.49    0.51</time>
   <energy>
    <i name="alphaZ">    299.32682072 </i>
    <i name="ewald">  -4377.18623461 </i>
    <i name="hartreedc">  -1847.63056163 </i>
    <i name="XCdc">    271.91455558 </i>
    <i name="pawpsdc">   7823.13372676 </i>
    <i name="pawaedc">  -8005.89896299 </i>
    <i name="eentropy">     -0.00191716 </i>
    <i name="bandstr">   -401.82371990 </i>
    <i name="atom">   6197.50364118 </i>
    <i name="e_fr_energy">    -40.66265205 </i>
    <i name="e_wo_entrp">    -40.66073489 </i>
    <i name="e_0_energy">    -40.66169347 </i>
   </energy>
  </scstep>
  <structure>
   <crystal>
    <varray name="basis" >
     <v>       4.00000000       0.00000000       0.00000000 </v>
     <v>       0.00000000       4.00000000       0.00000000 </v>
     <v>       0.00000000       0.00000000       8.00000000 </v>
    </varray>
    <i name="volume">    128.00000000 </i>
    <varray name="rec_basis" >
     <v>       0.25000000       0.00000000       0.00000000 </v>
     <v>       0.00000000       0.25000000       0.00000000 </v>
     <v>       0.00000000       0.00000000       0.12500000 </v>
    </varray>
   </crystal>
   <varray name="positions" >
    <v>       0.00000000       0.00000000       0.75000000 </v>
    <v>       0.00000000       0.00000000       0.25000000 </v>
    <v>       0.50000000       0.50000000       0.00000000 </v>
    <v>       0.50000000       0.50000000       0.50000000 </v>
    <v>       0.50000000       0.50000000       0.75000000 </v>
    <v>       0.50000000       0.50000000       0.25000000 </v>
    <v>       0.00000000       0.50000000       0.50000000 </v>
    <v>       0.50000000       0.00000000       0.00000000 </v>
   </varray>
  </structure>
  <varray name="forces" >
   <v>       0.00000000       0.00000000       0.00000000 </v>
   <v>       0.00000000       0.00000000       0.00000000 </v>
   <v>       0.00000000       0.00000000       0.00000000 </v>
   <v>       0.00000000       0.00000000       0.00000000 </v>
   <v>       0.00000000       0.00000000       0.00000000 </v>
   <v>       0.00000000       0.00000000       0.00000000 </v>
   <v>       0.00000000       0.00000000       0.00000000 </v>
   <v>       0.00000000       0.00000000       0.00000000 </v>
  </varray>
  <varray name="stress" >
   <v>    -119.68414118       0.00000000       0.00000000 </v>
   <v>       0.00000000    -119.68414118       0.00000000 </v>
   <v>       0.00000000       0.00000000     -73.17675904 </v>
  </varray>
  <energy>
   <i name="e_fr_energy">    -40.66265205 </i>
   <i name="e_wo_entrp">    -40.66169347 </i>
   <i name="e_0_energy">     -0.00191716 </i>
  </energy>
  <time name="totalsc">   84.83   86.52</time>
  <eigenvalues>
   <array>
    <dimension dim="1">band</dimension>
    <dimension dim="2">kpoint</dimension>
    <dimension dim="3">spin</dimension>
    <field>eigene</field>
    <field>occ</field>
    <set>
     <set comment="spin 1">
      <set comment="kpoint 1">
       <r>  -31.3872    1.0000 </r>
       <r>  -31.3736    1.0000 </r>
       <r>  -14.6949    1.0000 </r>
       <r>  -14.5524    1.0000 </r>
       <r>  -13.8541    1.0000 </r>
       <r>  -13.5899    1.0000 </r>
       <r>  -13.4051    1.0000 </r>
       <r>  -13.2712    1.0000 </r>
       <r>  -13.2712    1.0000 </r>
       <r>  -13.2432    1.0000 </r>
       <r>  -13.2432    1.0000 </r>
       <r>  -12.9386    1.0000 </r>
       <r>   -2.6524    1.0000 </r>
       <r>   -1.1789    1.0000 </r>
       <r>   -1.1789    1.0000 </r>
       <r>   -0.7795    1.0000 </r>
       <r>   -0.6364    1.0000 </r>
       <r>   -0.6364    1.0000 </r>
       <r>   -0.6330    1.0000 </r>
       <r>   -0.6330    1.0000 </r>
       <r>   -0.5721    1.0000 </r>
       <r>   -0.5700    1.0000 </r>
       <r>   -0.5557    1.0000 </r>
       <r>   -0.4660    1.0000 </r>
       <r>    0.3772    1.0000 </r>
       <r>    0.4165    1.0000 </r>
       <r>    0.4165    1.0000 </r>
       <r>    0.7273    1.0000 </r>
       <r>    1.4906    1.0000 </r>
       <r>    1.5987    1.0000 </r>
       <r>    1.5987    1.0000 </r>
       <r>    1.6202    1.0000 </r>
       <r>    1.9167    1.0000 </r>
       <r>    1.9167    1.0000 </r>
       <r>    3.8550    0.0000 </r>
       <r>    5.9318    0.0000 </r>
       <r>    7.2416    0.0000 </r>
       <r>    7.5346    0.0000 </r>
       <r>    7.9592    0.0000 </r>
       <r>    8.4544    0.0000 </r>
       <r>    9.1949    0.0000 </r>
       <r>    9.1949    0.0000 </r>
       <r>    9.5998    0.0000 </r>
       <r>    9.6016    0.0000 </r>
      </set>
      <set comment="kpoint 2">
       <r>  -31.3825    1.0000 </r>
       <r>  -31.3692    1.0000 </r>
       <r>  -14.7167    1.0000 </r>
       <r>  -14.5664    1.0000 </r>
       <r>  -14.1121    1.0000 </r>
       <r>  -13.6609    1.0000 </r>
       <r>  -13.3957    1.0000 </r>
       <r>  -13.2594    1.0000 </r>
       <r>  -13.2314    1.0000 </r>
       <r>  -13.1551    1.0000 </r>
       <r>  -13.0035    1.0000 </r>
       <r>  -12.8950    1.0000 </r>
       <r>   -2.6900    1.0000 </r>
       <r>   -1.6572    1.0000 </r>
       <r>   -1.5360    1.0000 </r>
       <r>   -1.2263    1.0000 </r>
       <r>   -0.8856    1.0000 </r>
       <r>   -0.7673    1.0000 </r>
       <r>   -0.6641    1.0000 </r>
       <r>   -0.6393    1.0000 </r>
       <r>   -0.6328    1.0000 </r>
       <r>   -0.5797    1.0000 </r>
       <r>   -0.5429    1.0000 </r>
       <r>   -0.4063    1.0000 </r>
       <r>    0.1482    1.0000 </r>
       <r>    0.5894    1.0000 </r>
       <r>    0.8210    1.0000 </r>
       <r>    0.9184    1.0000 </r>
       <r>    1.1500    1.0000 </r>
       <r>    1.4423    1.0000 </r>
       <r>    1.5184    1.0000 </r>
       <r>    1.7959    1.0000 </r>
       <r>    2.0129    1.0000 </r>
       <r>    2.4674    1.0000 </r>
       <r>    4.6627    0.0000 </r>
       <r>    6.1524    0.0000 </r>
       <r>    7.5584    0.0000 </r>
       <r>    7.9011    0.0000 </r>
       <r>    8.3614    0.0000 </r>
       <r>    8.5603    0.0000 </r>
       <r>    9.1505    0.0000 </r>
       <r>    9.1658    0.0000 </r>
       <r>    9.6601    0.0000 </r>
       <r>    9.9029    0.0000 </r>
      </set>
      <set comment="kpoint 3">
       <r>  -31.3748    1.0000 </r>
       <r>  -31.3621    1.0000 </r>
       <r>  -14.9065    1.0000 </r>
       <r>  -14.3820    1.0000 </r>
       <r>  -14.3736    1.0000 </r>
       <r>  -13.7346    1.0000 </r>
       <r>  -13.3802    1.0000 </r>
       <r>  -13.2400    1.0000 </r>
       <r>  -13.2120    1.0000 </r>
       <r>  -13.1305    1.0000 </r>
       <r>  -12.7616    1.0000 </r>
       <r>  -12.7598    1.0000 </r>
       <r>   -2.9420    1.0000 </r>
       <r>   -2.3945    1.0000 </r>
       <r>   -1.9569    1.0000 </r>
       <r>   -1.3068    1.0000 </r>
       <r>   -1.2008    1.0000 </r>
       <r>   -0.7868    1.0000 </r>
       <r>   -0.7274    1.0000 </r>
       <r>   -0.6802    1.0000 </r>
       <r>   -0.6268    1.0000 </r>
       <r>   -0.6076    1.0000 </r>
       <r>   -0.5342    1.0000 </r>
       <r>   -0.4052    1.0000 </r>
       <r>   -0.1560    1.0000 </r>
       <r>    0.6547    1.0000 </r>
       <r>    0.7777    1.0000 </r>
       <r>    1.0862    1.0000 </r>
       <r>    1.1380    1.0000 </r>
       <r>    1.3897    1.0000 </r>
       <r>    1.5663    1.0000 </r>
       <r>    1.6240    1.0000 </r>
       <r>    2.2017    1.0000 </r>
       <r>    3.2656    0.0000 </r>
       <r>    5.9407    0.0000 </r>
       <r>    6.5496    0.0000 </r>
       <r>    7.4803    0.0000 </r>
       <r>    8.4408    0.0000 </r>
       <r>    8.7258    0.0000 </r>
       <r>    8.9870    0.0000 </r>
       <r>    9.2331    0.0000 </r>
       <r>    9.6828    0.0000 </r>
       <r>    9.7641    0.0000 </r>
       <r>   10.1208    0.0000 </r>
      </set>
      <set comment="kpoint 4">
       <r>  -31.3779    1.0000 </r>
       <r>  -31.3649    1.0000 </r>
       <r>  -14.6811    1.0000 </r>
       <r>  -14.5542    1.0000 </r>
       <r>  -14.1610    1.0000 </r>
       <r>  -13.6685    1.0000 </r>
       <r>  -13.4083    1.0000 </r>
       <r>  -13.3868    1.0000 </r>
       <r>  -13.3117    1.0000 </r>
       <r>  -12.9738    1.0000 </r>
       <r>  -12.9378    1.0000 </r>
       <r>  -12.9192    1.0000 </r>
       <r>   -2.7116    1.0000 </r>
       <r>   -1.6745    1.0000 </r>
       <r>   -1.6353    1.0000 </r>
       <r>   -1.5901    1.0000 </r>
       <r>   -1.4487    1.0000 </r>
       <r>   -1.0042    1.0000 </r>
       <r>   -0.9165    1.0000 </r>
       <r>   -0.7644    1.0000 </r>
       <r>   -0.7286    1.0000 </r>
       <r>   -0.4834    1.0000 </r>
       <r>   -0.4011    1.0000 </r>
       <r>   -0.2958    1.0000 </r>
       <r>    0.2566    1.0000 </r>
       <r>    0.7957    1.0000 </r>
       <r>    0.8635    1.0000 </r>
       <r>    1.0439    1.0000 </r>
       <r>    1.2941    1.0000 </r>
       <r>    1.4546    1.0000 </r>
       <r>    1.4688    1.0000 </r>
       <r>    1.7791    1.0000 </r>
       <r>    2.0790    1.0000 </r>
       <r>    3.0365    0.0000 </r>
       <r>    5.2202    0.0000 </r>
       <r>    6.1719    0.0000 </r>
       <r>    7.5156    0.0000 </r>
       <r>    8.2283    0.0000 </r>
       <r>    8.2653    0.0000 </r>
       <r>    8.3659    0.0000 </r>
       <r>    8.7347    0.0000 </r>
       <r>    9.7911    0.0000 </r>
       <r>   10.0241    0.0000 </r>
       <r>   10.1522    0.0000 </r>
      </set>
      <set comment="kpoint 5">
       <r>  -31.3705    1.0000 </r>
       <r>  -31.3580    1.0000 </r>
       <r>  -14.7709    1.0000 </r>
       <r>  -14.3518    1.0000 </r>
       <r>  -14.2660    1.0000 </r>
       <r>  -13.7340    1.0000 </r>
       <r>  -13.4418    1.0000 </r>
       <r>  -13.3714    1.0000 </r>
       <r>  -13.3029    1.0000 </r>
       <r>  -13.0127    1.0000 </r>
       <r>  -12.8966    1.0000 </r>
       <r>  -12.8618    1.0000 </r>
       <r>   -2.9215    1.0000 </r>
       <r>   -2.4033    1.0000 </r>
       <r>   -1.8586    1.0000 </r>
       <r>   -1.6498    1.0000 </r>
       <r>   -1.4861    1.0000 </r>
       <r>   -1.3047    1.0000 </r>
       <r>   -1.0404    1.0000 </r>
       <r>   -0.7940    1.0000 </r>
       <r>   -0.7788    1.0000 </r>
       <r>   -0.4095    1.0000 </r>
       <r>   -0.3297    1.0000 </r>
       <r>   -0.1159    1.0000 </r>
       <r>    0.1035    1.0000 </r>
       <r>    0.7579    1.0000 </r>
       <r>    0.9712    1.0000 </r>
       <r>    1.1919    1.0000 </r>
       <r>    1.4167    1.0000 </r>
       <r>    1.4237    1.0000 </r>
       <r>    1.5913    1.0000 </r>
       <r>    1.7967    1.0000 </r>
       <r>    2.1793    1.0000 </r>
       <r>    3.7045    0.0000 </r>
       <r>    5.8939    0.0000 </r>
       <r>    6.1099    0.0000 </r>
       <r>    7.2698    0.0000 </r>
       <r>    8.4414    0.0000 </r>
       <r>    8.7771    0.0000 </r>
       <r>    8.8918    0.0000 </r>
       <r>    9.1753    0.0000 </r>
       <r>    9.9836    0.0000 </r>
       <r>   10.2653    0.0000 </r>
       <r>   10.2673    0.0000 </r>
      </set>
      <set comment="kpoint 6">
       <r>  -31.3635    1.0000 </r>
       <r>  -31.3514    1.0000 </r>
       <r>  -14.4727    1.0000 </r>
       <r>  -14.3178    1.0000 </r>
       <r>  -14.0058    1.0000 </r>
       <r>  -13.8591    1.0000 </r>
       <r>  -13.5603    1.0000 </r>
       <r>  -13.4227    1.0000 </r>
       <r>  -13.3558    1.0000 </r>
       <r>  -13.2124    1.0000 </r>
       <r>  -13.0071    1.0000 </r>
       <r>  -12.9961    1.0000 </r>
       <r>   -2.9785    1.0000 </r>
       <r>   -2.5616    1.0000 </r>
       <r>   -2.3252    1.0000 </r>
       <r>   -1.7305    1.0000 </r>
       <r>   -1.6853    1.0000 </r>
       <r>   -1.5122    1.0000 </r>
       <r>   -1.2386    1.0000 </r>
       <r>   -0.8134    1.0000 </r>
       <r>   -0.8082    1.0000 </r>
       <r>   -0.2491    1.0000 </r>
       <r>   -0.1784    1.0000 </r>
       <r>    0.0556    1.0000 </r>
       <r>    0.5344    1.0000 </r>
       <r>    0.7875    1.0000 </r>
       <r>    1.1915    1.0000 </r>
       <r>    1.3709    1.0000 </r>
       <r>    1.4461    1.0000 </r>
       <r>    1.5246    1.0000 </r>
       <r>    1.8234    1.0000 </r>
       <r>    2.0653    1.0000 </r>
       <r>    2.1643    1.0000 </r>
       <r>    4.2682    0.0000 </r>
       <r>    5.2115    0.0000 </r>
       <r>    5.2650    0.0000 </r>
       <r>    7.9018    0.0000 </r>
       <r>    8.7156    0.0000 </r>
       <r>    8.7533    0.0000 </r>
       <r>    9.1948    0.0000 </r>
       <r>    9.4348    0.0000 </r>
       <r>   10.0750    0.0000 </r>
       <r>   10.5188    0.0000 </r>
       <r>   10.8723    0.0000 </r>
      </set>
      <set comment="kpoint 7">
       <r>  -31.3838    1.0000 </r>
       <r>  -31.3770    1.0000 </r>
       <r>  -14.6389    1.0000 </r>
       <r>  -14.5639    1.0000 </r>
       <r>  -13.8679    1.0000 </r>
       <r>  -13.7859    1.0000 </r>
       <r>  -13.2648    1.0000 </r>
       <r>  -13.2648    1.0000 </r>
       <r>  -13.2497    1.0000 </r>
       <r>  -13.2497    1.0000 </r>
       <r>  -13.1835    1.0000 </r>
       <r>  -12.9966    1.0000 </r>
       <r>   -2.3126    1.0000 </r>
       <r>   -1.4630    1.0000 </r>
       <r>   -1.0986    1.0000 </r>
       <r>   -1.0986    1.0000 </r>
       <r>   -0.8837    1.0000 </r>
       <r>   -0.8837    1.0000 </r>
       <r>   -0.5664    1.0000 </r>
       <r>   -0.5593    1.0000 </r>
       <r>   -0.5160    1.0000 </r>
       <r>   -0.4871    1.0000 </r>
       <r>   -0.4709    1.0000 </r>
       <r>   -0.4709    1.0000 </r>
       <r>    0.4340    1.0000 </r>
       <r>    0.4340    1.0000 </r>
       <r>    0.6532    1.0000 </r>
       <r>    0.7478    1.0000 </r>
       <r>    1.4215    1.0000 </r>
       <r>    1.5331    1.0000 </r>
       <r>    1.6112    1.0000 </r>
       <r>    1.6112    1.0000 </r>
       <r>    1.8907    1.0000 </r>
       <r>    1.8907    1.0000 </r>
       <r>    4.5990    0.0000 </r>
       <r>    5.7690    0.0000 </r>
       <r>    7.0632    0.0000 </r>
       <r>    7.0707    0.0000 </r>
       <r>    7.7524    0.0000 </r>
       <r>    8.3746    0.0000 </r>
       <r>    8.9705    0.0000 </r>
       <r>    8.9705    0.0000 </r>
       <r>    9.6874    0.0000 </r>
       <r>    9.7909    0.0000 </r>
      </set>
      <set comment="kpoint 8">
       <r>  -31.3792    1.0000 </r>
       <r>  -31.3726    1.0000 </r>
       <r>  -14.6930    1.0000 </r>
       <r>  -14.5460    1.0000 </r>
       <r>  -14.0988    1.0000 </r>
       <r>  -13.8526    1.0000 </r>
       <r>  -13.2530    1.0000 </r>
       <r>  -13.2378    1.0000 </r>
       <r>  -13.2368    1.0000 </r>
       <r>  -13.1389    1.0000 </r>
       <r>  -13.0046    1.0000 </r>
       <r>  -12.9369    1.0000 </r>
       <r>   -2.3441    1.0000 </r>
       <r>   -1.6736    1.0000 </r>
       <r>   -1.5497    1.0000 </r>
       <r>   -1.3349    1.0000 </r>
       <r>   -1.1433    1.0000 </r>
       <r>   -0.9219    1.0000 </r>
       <r>   -0.8826    1.0000 </r>
       <r>   -0.8657    1.0000 </r>
       <r>   -0.5846    1.0000 </r>
       <r>   -0.4515    1.0000 </r>
       <r>   -0.4498    1.0000 </r>
       <r>   -0.4046    1.0000 </r>
       <r>    0.2048    1.0000 </r>
       <r>    0.8340    1.0000 </r>
       <r>    0.8350    1.0000 </r>
       <r>    0.9592    1.0000 </r>
       <r>    1.1859    1.0000 </r>
       <r>    1.4511    1.0000 </r>
       <r>    1.5113    1.0000 </r>
       <r>    1.7846    1.0000 </r>
       <r>    1.8804    1.0000 </r>
       <r>    2.6074    0.8576 </r>
       <r>    5.1048    0.0000 </r>
       <r>    5.9232    0.0000 </r>
       <r>    7.6219    0.0000 </r>
       <r>    7.6865    0.0000 </r>
       <r>    7.9113    0.0000 </r>
       <r>    8.6959    0.0000 </r>
       <r>    8.9411    0.0000 </r>
       <r>    9.1620    0.0000 </r>
       <r>    9.6343    0.0000 </r>
       <r>    9.7522    0.0000 </r>
      </set>
      <set comment="kpoint 9">
       <r>  -31.3716    1.0000 </r>
       <r>  -31.3653    1.0000 </r>
       <r>  -14.8747    1.0000 </r>
       <r>  -14.4738    1.0000 </r>
       <r>  -14.3009    1.0000 </r>
       <r>  -13.7632    1.0000 </r>
       <r>  -13.4127    1.0000 </r>
       <r>  -13.2338    1.0000 </r>
       <r>  -13.2183    1.0000 </r>
       <r>  -13.0712    1.0000 </r>
       <r>  -12.7906    1.0000 </r>
       <r>  -12.7445    1.0000 </r>
       <r>   -2.7700    1.0000 </r>
       <r>   -2.2277    1.0000 </r>
       <r>   -1.9158    1.0000 </r>
       <r>   -1.4206    1.0000 </r>
       <r>   -1.2218    1.0000 </r>
       <r>   -1.1985    1.0000 </r>
       <r>   -1.0482    1.0000 </r>
       <r>   -0.9883    1.0000 </r>
       <r>   -0.6096    1.0000 </r>
       <r>   -0.4309    1.0000 </r>
       <r>   -0.4210    1.0000 </r>
       <r>   -0.3014    1.0000 </r>
       <r>   -0.0914    1.0000 </r>
       <r>    0.8666    1.0000 </r>
       <r>    0.9627    1.0000 </r>
       <r>    1.0654    1.0000 </r>
       <r>    1.1086    1.0000 </r>
       <r>    1.4380    1.0000 </r>
       <r>    1.5623    1.0000 </r>
       <r>    1.6387    1.0000 </r>
       <r>    2.0898    1.0000 </r>
       <r>    3.4027    0.0000 </r>
       <r>    6.0561    0.0000 </r>
       <r>    6.4822    0.0000 </r>
       <r>    7.5786    0.0000 </r>
       <r>    8.4473    0.0000 </r>
       <r>    8.5921    0.0000 </r>
       <r>    8.7767    0.0000 </r>
       <r>    8.9196    0.0000 </r>
       <r>    9.3620    0.0000 </r>
       <r>    9.9620    0.0000 </r>
       <r>   10.3422    0.0000 </r>
      </set>
      <set comment="kpoint 10">
       <r>  -31.3747    1.0000 </r>
       <r>  -31.3682    1.0000 </r>
       <r>  -14.6400    1.0000 </r>
       <r>  -14.5716    1.0000 </r>
       <r>  -14.0994    1.0000 </r>
       <r>  -13.8810    1.0000 </r>
       <r>  -13.3881    1.0000 </r>
       <r>  -13.3503    1.0000 </r>
       <r>  -13.1849    1.0000 </r>
       <r>  -13.0074    1.0000 </r>
       <r>  -12.9568    1.0000 </r>
       <r>  -12.9259    1.0000 </r>
       <r>   -2.3563    1.0000 </r>
       <r>   -1.6949    1.0000 </r>
       <r>   -1.6696    1.0000 </r>
       <r>   -1.5439    1.0000 </r>
       <r>   -1.4534    1.0000 </r>
       <r>   -1.2201    1.0000 </r>
       <r>   -0.9738    1.0000 </r>
       <r>   -0.9244    1.0000 </r>
       <r>   -0.8608    1.0000 </r>
       <r>   -0.8502    1.0000 </r>
       <r>   -0.3006    1.0000 </r>
       <r>   -0.2842    1.0000 </r>
       <r>    0.4807    1.0000 </r>
       <r>    0.7253    1.0000 </r>
       <r>    1.0952    1.0000 </r>
       <r>    1.1145    1.0000 </r>
       <r>    1.1804    1.0000 </r>
       <r>    1.3818    1.0000 </r>
       <r>    1.6060    1.0000 </r>
       <r>    1.8386    1.0000 </r>
       <r>    2.2926    1.0000 </r>
       <r>    2.8862    0.0000 </r>
       <r>    5.4520    0.0000 </r>
       <r>    5.9198    0.0000 </r>
       <r>    7.8259    0.0000 </r>
       <r>    8.0249    0.0000 </r>
       <r>    8.1209    0.0000 </r>
       <r>    8.8022    0.0000 </r>
       <r>    8.8077    0.0000 </r>
       <r>    9.2929    0.0000 </r>
       <r>    9.6002    0.0000 </r>
       <r>    9.8274    0.0000 </r>
      </set>
      <set comment="kpoint 11">
       <r>  -31.3674    1.0000 </r>
       <r>  -31.3611    1.0000 </r>
       <r>  -14.7385    1.0000 </r>
       <r>  -14.4097    1.0000 </r>
       <r>  -14.2267    1.0000 </r>
       <r>  -13.7702    1.0000 </r>
       <r>  -13.4386    1.0000 </r>
       <r>  -13.3724    1.0000 </r>
       <r>  -13.2865    1.0000 </r>
       <r>  -13.0019    1.0000 </r>
       <r>  -12.9273    1.0000 </r>
       <r>  -12.8421    1.0000 </r>
       <r>   -2.7351    1.0000 </r>
       <r>   -2.2326    1.0000 </r>
       <r>   -1.8200    1.0000 </r>
       <r>   -1.6646    1.0000 </r>
       <r>   -1.4887    1.0000 </r>
       <r>   -1.2833    1.0000 </r>
       <r>   -1.2507    1.0000 </r>
       <r>   -1.0426    1.0000 </r>
       <r>   -0.9610    1.0000 </r>
       <r>   -0.8560    1.0000 </r>
       <r>   -0.2703    1.0000 </r>
       <r>   -0.0216    1.0000 </r>
       <r>    0.3229    1.0000 </r>
       <r>    0.9494    1.0000 </r>
       <r>    1.0721    1.0000 </r>
       <r>    1.2037    1.0000 </r>
       <r>    1.2276    1.0000 </r>
       <r>    1.4652    1.0000 </r>
       <r>    1.5914    1.0000 </r>
       <r>    1.9972    1.0000 </r>
       <r>    2.3629    1.0000 </r>
       <r>    3.5308    0.0000 </r>
       <r>    5.8430    0.0000 </r>
       <r>    6.0920    0.0000 </r>
       <r>    7.6186    0.0000 </r>
       <r>    8.5017    0.0000 </r>
       <r>    8.7632    0.0000 </r>
       <r>    8.9405    0.0000 </r>
       <r>    9.3769    0.0000 </r>
       <r>    9.4694    0.0000 </r>
       <r>    9.7061    0.0000 </r>
       <r>    9.9412    0.0000 </r>
      </set>
      <set comment="kpoint 12">
       <r>  -31.3605    1.0000 </r>
       <r>  -31.3544    1.0000 </r>
       <r>  -14.4311    1.0000 </r>
       <r>  -14.3519    1.0000 </r>
       <r>  -13.9791    1.0000 </r>
       <r>  -13.9042    1.0000 </r>
       <r>  -13.5126    1.0000 </r>
       <r>  -13.4145    1.0000 </r>
       <r>  -13.3722    1.0000 </r>
       <r>  -13.2734    1.0000 </r>
       <r>  -12.9900    1.0000 </r>
       <r>  -12.9864    1.0000 </r>
       <r>   -2.7435    1.0000 </r>
       <r>   -2.5810    1.0000 </r>
       <r>   -2.1649    1.0000 </r>
       <r>   -1.6726    1.0000 </r>
       <r>   -1.6681    1.0000 </r>
       <r>   -1.4298    1.0000 </r>
       <r>   -1.2930    1.0000 </r>
       <r>   -1.2614    1.0000 </r>
       <r>   -0.9331    1.0000 </r>
       <r>   -0.9261    1.0000 </r>
       <r>    0.0360    1.0000 </r>
       <r>    0.0598    1.0000 </r>
       <r>    0.8034    1.0000 </r>
       <r>    0.9752    1.0000 </r>
       <r>    1.2940    1.0000 </r>
       <r>    1.3699    1.0000 </r>
       <r>    1.4047    1.0000 </r>
       <r>    1.4392    1.0000 </r>
       <r>    1.8430    1.0000 </r>
       <r>    1.9077    1.0000 </r>
       <r>    2.7428    0.0029 </r>
       <r>    3.8660    0.0000 </r>
       <r>    5.3625    0.0000 </r>
       <r>    5.4126    0.0000 </r>
       <r>    8.1243    0.0000 </r>
       <r>    8.6388    0.0000 </r>
       <r>    8.7911    0.0000 </r>
       <r>    8.9675    0.0000 </r>
       <r>    8.9879    0.0000 </r>
       <r>    9.4838    0.0000 </r>
       <r>   10.6217    0.0000 </r>
       <r>   10.6572    0.0000 </r>
      </set>
     </set>
     <set comment="spin 2">
      <set comment="kpoint 1">
       <r>  -31.3875    1.0000 </r>
       <r>  -31.3739    1.0000 </r>
       <r>  -14.6778    1.0000 </r>
       <r>  -14.5323    1.0000 </r>
       <r>  -13.8353    1.0000 </r>
       <r>  -13.5561    1.0000 </r>
       <r>  -13.4055    1.0000 </r>
       <r>  -13.2714    1.0000 </r>
       <r>  -13.2714    1.0000 </r>
       <r>  -13.2434    1.0000 </r>
       <r>  -13.2434    1.0000 </r>
       <r>  -12.9280    1.0000 </r>
       <r>   -2.4864    1.0000 </r>
       <r>   -1.1003    1.0000 </r>
       <r>   -1.1003    1.0000 </r>
       <r>   -0.7554    1.0000 </r>
       <r>   -0.6039    1.0000 </r>
       <r>   -0.6039    1.0000 </r>
       <r>   -0.5468    1.0000 </r>
       <r>   -0.5468    1.0000 </r>
       <r>   -0.5170    1.0000 </r>
       <r>   -0.4981    1.0000 </r>
       <r>   -0.4835    1.0000 </r>
       <r>   -0.3928    1.0000 </r>
       <r>    0.4283    1.0000 </r>
       <r>    0.4283    1.0000 </r>
       <r>    0.7391    1.0000 </r>
       <r>    0.8470    1.0000 </r>
       <r>    1.5083    1.0000 </r>
       <r>    1.6137    1.0000 </r>
       <r>    1.6137    1.0000 </r>
       <r>    1.9273    1.0000 </r>
       <r>    1.9498    1.0000 </r>
       <r>    1.9498    1.0000 </r>
       <r>    3.8718    0.0000 </r>
       <r>    5.9604    0.0000 </r>
       <r>    7.2427    0.0000 </r>
       <r>    7.5389    0.0000 </r>
       <r>    7.9648    0.0000 </r>
       <r>    8.4695    0.0000 </r>
       <r>    9.1997    0.0000 </r>
       <r>    9.1997    0.0000 </r>
       <r>    9.6020    0.0000 </r>
       <r>    9.6078    0.0000 </r>
      </set>
      <set comment="kpoint 2">
       <r>  -31.3827    1.0000 </r>
       <r>  -31.3695    1.0000 </r>
       <r>  -14.6995    1.0000 </r>
       <r>  -14.5497    1.0000 </r>
       <r>  -14.0985    1.0000 </r>
       <r>  -13.6303    1.0000 </r>
       <r>  -13.3960    1.0000 </r>
       <r>  -13.2595    1.0000 </r>
       <r>  -13.2316    1.0000 </r>
       <r>  -13.1490    1.0000 </r>
       <r>  -12.9984    1.0000 </r>
       <r>  -12.8862    1.0000 </r>
       <r>   -2.5512    1.0000 </r>
       <r>   -1.4975    1.0000 </r>
       <r>   -1.4700    1.0000 </r>
       <r>   -1.1503    1.0000 </r>
       <r>   -0.8272    1.0000 </r>
       <r>   -0.7247    1.0000 </r>
       <r>   -0.6353    1.0000 </r>
       <r>   -0.5750    1.0000 </r>
       <r>   -0.5425    1.0000 </r>
       <r>   -0.5085    1.0000 </r>
       <r>   -0.4899    1.0000 </r>
       <r>   -0.3413    1.0000 </r>
       <r>    0.1730    1.0000 </r>
       <r>    0.8450    1.0000 </r>
       <r>    0.9378    1.0000 </r>
       <r>    0.9516    1.0000 </r>
       <r>    1.2442    1.0000 </r>
       <r>    1.4712    1.0000 </r>
       <r>    1.5364    1.0000 </r>
       <r>    1.8308    1.0000 </r>
       <r>    2.0332    1.0000 </r>
       <r>    2.7137    0.0263 </r>
       <r>    4.6854    0.0000 </r>
       <r>    6.1776    0.0000 </r>
       <r>    7.5619    0.0000 </r>
       <r>    7.9050    0.0000 </r>
       <r>    8.3674    0.0000 </r>
       <r>    8.5701    0.0000 </r>
       <r>    9.1552    0.0000 </r>
       <r>    9.1718    0.0000 </r>
       <r>    9.6616    0.0000 </r>
       <r>    9.9052    0.0000 </r>
      </set>
      <set comment="kpoint 3">
       <r>  -31.3751    1.0000 </r>
       <r>  -31.3623    1.0000 </r>
       <r>  -14.8913    1.0000 </r>
       <r>  -14.3706    1.0000 </r>
       <r>  -14.3592    1.0000 </r>
       <r>  -13.7038    1.0000 </r>
       <r>  -13.3805    1.0000 </r>
       <r>  -13.2402    1.0000 </r>
       <r>  -13.2122    1.0000 </r>
       <r>  -13.1224    1.0000 </r>
       <r>  -12.7542    1.0000 </r>
       <r>  -12.7525    1.0000 </r>
       <r>   -2.8704    1.0000 </r>
       <r>   -2.1354    1.0000 </r>
       <r>   -1.9003    1.0000 </r>
       <r>   -1.2350    1.0000 </r>
       <r>   -1.1480    1.0000 </r>
       <r>   -0.7204    1.0000 </r>
       <r>   -0.7009    1.0000 </r>
       <r>   -0.6463    1.0000 </r>
       <r>   -0.5364    1.0000 </r>
       <r>   -0.5354    1.0000 </r>
       <r>   -0.5096    1.0000 </r>
       <r>   -0.3528    1.0000 </r>
       <r>   -0.0848    1.0000 </r>
       <r>    0.7312    1.0000 </r>
       <r>    1.1253    1.0000 </r>
       <r>    1.1467    1.0000 </r>
       <r>    1.1567    1.0000 </r>
       <r>    1.4097    1.0000 </r>
       <r>    1.5979    1.0000 </r>
       <r>    1.6619    1.0000 </r>
       <r>    2.2207    1.0000 </r>
       <r>    3.5022    0.0000 </r>
       <r>    5.9593    0.0000 </r>
       <r>    6.5701    0.0000 </r>
       <r>    7.4861    0.0000 </r>
       <r>    8.4660    0.0000 </r>
       <r>    8.7300    0.0000 </r>
       <r>    8.9928    0.0000 </r>
       <r>    9.2375    0.0000 </r>
       <r>    9.6868    0.0000 </r>
       <r>    9.7643    0.0000 </r>
       <r>   10.1252    0.0000 </r>
      </set>
      <set comment="kpoint 4">
       <r>  -31.3782    1.0000 </r>
       <r>  -31.3652    1.0000 </r>
       <r>  -14.6647    1.0000 </r>
       <r>  -14.5378    1.0000 </r>
       <r>  -14.1478    1.0000 </r>
       <r>  -13.6382    1.0000 </r>
       <r>  -13.4078    1.0000 </r>
       <r>  -13.3871    1.0000 </r>
       <r>  -13.3118    1.0000 </r>
       <r>  -12.9690    1.0000 </r>
       <r>  -12.9290    1.0000 </r>
       <r>  -12.9137    1.0000 </r>
       <r>   -2.5938    1.0000 </r>
       <r>   -1.5355    1.0000 </r>
       <r>   -1.5250    1.0000 </r>
       <r>   -1.4610    1.0000 </r>
       <r>   -1.3799    1.0000 </r>
       <r>   -0.9533    1.0000 </r>
       <r>   -0.8590    1.0000 </r>
       <r>   -0.7086    1.0000 </r>
       <r>   -0.6497    1.0000 </r>
       <r>   -0.4245    1.0000 </r>
       <r>   -0.3323    1.0000 </r>
       <r>   -0.2438    1.0000 </r>
       <r>    0.2888    1.0000 </r>
       <r>    0.8217    1.0000 </r>
       <r>    1.0076    1.0000 </r>
       <r>    1.0904    1.0000 </r>
       <r>    1.3204    1.0000 </r>
       <r>    1.4945    1.0000 </r>
       <r>    1.6859    1.0000 </r>
       <r>    1.8016    1.0000 </r>
       <r>    2.0997    1.0000 </r>
       <r>    3.2734    0.0000 </r>
       <r>    5.2394    0.0000 </r>
       <r>    6.1953    0.0000 </r>
       <r>    7.5196    0.0000 </r>
       <r>    8.2319    0.0000 </r>
       <r>    8.2709    0.0000 </r>
       <r>    8.3710    0.0000 </r>
       <r>    8.7392    0.0000 </r>
       <r>    9.7928    0.0000 </r>
       <r>   10.0263    0.0000 </r>
       <r>   10.1583    0.0000 </r>
      </set>
      <set comment="kpoint 5">
       <r>  -31.3707    1.0000 </r>
       <r>  -31.3582    1.0000 </r>
       <r>  -14.7557    1.0000 </r>
       <r>  -14.3369    1.0000 </r>
       <r>  -14.2541    1.0000 </r>
       <r>  -13.7047    1.0000 </r>
       <r>  -13.4410    1.0000 </r>
       <r>  -13.3717    1.0000 </r>
       <r>  -13.3030    1.0000 </r>
       <r>  -13.0061    1.0000 </r>
       <r>  -12.8897    1.0000 </r>
       <r>  -12.8553    1.0000 </r>
       <r>   -2.8587    1.0000 </r>
       <r>   -2.1579    1.0000 </r>
       <r>   -1.7980    1.0000 </r>
       <r>   -1.4930    1.0000 </r>
       <r>   -1.4169    1.0000 </r>
       <r>   -1.2573    1.0000 </r>
       <r>   -0.9891    1.0000 </r>
       <r>   -0.7265    1.0000 </r>
       <r>   -0.7108    1.0000 </r>
       <r>   -0.3600    1.0000 </r>
       <r>   -0.2625    1.0000 </r>
       <r>   -0.0612    1.0000 </r>
       <r>    0.1322    1.0000 </r>
       <r>    0.8291    1.0000 </r>
       <r>    0.9910    1.0000 </r>
       <r>    1.2516    1.0000 </r>
       <r>    1.4590    1.0000 </r>
       <r>    1.5079    1.0000 </r>
       <r>    1.8191    1.0000 </r>
       <r>    1.8200    1.0000 </r>
       <r>    2.1983    1.0000 </r>
       <r>    3.9411    0.0000 </r>
       <r>    5.9058    0.0000 </r>
       <r>    6.1291    0.0000 </r>
       <r>    7.2729    0.0000 </r>
       <r>    8.4617    0.0000 </r>
       <r>    8.7820    0.0000 </r>
       <r>    8.8956    0.0000 </r>
       <r>    9.1787    0.0000 </r>
       <r>    9.9856    0.0000 </r>
       <r>   10.2678    0.0000 </r>
       <r>   10.2757    0.0000 </r>
      </set>
      <set comment="kpoint 6">
       <r>  -31.3638    1.0000 </r>
       <r>  -31.3516    1.0000 </r>
       <r>  -14.4571    1.0000 </r>
       <r>  -14.3028    1.0000 </r>
       <r>  -13.9917    1.0000 </r>
       <r>  -13.8341    1.0000 </r>
       <r>  -13.5605    1.0000 </r>
       <r>  -13.4228    1.0000 </r>
       <r>  -13.3562    1.0000 </r>
       <r>  -13.2076    1.0000 </r>
       <r>  -12.9995    1.0000 </r>
       <r>  -12.9897    1.0000 </r>
       <r>   -2.9439    1.0000 </r>
       <r>   -2.3867    1.0000 </r>
       <r>   -2.0325    1.0000 </r>
       <r>   -1.6634    1.0000 </r>
       <r>   -1.6167    1.0000 </r>
       <r>   -1.4688    1.0000 </r>
       <r>   -1.1867    1.0000 </r>
       <r>   -0.7429    1.0000 </r>
       <r>   -0.7403    1.0000 </r>
       <r>   -0.2148    1.0000 </r>
       <r>   -0.0933    1.0000 </r>
       <r>    0.1080    1.0000 </r>
       <r>    0.5503    1.0000 </r>
       <r>    0.8005    1.0000 </r>
       <r>    1.2310    1.0000 </r>
       <r>    1.4289    1.0000 </r>
       <r>    1.5016    1.0000 </r>
       <r>    1.5572    1.0000 </r>
       <r>    2.0845    1.0000 </r>
       <r>    2.1213    1.0000 </r>
       <r>    2.1832    1.0000 </r>
       <r>    4.5045    0.0000 </r>
       <r>    5.2223    0.0000 </r>
       <r>    5.2730    0.0000 </r>
       <r>    7.9063    0.0000 </r>
       <r>    8.7360    0.0000 </r>
       <r>    8.7571    0.0000 </r>
       <r>    9.1992    0.0000 </r>
       <r>    9.4387    0.0000 </r>
       <r>   10.0772    0.0000 </r>
       <r>   10.5225    0.0000 </r>
       <r>   10.8737    0.0000 </r>
      </set>
      <set comment="kpoint 7">
       <r>  -31.3841    1.0000 </r>
       <r>  -31.3773    1.0000 </r>
       <r>  -14.6212    1.0000 </r>
       <r>  -14.5447    1.0000 </r>
       <r>  -13.8484    1.0000 </r>
       <r>  -13.7643    1.0000 </r>
       <r>  -13.2650    1.0000 </r>
       <r>  -13.2650    1.0000 </r>
       <r>  -13.2499    1.0000 </r>
       <r>  -13.2499    1.0000 </r>
       <r>  -13.1723    1.0000 </r>
       <r>  -12.9854    1.0000 </r>
       <r>   -2.1558    1.0000 </r>
       <r>   -1.3498    1.0000 </r>
       <r>   -1.0210    1.0000 </r>
       <r>   -1.0210    1.0000 </r>
       <r>   -0.8144    1.0000 </r>
       <r>   -0.8144    1.0000 </r>
       <r>   -0.4944    1.0000 </r>
       <r>   -0.4871    1.0000 </r>
       <r>   -0.4442    1.0000 </r>
       <r>   -0.4240    1.0000 </r>
       <r>   -0.4240    1.0000 </r>
       <r>   -0.4132    1.0000 </r>
       <r>    0.4475    1.0000 </r>
       <r>    0.4475    1.0000 </r>
       <r>    0.7765    1.0000 </r>
       <r>    0.8458    1.0000 </r>
       <r>    1.6096    1.0000 </r>
       <r>    1.6350    1.0000 </r>
       <r>    1.6350    1.0000 </r>
       <r>    1.8340    1.0000 </r>
       <r>    1.9167    1.0000 </r>
       <r>    1.9167    1.0000 </r>
       <r>    4.6195    0.0000 </r>
       <r>    5.7996    0.0000 </r>
       <r>    7.0679    0.0000 </r>
       <r>    7.0738    0.0000 </r>
       <r>    7.7544    0.0000 </r>
       <r>    8.3766    0.0000 </r>
       <r>    8.9739    0.0000 </r>
       <r>    8.9739    0.0000 </r>
       <r>    9.6882    0.0000 </r>
       <r>    9.7769    0.0000 </r>
      </set>
      <set comment="kpoint 8">
       <r>  -31.3794    1.0000 </r>
       <r>  -31.3728    1.0000 </r>
       <r>  -14.6760    1.0000 </r>
       <r>  -14.5293    1.0000 </r>
       <r>  -14.0835    1.0000 </r>
       <r>  -13.8331    1.0000 </r>
       <r>  -13.2532    1.0000 </r>
       <r>  -13.2380    1.0000 </r>
       <r>  -13.2266    1.0000 </r>
       <r>  -13.1337    1.0000 </r>
       <r>  -12.9995    1.0000 </r>
       <r>  -12.9278    1.0000 </r>
       <r>   -2.2214    1.0000 </r>
       <r>   -1.5518    1.0000 </r>
       <r>   -1.4440    1.0000 </r>
[...]
       <r>     0.5902     1.3607    24.9735 </r>
       <r>     0.7451     1.7386    25.2429 </r>
       <r>     0.9001     5.1386    26.0392 </r>
       <r>     1.0551     5.5208    26.8947 </r>
       <r>     1.2100     7.3619    28.0354 </r>
       <r>     1.3650     4.1737    28.6822 </r>
       <r>     1.5199     9.0309    30.0816 </r>
       <r>     1.6749     5.9979    31.0110 </r>
       <r>     1.8298     2.7755    31.4411 </r>
       <r>     1.9848     3.6523    32.0071 </r>
       <r>     2.1398     2.6493    32.4176 </r>
       <r>     2.2947     1.6592    32.6747 </r>
       <r>     2.4497     1.7652    32.9482 </r>
       <r>     2.6046     0.5711    33.0367 </r>
       <r>     2.7596     0.8350    33.1661 </r>
       <r>     2.9145     0.7615    33.2841 </r>
       <r>     3.0695     0.4293    33.3507 </r>
       <r>     3.2245     0.1024    33.3665 </r>
       <r>     3.3794     0.4777    33.4405 </r>
       <r>     3.5344     1.2568    33.6353 </r>
       <r>     3.6893     0.8626    33.7690 </r>
       <r>     3.8443     0.6765    33.8738 </r>
       <r>     3.9993     0.5562    33.9600 </r>
       <r>     4.1542     0.0003    33.9600 </r>
       <r>     4.3092     0.3014    34.0067 </r>
       <r>     4.4641     0.0425    34.0133 </r>
       <r>     4.6191     0.1605    34.0382 </r>
       <r>     4.7740     0.3555    34.0933 </r>
       <r>     4.9290     0.0003    34.0933 </r>
       <r>     5.0840     0.1915    34.1230 </r>
       <r>     5.2389     1.0865    34.2914 </r>
       <r>     5.3939     1.2423    34.4839 </r>
       <r>     5.5488     1.2635    34.6797 </r>
       <r>     5.7038     0.0078    34.6809 </r>
       <r>     5.8587     1.2581    34.8758 </r>
       <r>     6.0137     2.8663    35.3200 </r>
       <r>     6.1687     3.0055    35.7857 </r>
       <r>     6.3236     0.3503    35.8400 </r>
       <r>     6.4786     0.3239    35.8902 </r>
       <r>     6.6335     0.7056    35.9995 </r>
       <r>     6.7885     0.0030    36.0000 </r>
       <r>     6.9434     0.0001    36.0000 </r>
       <r>     7.0984     0.2794    36.0433 </r>
       <r>     7.2534     0.3403    36.0960 </r>
       <r>     7.4083     0.5064    36.1745 </r>
       <r>     7.5633     1.2499    36.3682 </r>
       <r>     7.7182     3.1998    36.8640 </r>
       <r>     7.8732     1.1447    37.0414 </r>
       <r>     8.0282     1.6537    37.2977 </r>
       <r>     8.1831     1.6710    37.5566 </r>
       <r>     8.3381     0.8937    37.6951 </r>
       <r>     8.4930     2.8976    38.1441 </r>
       <r>     8.6480     2.4474    38.5233 </r>
       <r>     8.8029     5.6097    39.3926 </r>
       <r>     8.9579     4.7895    40.1348 </r>
       <r>     9.1129     2.3890    40.5049 </r>
       <r>     9.2678     2.8622    40.9485 </r>
       <r>     9.4228     2.7762    41.3787 </r>
       <r>     9.5777     2.5517    41.7741 </r>
       <r>     9.7327     3.4515    42.3089 </r>
       <r>     9.8876     2.4953    42.6956 </r>
       <r>    10.0426     3.1753    43.1876 </r>
       <r>    10.1976     1.1087    43.3594 </r>
       <r>    10.3525     1.7936    43.6373 </r>
       <r>    10.5075     0.4047    43.7001 </r>
       <r>    10.6624     1.2021    43.8863 </r>
       <r>    10.8174     0.4101    43.9499 </r>
       <r>    10.9724     0.3227    43.9999 </r>
       <r>    11.1273     0.0008    44.0000 </r>
       <r>    11.2823     0.0000    44.0000 </r>
       <r>    11.4372     0.0000    44.0000 </r>
       <r>    11.5922     0.0000    44.0000 </r>
       <r>    11.7471     0.0000    44.0000 </r>
       <r>    11.9021     0.0000    44.0000 </r>
       <r>    12.0571     0.0000    44.0000 </r>
       <r>    12.2120     0.0000    44.0000 </r>
       <r>    12.3670     0.0000    44.0000 </r>
       <r>    12.5219     0.0000    44.0000 </r>
       <r>    12.6769     0.0000    44.0000 </r>
       <r>    12.8318     0.0000    44.0000 </r>
       <r>    12.9868     0.0000    44.0000 </r>
      </set>
      <set comment="spin 2">
       <r>   -33.5005     0.0000     0.0000 </r>
       <r>   -33.3456     0.0000     0.0000 </r>
       <r>   -33.1906     0.0000     0.0000 </r>
       <r>   -33.0356     0.0000     0.0000 </r>
       <r>   -32.8807     0.0000     0.0000 </r>
       <r>   -32.7257     0.0000     0.0000 </r>
       <r>   -32.5708     0.0000     0.0000 </r>
       <r>   -32.4158     0.0000     0.0000 </r>
       <r>   -32.2609     0.0000     0.0000 </r>
       <r>   -32.1059     0.0000     0.0000 </r>
       <r>   -31.9509     0.0000     0.0000 </r>
       <r>   -31.7960     0.0000     0.0000 </r>
       <r>   -31.6410     0.0000     0.0000 </r>
       <r>   -31.4861     0.0070     0.0011 </r>
       <r>   -31.3311    10.8882     1.6883 </r>
       <r>   -31.1762     2.0116     2.0000 </r>
       <r>   -31.0212     0.0000     2.0000 </r>
       <r>   -30.8662     0.0000     2.0000 </r>
       <r>   -30.7113     0.0000     2.0000 </r>
       <r>   -30.5563     0.0000     2.0000 </r>
       <r>   -30.4014     0.0000     2.0000 </r>
       <r>   -30.2464     0.0000     2.0000 </r>
       <r>   -30.0914     0.0000     2.0000 </r>
       <r>   -29.9365     0.0000     2.0000 </r>
       <r>   -29.7815     0.0000     2.0000 </r>
       <r>   -29.6266     0.0000     2.0000 </r>
       <r>   -29.4716     0.0000     2.0000 </r>
       <r>   -29.3167     0.0000     2.0000 </r>
       <r>   -29.1617     0.0000     2.0000 </r>
       <r>   -29.0067     0.0000     2.0000 </r>
       <r>   -28.8518     0.0000     2.0000 </r>
       <r>   -28.6968     0.0000     2.0000 </r>
       <r>   -28.5419     0.0000     2.0000 </r>
       <r>   -28.3869     0.0000     2.0000 </r>
       <r>   -28.2320     0.0000     2.0000 </r>
       <r>   -28.0770     0.0000     2.0000 </r>
       <r>   -27.9220     0.0000     2.0000 </r>
       <r>   -27.7671     0.0000     2.0000 </r>
       <r>   -27.6121     0.0000     2.0000 </r>
       <r>   -27.4572     0.0000     2.0000 </r>
       <r>   -27.3022     0.0000     2.0000 </r>
       <r>   -27.1473     0.0000     2.0000 </r>
       <r>   -26.9923     0.0000     2.0000 </r>
       <r>   -26.8373     0.0000     2.0000 </r>
       <r>   -26.6824     0.0000     2.0000 </r>
       <r>   -26.5274     0.0000     2.0000 </r>
       <r>   -26.3725     0.0000     2.0000 </r>
       <r>   -26.2175     0.0000     2.0000 </r>
       <r>   -26.0625     0.0000     2.0000 </r>
       <r>   -25.9076     0.0000     2.0000 </r>
       <r>   -25.7526     0.0000     2.0000 </r>
       <r>   -25.5977     0.0000     2.0000 </r>
       <r>   -25.4427     0.0000     2.0000 </r>
       <r>   -25.2878     0.0000     2.0000 </r>
       <r>   -25.1328     0.0000     2.0000 </r>
       <r>   -24.9778     0.0000     2.0000 </r>
       <r>   -24.8229     0.0000     2.0000 </r>
       <r>   -24.6679     0.0000     2.0000 </r>
       <r>   -24.5130     0.0000     2.0000 </r>
       <r>   -24.3580     0.0000     2.0000 </r>
       <r>   -24.2031     0.0000     2.0000 </r>
       <r>   -24.0481     0.0000     2.0000 </r>
       <r>   -23.8931     0.0000     2.0000 </r>
       <r>   -23.7382     0.0000     2.0000 </r>
       <r>   -23.5832     0.0000     2.0000 </r>
       <r>   -23.4283     0.0000     2.0000 </r>
       <r>   -23.2733     0.0000     2.0000 </r>
       <r>   -23.1184     0.0000     2.0000 </r>
       <r>   -22.9634     0.0000     2.0000 </r>
       <r>   -22.8084     0.0000     2.0000 </r>
       <r>   -22.6535     0.0000     2.0000 </r>
       <r>   -22.4985     0.0000     2.0000 </r>
       <r>   -22.3436     0.0000     2.0000 </r>
       <r>   -22.1886     0.0000     2.0000 </r>
       <r>   -22.0336     0.0000     2.0000 </r>
       <r>   -21.8787     0.0000     2.0000 </r>
       <r>   -21.7237     0.0000     2.0000 </r>
       <r>   -21.5688     0.0000     2.0000 </r>
       <r>   -21.4138     0.0000     2.0000 </r>
       <r>   -21.2589     0.0000     2.0000 </r>
       <r>   -21.1039     0.0000     2.0000 </r>
       <r>   -20.9489     0.0000     2.0000 </r>
       <r>   -20.7940     0.0000     2.0000 </r>
       <r>   -20.6390     0.0000     2.0000 </r>
       <r>   -20.4841     0.0000     2.0000 </r>
       <r>   -20.3291     0.0000     2.0000 </r>
       <r>   -20.1742     0.0000     2.0000 </r>
       <r>   -20.0192     0.0000     2.0000 </r>
       <r>   -19.8642     0.0000     2.0000 </r>
       <r>   -19.7093     0.0000     2.0000 </r>
       <r>   -19.5543     0.0000     2.0000 </r>
       <r>   -19.3994     0.0000     2.0000 </r>
       <r>   -19.2444     0.0000     2.0000 </r>
       <r>   -19.0894     0.0000     2.0000 </r>
       <r>   -18.9345     0.0000     2.0000 </r>
       <r>   -18.7795     0.0000     2.0000 </r>
       <r>   -18.6246     0.0000     2.0000 </r>
       <r>   -18.4696     0.0000     2.0000 </r>
       <r>   -18.3147     0.0000     2.0000 </r>
       <r>   -18.1597     0.0000     2.0000 </r>
       <r>   -18.0047     0.0000     2.0000 </r>
       <r>   -17.8498     0.0000     2.0000 </r>
       <r>   -17.6948     0.0000     2.0000 </r>
       <r>   -17.5399     0.0000     2.0000 </r>
       <r>   -17.3849     0.0000     2.0000 </r>
       <r>   -17.2300     0.0000     2.0000 </r>
       <r>   -17.0750     0.0000     2.0000 </r>
       <r>   -16.9200     0.0000     2.0000 </r>
       <r>   -16.7651     0.0000     2.0000 </r>
       <r>   -16.6101     0.0000     2.0000 </r>
       <r>   -16.4552     0.0000     2.0000 </r>
       <r>   -16.3002     0.0000     2.0000 </r>
       <r>   -16.1453     0.0000     2.0000 </r>
       <r>   -15.9903     0.0000     2.0000 </r>
       <r>   -15.8353     0.0000     2.0000 </r>
       <r>   -15.6804     0.0000     2.0000 </r>
       <r>   -15.5254     0.0000     2.0000 </r>
       <r>   -15.3705     0.0000     2.0000 </r>
       <r>   -15.2155     0.0000     2.0000 </r>
       <r>   -15.0605     0.0000     2.0000 </r>
       <r>   -14.9056     0.1859     2.0288 </r>
       <r>   -14.7506     1.5789     2.2735 </r>
       <r>   -14.5957     3.6276     2.8356 </r>
       <r>   -14.4407     3.3883     3.3606 </r>
       <r>   -14.2858     4.7528     4.0971 </r>
       <r>   -14.1308     2.8812     4.5436 </r>
       <r>   -13.9758     2.1336     4.8742 </r>
       <r>   -13.8209     2.7077     5.2938 </r>
       <r>   -13.6659     3.7395     5.8733 </r>
       <r>   -13.5110     1.5315     6.1106 </r>
       <r>   -13.3560     8.2147     7.3835 </r>
       <r>   -13.2011    10.2211     8.9673 </r>
       <r>   -13.0461     4.0591     9.5963 </r>
       <r>   -12.8911    10.3050    11.1932 </r>
       <r>   -12.7362     4.5905    11.9045 </r>
       <r>   -12.5812     0.6164    12.0000 </r>
       <r>   -12.4263     0.0000    12.0000 </r>
       <r>   -12.2713     0.0000    12.0000 </r>
       <r>   -12.1164     0.0000    12.0000 </r>
       <r>   -11.9614     0.0000    12.0000 </r>
       <r>   -11.8064     0.0000    12.0000 </r>
       <r>   -11.6515     0.0000    12.0000 </r>
       <r>   -11.4965     0.0000    12.0000 </r>
       <r>   -11.3416     0.0000    12.0000 </r>
       <r>   -11.1866     0.0000    12.0000 </r>
       <r>   -11.0316     0.0000    12.0000 </r>
       <r>   -10.8767     0.0000    12.0000 </r>
       <r>   -10.7217     0.0000    12.0000 </r>
       <r>   -10.5668     0.0000    12.0000 </r>
       <r>   -10.4118     0.0000    12.0000 </r>
       <r>   -10.2569     0.0000    12.0000 </r>
       <r>   -10.1019     0.0000    12.0000 </r>
       <r>    -9.9469     0.0000    12.0000 </r>
       <r>    -9.7920     0.0000    12.0000 </r>
       <r>    -9.6370     0.0000    12.0000 </r>
       <r>    -9.4821     0.0000    12.0000 </r>
       <r>    -9.3271     0.0000    12.0000 </r>
       <r>    -9.1722     0.0000    12.0000 </r>
       <r>    -9.0172     0.0000    12.0000 </r>
       <r>    -8.8622     0.0000    12.0000 </r>
       <r>    -8.7073     0.0000    12.0000 </r>
       <r>    -8.5523     0.0000    12.0000 </r>
       <r>    -8.3974     0.0000    12.0000 </r>
       <r>    -8.2424     0.0000    12.0000 </r>
       <r>    -8.0875     0.0000    12.0000 </r>
       <r>    -7.9325     0.0000    12.0000 </r>
       <r>    -7.7775     0.0000    12.0000 </r>
       <r>    -7.6226     0.0000    12.0000 </r>
       <r>    -7.4676     0.0000    12.0000 </r>
       <r>    -7.3127     0.0000    12.0000 </r>
       <r>    -7.1577     0.0000    12.0000 </r>
       <r>    -7.0027     0.0000    12.0000 </r>
       <r>    -6.8478     0.0000    12.0000 </r>
       <r>    -6.6928     0.0000    12.0000 </r>
       <r>    -6.5379     0.0000    12.0000 </r>
       <r>    -6.3829     0.0000    12.0000 </r>
       <r>    -6.2280     0.0000    12.0000 </r>
       <r>    -6.0730     0.0000    12.0000 </r>
       <r>    -5.9180     0.0000    12.0000 </r>
       <r>    -5.7631     0.0000    12.0000 </r>
       <r>    -5.6081     0.0000    12.0000 </r>
       <r>    -5.4532     0.0000    12.0000 </r>
       <r>    -5.2982     0.0000    12.0000 </r>
       <r>    -5.1433     0.0000    12.0000 </r>
       <r>    -4.9883     0.0000    12.0000 </r>
       <r>    -4.8333     0.0000    12.0000 </r>
       <r>    -4.6784     0.0000    12.0000 </r>
       <r>    -4.5234     0.0000    12.0000 </r>
       <r>    -4.3685     0.0000    12.0000 </r>
       <r>    -4.2135     0.0000    12.0000 </r>
       <r>    -4.0585     0.0000    12.0000 </r>
       <r>    -3.9036     0.0000    12.0000 </r>
       <r>    -3.7486     0.0000    12.0000 </r>
       <r>    -3.5937     0.0000    12.0000 </r>
       <r>    -3.4387     0.0000    12.0000 </r>
       <r>    -3.2838     0.0000    12.0000 </r>
       <r>    -3.1288     0.0000    12.0000 </r>
       <r>    -2.9738     0.0694    12.0108 </r>
       <r>    -2.8189     1.1932    12.1956 </r>
       <r>    -2.6639     1.9231    12.4936 </r>
       <r>    -2.5090     1.6230    12.7451 </r>
       <r>    -2.3540     1.0601    12.9094 </r>
       <r>    -2.1991     1.3419    13.1173 </r>
       <r>    -2.0441     1.9324    13.4168 </r>
       <r>    -1.8891     2.5153    13.8066 </r>
       <r>    -1.7342     2.6297    14.2141 </r>
       <r>    -1.5792     2.9529    14.6716 </r>
       <r>    -1.4243     7.0388    15.7623 </r>
       <r>    -1.2693     5.2311    16.5729 </r>
       <r>    -1.1144     6.9913    17.6563 </r>
       <r>    -0.9594     5.3040    18.4782 </r>
       <r>    -0.8044     8.2448    19.7558 </r>
       <r>    -0.6495     6.7733    20.8054 </r>
       <r>    -0.4945     4.2923    21.4705 </r>
       <r>    -0.3396     6.0804    22.4127 </r>
       <r>    -0.1846     5.6970    23.2955 </r>
       <r>    -0.0296     1.9562    23.5986 </r>
       <r>     0.1253     3.4778    24.1375 </r>
       <r>     0.2803     1.9487    24.4395 </r>
       <r>     0.4352     1.8369    24.7241 </r>
       <r>     0.5902     1.2893    24.9239 </r>
       <r>     0.7451     0.6031    25.0174 </r>
       <r>     0.9001     4.6495    25.7378 </r>
       <r>     1.0551     5.3119    26.5610 </r>
       <r>     1.2100     6.7363    27.6048 </r>
       <r>     1.3650     5.9924    28.5334 </r>
       <r>     1.5199     6.6715    29.5672 </r>
       <r>     1.6749     7.2227    30.6864 </r>
       <r>     1.8298     3.4083    31.2145 </r>
       <r>     1.9848     4.2616    31.8749 </r>
       <r>     2.1398     3.1062    32.3562 </r>
       <r>     2.2947     1.6505    32.6120 </r>
       <r>     2.4497     0.0545    32.6204 </r>
       <r>     2.6046     1.5404    32.8591 </r>
       <r>     2.7596     0.7988    32.9829 </r>
       <r>     2.9145     0.7111    33.0931 </r>
       <r>     3.0695     0.7324    33.2066 </r>
       <r>     3.2245     0.6733    33.3109 </r>
       <r>     3.3794     0.3163    33.3599 </r>
       <r>     3.5344     0.2839    33.4039 </r>
       <r>     3.6893     0.7277    33.5167 </r>
       <r>     3.8443     1.4000    33.7336 </r>
       <r>     3.9993     0.7388    33.8481 </r>
       <r>     4.1542     0.6576    33.9500 </r>
       <r>     4.3092     0.0644    33.9600 </r>
       <r>     4.4641     0.0435    33.9667 </r>
       <r>     4.6191     0.3962    34.0281 </r>
       <r>     4.7740     0.4186    34.0930 </r>
       <r>     4.9290     0.0021    34.0933 </r>
       <r>     5.0840     0.0941    34.1079 </r>
       <r>     5.2389     1.0562    34.2716 </r>
       <r>     5.3939     1.2601    34.4668 </r>
       <r>     5.5488     1.3679    34.6788 </r>
       <r>     5.7038     0.0082    34.6801 </r>
       <r>     5.8587     1.0370    34.8408 </r>
       <r>     6.0137     2.9921    35.3044 </r>
       <r>     6.1687     2.8226    35.7418 </r>
       <r>     6.3236     0.6336    35.8400 </r>
       <r>     6.4786     0.1782    35.8676 </r>
       <r>     6.6335     0.8418    35.9981 </r>
       <r>     6.7885     0.0126    36.0000 </r>
       <r>     6.9434     0.0001    36.0000 </r>
       <r>     7.0984     0.2689    36.0417 </r>
       <r>     7.2534     0.3282    36.0925 </r>
       <r>     7.4083     0.5265    36.1741 </r>
       <r>     7.5633     1.1712    36.3556 </r>
       <r>     7.7182     3.2504    36.8593 </r>
       <r>     7.8732     1.1310    37.0346 </r>
       <r>     8.0282     1.6609    37.2919 </r>
       <r>     8.1831     1.6839    37.5529 </r>
       <r>     8.3381     0.8785    37.6890 </r>
       <r>     8.4930     2.4937    38.0754 </r>
       <r>     8.6480     2.8189    38.5122 </r>
       <r>     8.8029     5.3572    39.3424 </r>
       <r>     8.9579     4.8975    40.1013 </r>
       <r>     9.1129     2.5663    40.4989 </r>
       <r>     9.2678     2.8614    40.9423 </r>
       <r>     9.4228     2.7325    41.3657 </r>
       <r>     9.5777     2.5888    41.7669 </r>
       <r>     9.7327     3.4206    42.2969 </r>
       <r>     9.8876     2.5432    42.6910 </r>
       <r>    10.0426     3.1826    43.1842 </r>
       <r>    10.1976     1.1070    43.3557 </r>
       <r>    10.3525     1.7937    43.6337 </r>
       <r>    10.5075     0.4147    43.6979 </r>
       <r>    10.6624     1.1919    43.8826 </r>
       <r>    10.8174     0.4323    43.9496 </r>
       <r>    10.9724     0.3242    43.9999 </r>
       <r>    11.1273     0.0009    44.0000 </r>
       <r>    11.2823     0.0000    44.0000 </r>
       <r>    11.4372     0.0000    44.0000 </r>
       <r>    11.5922     0.0000    44.0000 </r>
       <r>    11.7471     0.0000    44.0000 </r>
       <r>    11.9021     0.0000    44.0000 </r>
       <r>    12.0571     0.0000    44.0000 </r>
       <r>    12.2120     0.0000    44.0000 </r>
       <r>    12.3670     0.0000    44.0000 </r>
       <r>    12.5219     0.0000    44.0000 </r>
       <r>    12.6769     0.0000    44.0000 </r>
       <r>    12.8318     0.0000    44.0000 </r>
       <r>    12.9868     0.0000    44.0000 </r>
      </set>
     </set>
    </array>
   </total>
  </dos>
 </calculation>
 <structure name="finalpos" >
  <crystal>
   <varray name="basis" >
    <v>       4.00000000       0.00000000       0.00000000 </v>
    <v>       0.00000000       4.00000000       0.00000000 </v>
    <v>       0.00000000       0.00000000       8.00000000 </v>
   </varray>
   <i name="volume">    128.00000000 </i>
   <varray name="rec_basis" >
    <v>       0.25000000       0.00000000       0.00000000 </v>
    <v>       0.00000000       0.25000000       0.00000000 </v>
    <v>       0.00000000       0.00000000       0.12500000 </v>
   </varray>
  </crystal>
  <varray name="positions" >
   <v>       0.00000000       0.00000000       0.75000000 </v>
   <v>       0.00000000       0.00000000       0.25000000 </v>
   <v>       0.50000000       0.50000000       0.00000000 </v>
   <v>       0.50000000       0.50000000       0.50000000 </v>
   <v>       0.50000000       0.50000000       0.75000000 </v>
   <v>       0.50000000       0.50000000       0.25000000 </v>
   <v>       0.00000000       0.50000000       0.50000000 </v>
   <v>       0.50000000       0.00000000       0.00000000 </v>
  </varray>
 </structure>
</modeling>
