<?xml version="1.0" encoding="ISO-8859-1"?>
<modeling>
 <generator>
  <i name="program" type="string">vasp </i>
  <i name="version" type="string">5.3.5  </i>
  <i name="subversion" type="string">31Mar14 (build Jun 20 2014 13:15:13) complex                          parallel </i>
  <i name="platform" type="string">LinuxIFC </i>
  <i name="date" type="string">2025 12 12 </i>
  <i name="time" type="string">11:49:57 </i>
 </generator>
 <incar>
  <i type="string" name="PREC">accurate</i>
  <i type="int" name="IALGO">    38</i>
  <i type="logical" name="ADDGRID"> T  </i>
  <i type="int" name="ISPIN">     2</i>
  <i type="int" name="NELM">   100</i>
  <i type="int" name="NELMIN">     4</i>
  <i name="EDIFF">      0.00000100</i>
  <i name="ENCUT">    500.00000000</i>
  <i type="logical" name="LREAL"> F  </i>
  <i type="int" name="ISMEAR">     0</i>
  <i name="SIGMA">      0.05000000</i>
  <i type="logical" name="LWAVE"> F  </i>
  <i type="logical" name="LCHARG"> F  </i>
  <i type="int" name="NELM">   100</i>
  <i type="logical" name="LDAU"> T  </i>
  <v name="LDAUU">      0.00000000      4.00000000      0.00000000</v>
  <v name="LDAUJ">      0.00000000      0.00000000      0.00000000</v>
 </incar>
 <kpoints>
  <generation param="Auto">
   <i name="subdivisionlength">     20.00000000 </i>
   <v type="int" name="divisions">       3        1        5 </v>
   <v name="usershift">      0.00000000       0.00000000       0.00000000 </v>
   <v name="genvec1">      0.33333333       0.00000000       0.00000000 </v>
   <v name="genvec2">      0.00000000       1.00000000       0.00000000 </v>
   <v name="genvec3">      0.00000000       0.00000000       0.20000000 </v>
   <v name="shift">      0.00000000       0.00000000       0.00000000 </v>
  </generation>
  <varray name="kpointlist" >
   <v>       0.00000000       0.00000000       0.00000000 </v>
   <v>       0.33333333       0.00000000       0.00000000 </v>
   <v>       0.00000000       0.00000000       0.20000000 </v>
   <v>       0.33333333       0.00000000       0.20000000 </v>
   <v>       0.00000000       0.00000000       0.40000000 </v>
   <v>       0.33333333       0.00000000       0.40000000 </v>
  </varray>
  <varray name="weights" >
   <v>       0.06666667 </v>
   <v>       0.13333333 </v>
   <v>       0.13333333 </v>
   <v>       0.26666667 </v>
   <v>       0.13333333 </v>
   <v>       0.26666667 </v>
  </varray>
 </kpoints>
 <parameters>
  <separator name="general" >
   <i type="string" name="SYSTEM">unknown system</i>
   <i type="logical" name="LCOMPAT"> F  </i>
  </separator>
  <separator name="electronic" >
   <i type="string" name="PREC">accura</i>
   <i name="ENMAX">    500.00000000</i>
   <i name="ENAUG">    586.98000000</i>
   <i name="EDIFF">      0.00000100</i>
   <i type="int" name="IALGO">    38</i>
   <i type="int" name="IWAVPR">    10</i>
   <i type="int" name="NBANDS">   192</i>
   <i name="NELECT">    288.00000000</i>
   <i type="int" name="TURBO">     0</i>
   <i type="int" name="IRESTART">     0</i>
   <i type="int" name="NREBOOT">     0</i>
   <i type="int" name="NMIN">     0</i>
   <i name="EREF">      0.00000000</i>
   <separator name="electronic smearing" >
    <i type="int" name="ISMEAR">     0</i>
    <i name="SIGMA">      0.05000000</i>
    <i name="KSPACING">      0.50000000</i>
    <i type="logical" name="KGAMMA"> T  </i>
   </separator>
   <separator name="electronic projectors" >
    <i type="logical" name="LREAL"> F  </i>
    <v name="ROPT">      0.00000000      0.00000000      0.00000000</v>
    <i type="int" name="LMAXPAW">  -100</i>
    <i type="int" name="LMAXMIX">     2</i>
    <i type="logical" name="NLSPLINE"> F  </i>
   </separator>
   <separator name="electronic startup" >
    <i type="int" name="ISTART">     0</i>
    <i type="int" name="ICHARG">     2</i>
    <i type="int" name="INIWAV">     1</i>
   </separator>
   <separator name="electronic spin" >
    <i type="int" name="ISPIN">     2</i>
    <i type="logical" name="LNONCOLLINEAR"> F  </i>
    <v name="MAGMOM">      1.00000000      1.00000000      1.00000000      1.00000000      1.00000000      1.00000000      1.00000000      1.00000000      1.00000000      1.00000000      1.00000000      1.00000000      1.00000000      1.00000000      1.00000000      1.00000000      1.00000000      1.00000000      1.00000000      1.00000000
      1.00000000      1.00000000      1.00000000      1.00000000      1.00000000      1.00000000      1.00000000      1.00000000      1.00000000      1.00000000      1.00000000      1.00000000      1.00000000      1.00000000      1.00000000      1.00000000</v>
    <i name="NUPDOWN">     -1.00000000</i>
    <i type="logical" name="LSORBIT"> F  </i>
    <v name="SAXIS">      0.00000000      0.00000000      1.00000000</v>
    <i type="logical" name="LSPIRAL"> F  </i>
    <v name="QSPIRAL">      0.00000000      0.00000000      0.00000000</v>
    <i type="logical" name="LZEROZ"> F  </i>
   </separator>
   <separator name="electronic exchange-correlation" >
    <i type="logical" name="LASPH"> F  </i>
    <i type="logical" name="LMETAGGA"> F  </i>
   </separator>
   <separator name="electronic convergence" >
    <i type="int" name="NELM">   100</i>
    <i type="int" name="NELMDL">    -5</i>
    <i type="int" name="NELMIN">     4</i>
    <i name="ENINI">    500.00000000</i>
    <separator name="electronic convergence detail" >
     <i type="logical" name="LDIAG"> T  </i>
     <i type="logical" name="LSUBROT"> F  </i>
     <i name="WEIMIN">      0.00000000</i>
     <i name="EBREAK">      0.00000000</i>
     <i name="DEPER">      0.30000000</i>
     <i type="int" name="NRMM">     4</i>
     <i name="TIME">      0.40000000</i>
    </separator>
   </separator>
   <separator name="electronic mixer" >
    <i name="AMIX">      0.40000000</i>
    <i name="BMIX">      1.00000000</i>
    <i name="AMIN">      0.10000000</i>
    <i name="AMIX_MAG">      1.60000000</i>
    <i name="BMIX_MAG">      1.00000000</i>
    <separator name="electronic mixer details" >
     <i type="int" name="IMIX">     4</i>
     <i type="int" name="MAXMIX">   -45</i>
     <i name="WC">    100.00000000</i>
     <i type="int" name="INIMIX">     1</i>
     <i type="int" name="MIXPRE">     1</i>
     <i type="int" name="MREMOVE">     5</i>
    </separator>
   </separator>
   <separator name="electronic dipolcorrection" >
    <i type="logical" name="LDIPOL"> F  </i>
    <i type="logical" name="LMONO"> F  </i>
    <i type="int" name="IDIPOL">     0</i>
    <i name="EPSILON">      1.00000000</i>
    <v name="DIPOL">   -100.00000000   -100.00000000   -100.00000000</v>
    <i name="EFIELD">      0.00000000</i>
   </separator>
  </separator>
  <separator name="grids" >
   <i type="int" name="NGX">    60</i>
   <i type="int" name="NGY">   120</i>
   <i type="int" name="NGZ">    30</i>
   <i type="int" name="NGXF">   120</i>
   <i type="int" name="NGYF">   240</i>
   <i type="int" name="NGZF">    60</i>
   <i type="logical" name="ADDGRID"> T  </i>
  </separator>
  <separator name="ionic" >
   <i type="int" name="NSW">     0</i>
   <i type="int" name="IBRION">    -1</i>
   <i type="int" name="ISIF">     2</i>
   <i name="PSTRESS">      0.00000000</i>
   <i name="EDIFFG">      0.00001000</i>
   <i type="int" name="NFREE">     0</i>
   <i name="POTIM">      0.50000000</i>
   <i name="SMASS">     -3.00000000</i>
   <i name="SCALEE">      1.00000000</i>
  </separator>
  <separator name="ionic md" >
   <i name="TEBEG">      0.00010000</i>
   <i name="TEEND">      0.00010000</i>
   <i type="int" name="NBLOCK">     1</i>
   <i type="int" name="KBLOCK">     1</i>
   <i type="int" name="NPACO">   256</i>
   <i name="APACO">     16.00000000</i>
  </separator>
  <separator name="symmetry" >
   <i type="int" name="ISYM">     2</i>
   <i name="SYMPREC">      0.00001000</i>
  </separator>
  <separator name="dos" >
   <i type="logical" name="LORBIT"> F  </i>
   <v name="RWIGS">     -1.00000000     -1.00000000     -1.00000000</v>
   <i type="int" name="NEDOS">   301</i>
   <i name="EMIN">     10.00000000</i>
   <i name="EMAX">    -10.00000000</i>
   <i name="EFERMI">      0.00000000</i>
  </separator>
  <separator name="writing" >
   <i type="int" name="NWRITE">     2</i>
   <i type="logical" name="LWAVE"> F  </i>
   <i type="logical" name="LCHARG"> F  </i>
   <i type="logical" name="LPARD"> F  </i>
   <i type="logical" name="LVTOT"> F  </i>
   <i type="logical" name="LVHAR"> F  </i>
   <i type="logical" name="LELF"> F  </i>
   <i type="logical" name="LOPTICS"> F  </i>
   <v name="STM">      0.00000000      0.00000000      0.00000000      0.00000000      0.00000000      0.00000000      0.00000000</v>
  </separator>
  <separator name="performance" >
   <i type="int" name="NPAR">     4</i>
   <i type="int" name="NSIM">     4</i>
   <i type="int" name="NBLK">    -1</i>
   <i type="logical" name="LPLANE"> T  </i>
   <i type="logical" name="LSCALAPACK"> T  </i>
   <i type="logical" name="LSCAAWARE"> F  </i>
   <i type="logical" name="LSCALU"> F  </i>
   <i type="logical" name="LASYNC"> F  </i>
   <i type="logical" name="LORBITALREAL"> F  </i>
  </separator>
  <separator name="miscellaneous" >
   <i type="int" name="IDIOT">     3</i>
   <i type="logical" name="LMUSIC"> F  </i>
   <v name="POMASS">     87.62000000     63.54600000     16.00000000</v>
   <v name="DARWINR">      0.00000000      0.00000000      0.00000000</v>
   <v name="DARWINV">      1.00000000      1.00000000      1.00000000</v>
   <i type="logical" name="LCORR"> T  </i>
  </separator>
  <i type="logical" name="GGA_COMPAT"> T  </i>
  <i type="logical" name="LBERRY"> F  </i>
  <i type="int" name="ICORELEVEL">     0</i>
  <i type="logical" name="LDAU"> T  </i>
  <v type="int" name="LDAUTYPE">     2</v>
  <v type="int" name="LDAUL">     2</v>
  <v name="LDAUU">      0.00000000</v>
  <v name="LDAUJ">      0.00000000</v>
  <i type="int" name="LDAUPRINT">     0</i>
  <i type="int" name="I_CONSTRAINED_M">     0</i>
  <separator name="electronic exchange-correlation" >
   <i type="string" name="GGA">--</i>
   <i type="int" name="VOSKOWN">     0</i>
   <i type="logical" name="LHFCALC"> F  </i>
   <i type="string" name="PRECFOCK"></i>
   <i type="logical" name="LSYMGRAD"> F  </i>
   <i type="logical" name="LHFONE"> F  </i>
   <i type="logical" name="LRHFCALC"> F  </i>
   <i type="logical" name="LTHOMAS"> F  </i>
   <i type="logical" name="LMODELHF"> F  </i>
   <i name="ENCUT4O">     -1.00000000</i>
   <i type="int" name="EXXOEP">     0</i>
   <i type="int" name="FOURORBIT">     0</i>
   <i name="AEXX">      0.00000000</i>
   <i name="HFALPHA">      0.00000000</i>
   <i name="MCALPHA">      0.00000000</i>
   <i name="ALDAX">      1.00000000</i>
   <i name="AGGAX">      1.00000000</i>
   <i name="ALDAC">      1.00000000</i>
   <i name="AGGAC">      1.00000000</i>
   <i type="int" name="NKREDX">     1</i>
   <i type="int" name="NKREDY">     1</i>
   <i type="int" name="NKREDZ">     1</i>
   <i type="logical" name="SHIFTRED"> F  </i>
   <i type="logical" name="ODDONLY"> F  </i>
   <i type="logical" name="EVENONLY"> F  </i>
   <i type="int" name="LMAXFOCK">     0</i>
   <i type="int" name="NMAXFOCKAE">     0</i>
   <i type="logical" name="LFOCKAEDFT"> F  </i>
   <i name="HFSCREEN">      0.00000000</i>
   <i name="HFSCREENC">      0.00000000</i>
   <i type="int" name="NBANDSGWLOW">     0</i>
  </separator>
  <separator name="vdW DFT" >
   <i type="logical" name="LUSE_VDW"> F  </i>
   <i name="Zab_VDW">     -0.84910000</i>
   <i name="PARAM1">      0.12340000</i>
   <i name="PARAM2">      1.00000000</i>
   <i name="PARAM3">      0.00000000</i>
  </separator>
  <separator name="model GW" >
   <i type="int" name="MODEL_GW">     0</i>
   <i name="MODEL_EPS0">      8.53333333</i>
   <i name="MODEL_ALPHA">      1.00000000</i>
  </separator>
  <separator name="linear response parameters" >
   <i type="logical" name="LEPSILON"> F  </i>
   <i type="logical" name="LRPA"> F  </i>
   <i type="logical" name="LNABLA"> F  </i>
   <i type="logical" name="LVEL"> F  </i>
   <i type="int" name="KINTER">     0</i>
   <i name="CSHIFT">      0.10000000</i>
   <i name="OMEGAMAX">     -1.00000000</i>
   <i name="DEG_THRESHOLD">      0.00200000</i>
  </separator>
  <separator name="orbital magnetization" >
   <i type="logical" name="NUCIND"> F  </i>
   <v name="MAGPOS">      0.00000000      0.00000000      0.00000000</v>
   <i type="logical" name="LNICSALL"> T  </i>
   <i type="logical" name="ORBITALMAG"> F  </i>
   <i type="logical" name="LMAGBLOCH"> F  </i>
   <i type="logical" name="LCHIMAG"> F  </i>
   <i type="logical" name="LGAUGE"> T  </i>
   <i type="int" name="MAGATOM">     0</i>
   <v name="MAGDIPOL">      0.00000000      0.00000000      0.00000000</v>
   <v name="AVECCONST">      0.00000000      0.00000000      0.00000000</v>
  </separator>
  <separator name="response functions" >
   <i type="logical" name="LADDER"> F  </i>
   <i type="logical" name="LFXC"> F  </i>
   <i type="logical" name="LHARTREE"> T  </i>
   <i type="int" name="IBSE">     0</i>
   <i type="logical" name="LTCTE"> F  </i>
   <i type="logical" name="LTETE"> F  </i>
   <i type="logical" name="LTRIPLET"> F  </i>
   <i type="logical" name="LFXCEPS"> F  </i>
   <i type="logical" name="LFXHEG"> F  </i>
   <i type="logical" name="L2ORDER"> F  </i>
   <i type="logical" name="LUSEW"> F  </i>
   <i name="ENCUTGW">     -2.00000000</i>
   <i name="ENCUTGWSOFT">     -2.00000000</i>
   <i name="ENCUTLF">     -1.00000000</i>
   <i type="int" name="LMAXMP2">    -1</i>
   <i name="SCISSOR">      0.00000000</i>
   <i type="int" name="NOMEGA">     0</i>
   <i type="int" name="NOMEGAR">     0</i>
   <i type="int" name="NBANDSGW">    -1</i>
   <i type="int" name="NBANDSO">    -1</i>
   <i type="int" name="NBANDSV">    -1</i>
   <i type="int" name="NELM">   100</i>
   <i type="int" name="DIM">     3</i>
   <i type="int" name="ANTIRES">     0</i>
   <i name="OMEGAMAX">    -30.00000000</i>
   <i name="OMEGAMIN">    -30.00000000</i>
   <i name="OMEGATL">   -200.00000000</i>
   <i type="int" name="OMEGAGRID">     0</i>
   <i name="CSHIFT">     -0.10000000</i>
   <i type="logical" name="SELFENERGY"> F  </i>
   <i type="logical" name="LSPECTRAL"> F  </i>
   <i type="logical" name="ODDONLYGW"> F  </i>
   <i type="logical" name="EVENONLYGW"> F  </i>
   <i type="int" name="NKREDLFX">     1</i>
   <i type="int" name="NKREDLFY">     1</i>
   <i type="int" name="NKREDLFZ">     1</i>
   <i type="int" name="MAXMEM">  1800</i>
   <i type="int" name="TELESCOPE">     0</i>
   <i type="int" name="TAUPAR">     1</i>
  </separator>
  <separator name="External order field" >
   <i name="OFIELD_KAPPA">      0.00000000</i>
   <v name="OFIELD_K">      0.00000000      0.00000000      0.00000000</v>
   <i name="OFIELD_Q6_NEAR">      0.00000000</i>
   <i name="OFIELD_Q6_FAR">      0.00000000</i>
   <i name="OFIELD_A">      0.00000000</i>
  </separator>
 </parameters>
 <atominfo>
  <atoms>      36 </atoms>
  <types>       3 </types>
  <array name="atoms" >
   <dimension dim="1">ion</dimension>
   <field type="string">element</field>
   <field type="int">atomtype</field>
   <set>
    <rc><c>Sr</c><c>   1</c></rc>
    <rc><c>Sr</c><c>   1</c></rc>
    <rc><c>Sr</c><c>   1</c></rc>
    <rc><c>Sr</c><c>   1</c></rc>
    <rc><c>Sr</c><c>   1</c></rc>
    <rc><c>Sr</c><c>   1</c></rc>
    <rc><c>Sr</c><c>   1</c></rc>
    <rc><c>Sr</c><c>   1</c></rc>
    <rc><c>Cu</c><c>   2</c></rc>
    <rc><c>Cu</c><c>   2</c></rc>
    <rc><c>Cu</c><c>   2</c></rc>
    <rc><c>Cu</c><c>   2</c></rc>
    <rc><c>Cu</c><c>   2</c></rc>
    <rc><c>Cu</c><c>   2</c></rc>
    <rc><c>Cu</c><c>   2</c></rc>
    <rc><c>Cu</c><c>   2</c></rc>
    <rc><c>O </c><c>   3</c></rc>
    <rc><c>O </c><c>   3</c></rc>
    <rc><c>O </c><c>   3</c></rc>
    <rc><c>O </c><c>   3</c></rc>
    <rc><c>O </c><c>   3</c></rc>
    <rc><c>O </c><c>   3</c></rc>
    <rc><c>O </c><c>   3</c></rc>
    <rc><c>O </c><c>   3</c></rc>
    <rc><c>O </c><c>   3</c></rc>
    <rc><c>O </c><c>   3</c></rc>
    <rc><c>O </c><c>   3</c></rc>
    <rc><c>O </c><c>   3</c></rc>
    <rc><c>O </c><c>   3</c></rc>
    <rc><c>O </c><c>   3</c></rc>
    <rc><c>O </c><c>   3</c></rc>
    <rc><c>O </c><c>   3</c></rc>
    <rc><c>O </c><c>   3</c></rc>
    <rc><c>O </c><c>   3</c></rc>
    <rc><c>O </c><c>   3</c></rc>
    <rc><c>O </c><c>   3</c></rc>
   </set>
  </array>
  <array name="atomtypes" >
   <dimension dim="1">type</dimension>
   <field type="int">atomspertype</field>
   <field type="string">element</field>
   <field>mass</field>
   <field>valence</field>
   <field type="string">pseudopotential</field>
   <set>
    <rc><c>   8</c><c>Sr</c><c>     87.62000000</c><c>     10.00000000</c><c>  PAW_PBE Sr_sv 07Sep2000               </c></rc>
    <rc><c>   8</c><c>Cu</c><c>     63.54600000</c><c>     11.00000000</c><c>  PAW_PBE Cu 22Jun2005                  </c></rc>
    <rc><c>  20</c><c>O </c><c>     16.00000000</c><c>      6.00000000</c><c>  PAW_PBE O_s 07Sep2000                 </c></rc>
   </set>
  </array>
 </atominfo>
 <structure name="initialpos" >
  <crystal>
   <varray name="basis" >
    <v>       8.00000000       0.00000000       0.00000000 </v>
    <v>       0.00000000      16.00000000       0.00000000 </v>
    <v>       0.00000000       0.00000000       4.00000000 </v>
   </varray>
   <i name="volume">    512.00000000 </i>
   <varray name="rec_basis" >
    <v>       0.12500000       0.00000000       0.00000000 </v>
    <v>       0.00000000       0.06250000       0.00000000 </v>
    <v>       0.00000000       0.00000000       0.25000000 </v>
   </varray>
  </crystal>
  <varray name="positions" >
   <v>       0.25000000       0.25000000       0.00000000 </v>
   <v>       0.75000000       0.50000000       0.00000000 </v>
   <v>       0.75000000       0.25000000       0.00000000 </v>
   <v>       0.25000000       0.50000000       0.00000000 </v>
   <v>       0.75000000       0.75000000       0.00000000 </v>
   <v>       0.25000000       0.00000000       0.00000000 </v>
   <v>       0.25000000       0.75000000       0.00000000 </v>
   <v>       0.75000000       0.00000000       0.00000000 </v>
   <v>       0.00000000       0.62500000       0.50000000 </v>
   <v>       0.00000000       0.37500000       0.50000000 </v>
   <v>       0.50000000       0.62500000       0.50000000 </v>
   <v>       0.50000000       0.37500000       0.50000000 </v>
   <v>       0.50000000       0.12500000       0.50000000 </v>
   <v>       0.50000000       0.87500000       0.50000000 </v>
   <v>       0.00000000       0.12500000       0.50000000 </v>
   <v>       0.00000000       0.87500000       0.50000000 </v>
   <v>       0.50000000       0.25000000       0.50000000 </v>
   <v>       0.00000000       0.50000000       0.50000000 </v>
   <v>       0.00000000       0.25000000       0.50000000 </v>
   <v>       0.50000000       0.50000000       0.50000000 </v>
   <v>       0.50000000       0.62500000       0.00000000 </v>
   <v>       0.50000000       0.37500000       0.00000000 </v>
   <v>       0.75000000       0.62500000       0.50000000 </v>
   <v>       0.75000000       0.37500000       0.50000000 </v>
   <v>       0.25000000       0.62500000       0.50000000 </v>
   <v>       0.25000000       0.37500000       0.50000000 </v>
   <v>       0.00000000       0.75000000       0.50000000 </v>
   <v>       0.50000000       0.00000000       0.50000000 </v>
   <v>       0.50000000       0.75000000       0.50000000 </v>
   <v>       0.00000000       0.00000000       0.50000000 </v>
   <v>       0.00000000       0.12500000       0.00000000 </v>
   <v>       0.00000000       0.87500000       0.00000000 </v>
   <v>       0.25000000       0.12500000       0.50000000 </v>
   <v>       0.25000000       0.87500000       0.50000000 </v>
   <v>       0.75000000       0.12500000       0.50000000 </v>
   <v>       0.75000000       0.87500000       0.50000000 </v>
  </varray>
 </structure>
 <calculation>
  <scstep>
   <time name="dav">    4.70    4.71</time>
   <time name="total">    4.91    4.92</time>
   <energy>
    <i name="alphaZ">   1346.99094900 </i>
    <i name="ewald"> -19209.35422943 </i>
    <i name="hartreedc">  -7656.44370811 </i>
    <i name="XCdc">   1198.56180383 </i>
    <i name="pawpsdc">  21754.01322252 </i>
    <i name="pawaedc"> -22428.26520107 </i>
    <i name="eentropy">     -0.00545843 </i>
    <i name="bandstr">   2329.31707752 </i>
    <i name="atom">  26519.50368762 </i>
    <i name="e_fr_energy">   3854.31814345 </i>
    <i name="e_wo_entrp">   3854.32360189 </i>
    <i name="e_0_energy">   3854.32087267 </i>
   </energy>
  </scstep>
  <scstep>
   <time name="dav">    4.70    4.71</time>
   <time name="total">    4.70    4.72</time>
   <energy>
    <i name="e_fr_energy">    429.29108504 </i>
    <i name="e_wo_entrp">    429.30637002 </i>
    <i name="e_0_energy">    429.29872753 </i>
   </energy>
  </scstep>
  <scstep>
   <time name="dav">    4.62    4.62</time>
   <time name="total">    4.62    4.63</time>
   <energy>
    <i name="e_fr_energy">   -176.33599877 </i>
    <i name="e_wo_entrp">   -176.30455125 </i>
    <i name="e_0_energy">   -176.32027501 </i>
   </energy>
  </scstep>
  <scstep>
   <time name="dav">    6.01    6.01</time>
   <time name="total">    6.01    6.02</time>
   <energy>
    <i name="e_fr_energy">   -230.57412526 </i>
    <i name="e_wo_entrp">   -230.51415549 </i>
    <i name="e_0_energy">   -230.54414037 </i>
   </energy>
  </scstep>
  <scstep>
   <time name="dav">    7.19    7.19</time>
   <time name="total">    7.55    7.57</time>
   <energy>
    <i name="e_fr_energy">   -233.69854506 </i>
    <i name="e_wo_entrp">   -233.63843096 </i>
    <i name="e_0_energy">   -233.66848801 </i>
   </energy>
  </scstep>
  <scstep>
   <time name="dav">    6.69    6.69</time>
   <time name="total">    7.25    7.27</time>
   <energy>
    <i name="e_fr_energy">   -219.15000181 </i>
    <i name="e_wo_entrp">   -219.10100032 </i>
    <i name="e_0_energy">   -219.12550107 </i>
   </energy>
  </scstep>
  <scstep>
   <time name="dav">    6.10    6.10</time>
   <time name="total">    6.66    6.68</time>
   <energy>
    <i name="e_fr_energy">   -187.03780948 </i>
    <i name="e_wo_entrp">   -187.00170777 </i>
    <i name="e_0_energy">   -187.01975863 </i>
   </energy>
  </scstep>
  <scstep>
   <time name="dav">    6.41    6.41</time>
   <time name="total">    6.97    6.99</time>
   <energy>
    <i name="e_fr_energy">   -186.29746577 </i>
    <i name="e_wo_entrp">   -186.26145291 </i>
    <i name="e_0_energy">   -186.27945934 </i>
   </energy>
  </scstep>
  <scstep>
   <time name="dav">    6.70    6.71</time>
   <time name="total">    7.26    7.28</time>
   <energy>
    <i name="e_fr_energy">   -192.01740140 </i>
    <i name="e_wo_entrp">   -191.99938784 </i>
    <i name="e_0_energy">   -192.00839462 </i>
   </energy>
  </scstep>
  <scstep>
   <time name="dav">    6.54    6.55</time>
   <time name="total">    7.11    7.12</time>
   <energy>
    <i name="e_fr_energy">   -181.66635864 </i>
    <i name="e_wo_entrp">   -181.64411684 </i>
    <i name="e_0_energy">   -181.65523774 </i>
   </energy>
  </scstep>
  <scstep>
   <time name="dav">    6.70    6.70</time>
   <time name="total">    7.26    7.28</time>
   <energy>
    <i name="e_fr_energy">   -181.19583514 </i>
    <i name="e_wo_entrp">   -181.17055475 </i>
    <i name="e_0_energy">   -181.18319494 </i>
   </energy>
  </scstep>
  <scstep>
   <time name="dav">    6.42    6.42</time>
   <time name="total">    6.98    7.00</time>
   <energy>
    <i name="e_fr_energy">   -180.87802420 </i>
    <i name="e_wo_entrp">   -180.86016175 </i>
    <i name="e_0_energy">   -180.86909298 </i>
   </energy>
  </scstep>
  <scstep>
   <time name="dav">    6.26    6.26</time>
   <time name="total">    6.82    6.84</time>
   <energy>
    <i name="e_fr_energy">   -181.11303426 </i>
    <i name="e_wo_entrp">   -181.09394730 </i>
    <i name="e_0_energy">   -181.10349078 </i>
   </energy>
  </scstep>
  <scstep>
   <time name="dav">    6.62    6.62</time>
   <time name="total">    7.18    7.20</time>
   <energy>
    <i name="e_fr_energy">   -181.25182049 </i>
    <i name="e_wo_entrp">   -181.23273012 </i>
    <i name="e_0_energy">   -181.24227531 </i>
   </energy>
  </scstep>
  <scstep>
   <time name="dav">    6.14    6.14</time>
   <time name="total">    6.70    6.72</time>
   <energy>
    <i name="e_fr_energy">   -181.84300510 </i>
    <i name="e_wo_entrp">   -181.82653393 </i>
    <i name="e_0_energy">   -181.83476952 </i>
   </energy>
  </scstep>
  <scstep>
   <time name="dav">    6.53    6.54</time>
   <time name="total">    7.09    7.11</time>
   <energy>
    <i name="e_fr_energy">   -182.08402875 </i>
    <i name="e_wo_entrp">   -182.06340673 </i>
    <i name="e_0_energy">   -182.07371774 </i>
   </energy>
  </scstep>
  <scstep>
   <time name="dav">    6.13    6.13</time>
   <time name="total">    6.69    6.71</time>
   <energy>
    <i name="e_fr_energy">   -182.11081296 </i>
    <i name="e_wo_entrp">   -182.09085382 </i>
    <i name="e_0_energy">   -182.10083339 </i>
   </energy>
  </scstep>
  <scstep>
   <time name="dav">    6.24    6.24</time>
   <time name="total">    6.80    6.82</time>
   <energy>
    <i name="e_fr_energy">   -182.15214189 </i>
    <i name="e_wo_entrp">   -182.13459868 </i>
    <i name="e_0_energy">   -182.14337028 </i>
   </energy>
  </scstep>
  <scstep>
   <time name="dav">    6.46    6.46</time>
   <time name="total">    7.02    7.04</time>
   <energy>
    <i name="e_fr_energy">   -182.15793234 </i>
    <i name="e_wo_entrp">   -182.14058274 </i>
    <i name="e_0_energy">   -182.14925754 </i>
   </energy>
  </scstep>
  <scstep>
   <time name="dav">    6.56    6.56</time>
   <time name="total">    7.12    7.14</time>
   <energy>
    <i name="e_fr_energy">   -182.15778810 </i>
    <i name="e_wo_entrp">   -182.13946619 </i>
    <i name="e_0_energy">   -182.14862715 </i>
   </energy>
  </scstep>
  <scstep>
   <time name="dav">    6.67    6.68</time>
   <time name="total">    7.24    7.25</time>
   <energy>
    <i name="e_fr_energy">   -182.15863475 </i>
    <i name="e_wo_entrp">   -182.14036764 </i>
    <i name="e_0_energy">   -182.14950119 </i>
   </energy>
  </scstep>
  <scstep>
   <time name="dav">    6.54    6.55</time>
   <time name="total">    7.11    7.13</time>
   <energy>
    <i name="e_fr_energy">   -182.15858329 </i>
    <i name="e_wo_entrp">   -182.14041558 </i>
    <i name="e_0_energy">   -182.14949944 </i>
   </energy>
  </scstep>
  <scstep>
   <time name="dav">    6.40    6.40</time>
   <time name="total">    6.96    6.98</time>
   <energy>
    <i name="e_fr_energy">   -182.15860127 </i>
    <i name="e_wo_entrp">   -182.14028262 </i>
    <i name="e_0_energy">   -182.14944195 </i>
   </energy>
  </scstep>
  <scstep>
   <time name="dav">    6.37    6.38</time>
   <time name="total">    6.94    6.95</time>
   <energy>
    <i name="e_fr_energy">   -182.15855253 </i>
    <i name="e_wo_entrp">   -182.14008530 </i>
    <i name="e_0_energy">   -182.14931892 </i>
   </energy>
  </scstep>
  <scstep>
   <time name="dav">    6.42    6.42</time>
   <time name="total">    6.98    7.00</time>
   <energy>
    <i name="e_fr_energy">   -182.15856000 </i>
    <i name="e_wo_entrp">   -182.14010236 </i>
    <i name="e_0_energy">   -182.14933118 </i>
   </energy>
  </scstep>
  <scstep>
   <time name="dav">    5.59    5.59</time>
   <time name="total">    6.15    6.17</time>
   <energy>
    <i name="e_fr_energy">   -182.15856106 </i>
    <i name="e_wo_entrp">   -182.14011745 </i>
    <i name="e_0_energy">   -182.14933926 </i>
   </energy>
  </scstep>
  <scstep>
   <time name="dav">    4.69    4.70</time>
   <time name="total">    4.90    4.91</time>
   <energy>
    <i name="alphaZ">   1346.99094900 </i>
    <i name="ewald"> -19209.35422943 </i>
    <i name="hartreedc">  -7586.88411279 </i>
    <i name="XCdc">   1198.14689752 </i>
    <i name="pawpsdc">  34138.44805748 </i>
    <i name="pawaedc"> -34891.99612243 </i>
    <i name="eentropy">     -0.01842503 </i>
    <i name="bandstr">  -1696.99526327 </i>
    <i name="atom">  26519.50368762 </i>
    <i name="e_fr_energy">   -182.15856133 </i>
    <i name="e_wo_entrp">   -182.14013629 </i>
    <i name="e_0_energy">   -182.14934881 </i>
   </energy>
  </scstep>
  <structure>
   <crystal>
    <varray name="basis" >
     <v>       8.00000000       0.00000000       0.00000000 </v>
     <v>       0.00000000      16.00000000       0.00000000 </v>
     <v>       0.00000000       0.00000000       4.00000000 </v>
    </varray>
    <i name="volume">    512.00000000 </i>
    <varray name="rec_basis" >
     <v>       0.12500000       0.00000000       0.00000000 </v>
     <v>       0.00000000       0.06250000       0.00000000 </v>
     <v>       0.00000000       0.00000000       0.25000000 </v>
    </varray>
   </crystal>
   <varray name="positions" >
    <v>       0.25000000       0.25000000       0.00000000 </v>
    <v>       0.75000000       0.50000000       0.00000000 </v>
    <v>       0.75000000       0.25000000       0.00000000 </v>
    <v>       0.25000000       0.50000000       0.00000000 </v>
    <v>       0.75000000       0.75000000       0.00000000 </v>
    <v>       0.25000000       0.00000000       0.00000000 </v>
    <v>       0.25000000       0.75000000       0.00000000 </v>
    <v>       0.75000000       0.00000000       0.00000000 </v>
    <v>       0.00000000       0.62500000       0.50000000 </v>
    <v>       0.00000000       0.37500000       0.50000000 </v>
    <v>       0.50000000       0.62500000       0.50000000 </v>
    <v>       0.50000000       0.37500000       0.50000000 </v>
    <v>       0.50000000       0.12500000       0.50000000 </v>
    <v>       0.50000000       0.87500000       0.50000000 </v>
    <v>       0.00000000       0.12500000       0.50000000 </v>
    <v>       0.00000000       0.87500000       0.50000000 </v>
    <v>       0.50000000       0.25000000       0.50000000 </v>
    <v>       0.00000000       0.50000000       0.50000000 </v>
    <v>       0.00000000       0.25000000       0.50000000 </v>
    <v>       0.50000000       0.50000000       0.50000000 </v>
    <v>       0.50000000       0.62500000       0.00000000 </v>
    <v>       0.50000000       0.37500000       0.00000000 </v>
    <v>       0.75000000       0.62500000       0.50000000 </v>
    <v>       0.75000000       0.37500000       0.50000000 </v>
    <v>       0.25000000       0.62500000       0.50000000 </v>
    <v>       0.25000000       0.37500000       0.50000000 </v>
    <v>       0.00000000       0.75000000       0.50000000 </v>
    <v>       0.50000000       0.00000000       0.50000000 </v>
    <v>       0.50000000       0.75000000       0.50000000 </v>
    <v>       0.00000000       0.00000000       0.50000000 </v>
    <v>       0.00000000       0.12500000       0.00000000 </v>
    <v>       0.00000000       0.87500000       0.00000000 </v>
    <v>       0.25000000       0.12500000       0.50000000 </v>
    <v>       0.25000000       0.87500000       0.50000000 </v>
    <v>       0.75000000       0.12500000       0.50000000 </v>
    <v>       0.75000000       0.87500000       0.50000000 </v>
   </varray>
  </structure>
  <varray name="forces" >
   <v>       0.00000000       0.00000000       0.00000000 </v>
   <v>      -1.22436305       0.00000000       0.00000000 </v>
   <v>       0.00000000       0.00000000       0.00000000 </v>
   <v>       1.22436305       0.00000000       0.00000000 </v>
   <v>       0.00000000       0.00000000       0.00000000 </v>
   <v>      -1.22436305       0.00000000       0.00000000 </v>
   <v>       0.00000000       0.00000000       0.00000000 </v>
   <v>       1.22436305       0.00000000       0.00000000 </v>
   <v>       0.00000000       0.24270902       0.00000000 </v>
   <v>       0.00000000      -0.24270902       0.00000000 </v>
   <v>       0.00000000      -0.23391459       0.00000000 </v>
   <v>       0.00000000       0.23391459       0.00000000 </v>
   <v>       0.00000000       0.24270902       0.00000000 </v>
   <v>       0.00000000      -0.24270902       0.00000000 </v>
   <v>       0.00000000      -0.23391459       0.00000000 </v>
   <v>       0.00000000       0.23391459       0.00000000 </v>
   <v>       0.00000000      -1.34301070       0.00000000 </v>
   <v>       0.00000000       0.00000000       0.00000000 </v>
   <v>       0.00000000       1.34301070       0.00000000 </v>
   <v>       0.00000000       0.00000000       0.00000000 </v>
   <v>       0.00000000      -0.03927546       0.00000000 </v>
   <v>       0.00000000       0.03927546       0.00000000 </v>
   <v>       1.29737262       0.00027276       0.00000000 </v>
   <v>       1.29737262      -0.00027276       0.00000000 </v>
   <v>      -1.29737262       0.00027276       0.00000000 </v>
   <v>      -1.29737262      -0.00027276       0.00000000 </v>
   <v>       0.00000000      -1.34301070       0.00000000 </v>
   <v>       0.00000000       0.00000000       0.00000000 </v>
   <v>       0.00000000       1.34301070       0.00000000 </v>
   <v>       0.00000000       0.00000000       0.00000000 </v>
   <v>       0.00000000      -0.03927546       0.00000000 </v>
   <v>       0.00000000       0.03927546       0.00000000 </v>
   <v>       1.29737262       0.00027276       0.00000000 </v>
   <v>       1.29737262      -0.00027276       0.00000000 </v>
   <v>      -1.29737262       0.00027276       0.00000000 </v>
   <v>      -1.29737262      -0.00027276       0.00000000 </v>
  </varray>
  <varray name="stress" >
   <v>     -86.78834543       0.00000000       0.00000000 </v>
   <v>       0.00000000     -97.87625757       0.00000000 </v>
   <v>       0.00000000       0.00000000    -116.52855606 </v>
  </varray>
  <energy>
   <i name="e_fr_energy">   -182.15856133 </i>
   <i name="e_wo_entrp">   -182.14934881 </i>
   <i name="e_0_energy">     -0.01842503 </i>
  </energy>
  <time name="totalsc">  187.30  187.77</time>
  <eigenvalues>
   <array>
    <dimension dim="1">band</dimension>
    <dimension dim="2">kpoint</dimension>
    <dimension dim="3">spin</dimension>
    <field>eigene</field>
    <field>occ</field>
    <set>
     <set comment="spin 1">
      <set comment="kpoint 1">
       <r>  -30.7399    1.0000 </r>
       <r>  -30.7388    1.0000 </r>
       <r>  -30.7257    1.0000 </r>
       <r>  -30.7247    1.0000 </r>
       <r>  -30.6944    1.0000 </r>
       <r>  -30.6932    1.0000 </r>
       <r>  -30.6804    1.0000 </r>
       <r>  -30.6794    1.0000 </r>
       <r>  -14.9983    1.0000 </r>
       <r>  -14.9078    1.0000 </r>
       <r>  -14.8980    1.0000 </r>
       <r>  -14.7982    1.0000 </r>
       <r>  -14.6004    1.0000 </r>
       <r>  -14.5882    1.0000 </r>
       <r>  -14.4630    1.0000 </r>
       <r>  -14.3715    1.0000 </r>
       <r>  -14.2815    1.0000 </r>
       <r>  -14.1125    1.0000 </r>
       <r>  -14.1078    1.0000 </r>
       <r>  -14.0183    1.0000 </r>
       <r>  -13.9303    1.0000 </r>
       <r>  -13.9043    1.0000 </r>
       <r>  -13.9016    1.0000 </r>
       <r>  -13.7677    1.0000 </r>
       <r>  -13.7129    1.0000 </r>
       <r>  -13.6649    1.0000 </r>
       <r>  -13.6631    1.0000 </r>
       <r>  -13.6283    1.0000 </r>
       <r>  -12.7508    1.0000 </r>
       <r>  -12.7284    1.0000 </r>
       <r>  -12.7194    1.0000 </r>
       <r>  -12.7083    1.0000 </r>
       <r>  -12.7022    1.0000 </r>
       <r>  -12.6021    1.0000 </r>
       <r>  -12.6005    1.0000 </r>
       <r>  -12.5936    1.0000 </r>
       <r>  -12.5623    1.0000 </r>
       <r>  -12.5554    1.0000 </r>
       <r>  -12.5519    1.0000 </r>
       <r>  -12.5501    1.0000 </r>
       <r>  -12.5431    1.0000 </r>
       <r>  -12.5122    1.0000 </r>
       <r>  -12.5059    1.0000 </r>
       <r>  -12.5051    1.0000 </r>
       <r>  -12.4855    1.0000 </r>
       <r>  -12.4474    1.0000 </r>
       <r>  -12.4319    1.0000 </r>
       <r>  -12.3971    1.0000 </r>
       <r>  -12.3942    1.0000 </r>
       <r>  -12.3317    1.0000 </r>
       <r>  -12.2165    1.0000 </r>
       <r>  -12.1871    1.0000 </r>
       <r>   -3.2753    1.0000 </r>
       <r>   -3.0742    1.0000 </r>
       <r>   -2.9963    1.0000 </r>
       <r>   -2.9369    1.0000 </r>
       <r>   -2.7645    1.0000 </r>
       <r>   -2.6928    1.0000 </r>
       <r>   -2.4380    1.0000 </r>
       <r>   -2.1474    1.0000 </r>
       <r>   -2.1272    1.0000 </r>
       <r>   -2.1166    1.0000 </r>
       <r>   -2.1013    1.0000 </r>
       <r>   -2.0740    1.0000 </r>
       <r>   -2.0587    1.0000 </r>
       <r>   -1.7351    1.0000 </r>
       <r>   -1.6790    1.0000 </r>
       <r>   -1.6529    1.0000 </r>
       <r>   -1.6086    1.0000 </r>
       <r>   -1.6052    1.0000 </r>
       <r>   -1.6043    1.0000 </r>
       <r>   -1.5621    1.0000 </r>
       <r>   -1.5605    1.0000 </r>
       <r>   -1.5395    1.0000 </r>
       <r>   -1.4770    1.0000 </r>
       <r>   -1.4292    1.0000 </r>
       <r>   -1.3625    1.0000 </r>
       <r>   -1.3178    1.0000 </r>
       <r>   -1.2861    1.0000 </r>
       <r>   -1.1465    1.0000 </r>
       <r>   -1.0076    1.0000 </r>
       <r>   -0.9970    1.0000 </r>
       <r>   -0.9798    1.0000 </r>
       <r>   -0.9771    1.0000 </r>
       <r>   -0.9748    1.0000 </r>
       <r>   -0.9644    1.0000 </r>
       <r>   -0.9587    1.0000 </r>
       <r>   -0.9583    1.0000 </r>
       <r>   -0.9471    1.0000 </r>
       <r>   -0.8543    1.0000 </r>
       <r>   -0.8031    1.0000 </r>
       <r>   -0.8008    1.0000 </r>
       <r>   -0.7789    1.0000 </r>
       <r>   -0.7422    1.0000 </r>
       <r>   -0.7410    1.0000 </r>
       <r>   -0.7241    1.0000 </r>
       <r>   -0.6989    1.0000 </r>
       <r>   -0.6980    1.0000 </r>
       <r>   -0.6793    1.0000 </r>
       <r>   -0.6443    1.0000 </r>
       <r>   -0.1794    1.0000 </r>
       <r>   -0.0819    1.0000 </r>
       <r>   -0.0111    1.0000 </r>
       <r>   -0.0085    1.0000 </r>
       <r>    0.1278    1.0000 </r>
       <r>    0.3877    1.0000 </r>
       <r>    0.4295    1.0000 </r>
       <r>    0.4494    1.0000 </r>
       <r>    0.4986    1.0000 </r>
       <r>    0.6434    1.0000 </r>
       <r>    0.6452    1.0000 </r>
       <r>    0.6929    1.0000 </r>
       <r>    0.7253    1.0000 </r>
       <r>    0.7544    1.0000 </r>
       <r>    0.7919    1.0000 </r>
       <r>    0.9253    1.0000 </r>
       <r>    1.0923    1.0000 </r>
       <r>    1.1900    1.0000 </r>
       <r>    1.2626    1.0000 </r>
       <r>    1.2755    1.0000 </r>
       <r>    1.2790    1.0000 </r>
       <r>    1.2817    1.0000 </r>
       <r>    1.3203    1.0000 </r>
       <r>    1.3356    1.0000 </r>
       <r>    1.3763    1.0000 </r>
       <r>    1.3801    1.0000 </r>
       <r>    1.4183    1.0000 </r>
       <r>    1.4359    1.0000 </r>
       <r>    1.5007    1.0000 </r>
       <r>    1.5328    1.0000 </r>
       <r>    1.5639    1.0000 </r>
       <r>    1.6509    1.0000 </r>
       <r>    1.6518    1.0000 </r>
       <r>    1.6637    1.0000 </r>
       <r>    1.7039    1.0000 </r>
       <r>    1.7225    1.0000 </r>
       <r>    1.7391    1.0000 </r>
       <r>    1.7516    1.0000 </r>
       <r>    1.7536    1.0000 </r>
       <r>    1.8202    1.0000 </r>
       <r>    1.8203    1.0000 </r>
       <r>    1.8303    1.0000 </r>
       <r>    1.8523    1.0000 </r>
       <r>    1.8600    1.0000 </r>
       <r>    1.9048    1.0000 </r>
       <r>    2.0758    1.0000 </r>
       <r>    2.0952    1.0000 </r>
       <r>    2.1458    1.0000 </r>
       <r>    2.4010    0.1436 </r>
       <r>    3.2388    0.0000 </r>
       <r>    3.3150    0.0000 </r>
       <r>    4.1851    0.0000 </r>
       <r>    4.8953    0.0000 </r>
       <r>    5.7780    0.0000 </r>
       <r>    5.7801    0.0000 </r>
       <r>    6.9248    0.0000 </r>
       <r>    7.4701    0.0000 </r>
       <r>    7.7193    0.0000 </r>
       <r>    7.7348    0.0000 </r>
       <r>    7.9488    0.0000 </r>
       <r>    7.9789    0.0000 </r>
       <r>    8.0157    0.0000 </r>
       <r>    8.2851    0.0000 </r>
       <r>    8.7222    0.0000 </r>
       <r>    8.7490    0.0000 </r>
       <r>    8.9252    0.0000 </r>
       <r>    9.4301    0.0000 </r>
       <r>    9.5351    0.0000 </r>
       <r>    9.5867    0.0000 </r>
       <r>    9.5943    0.0000 </r>
       <r>    9.6849    0.0000 </r>
       <r>    9.9946    0.0000 </r>
       <r>   10.0460    0.0000 </r>
       <r>   10.0465    0.0000 </r>
       <r>   10.0496    0.0000 </r>
       <r>   10.1281    0.0000 </r>
       <r>   10.1396    0.0000 </r>
       <r>   10.1480    0.0000 </r>
       <r>   10.1721    0.0000 </r>
       <r>   10.1793    0.0000 </r>
       <r>   10.2118    0.0000 </r>
       <r>   10.2173    0.0000 </r>
       <r>   10.2252    0.0000 </r>
       <r>   10.2600    0.0000 </r>
       <r>   10.3365    0.0000 </r>
       <r>   10.3369    0.0000 </r>
       <r>   10.4092    0.0000 </r>
       <r>   10.4386    0.0000 </r>
       <r>   10.7861    0.0000 </r>
       <r>   10.8299    0.0000 </r>
       <r>   10.8927    0.0000 </r>
       <r>   10.9907    0.0000 </r>
      </set>
      <set comment="kpoint 2">
       <r>  -30.7364    1.0000 </r>
       <r>  -30.7353    1.0000 </r>
       <r>  -30.7293    1.0000 </r>
       <r>  -30.7282    1.0000 </r>
       <r>  -30.6909    1.0000 </r>
       <r>  -30.6898    1.0000 </r>
       <r>  -30.6839    1.0000 </r>
       <r>  -30.6828    1.0000 </r>
       <r>  -14.9619    1.0000 </r>
       <r>  -14.9151    1.0000 </r>
       <r>  -14.8490    1.0000 </r>
       <r>  -14.7949    1.0000 </r>
       <r>  -14.5803    1.0000 </r>
       <r>  -14.5723    1.0000 </r>
       <r>  -14.4436    1.0000 </r>
       <r>  -14.3726    1.0000 </r>
       <r>  -14.2952    1.0000 </r>
       <r>  -14.1316    1.0000 </r>
       <r>  -14.0878    1.0000 </r>
       <r>  -14.0844    1.0000 </r>
       <r>  -14.0029    1.0000 </r>
       <r>  -13.9540    1.0000 </r>
       <r>  -13.8808    1.0000 </r>
       <r>  -13.7690    1.0000 </r>
       <r>  -13.7469    1.0000 </r>
       <r>  -13.6926    1.0000 </r>
       <r>  -13.6792    1.0000 </r>
       <r>  -13.6580    1.0000 </r>
       <r>  -12.7136    1.0000 </r>
       <r>  -12.7049    1.0000 </r>
       <r>  -12.6438    1.0000 </r>
       <r>  -12.6314    1.0000 </r>
       <r>  -12.6180    1.0000 </r>
       <r>  -12.5910    1.0000 </r>
       <r>  -12.5842    1.0000 </r>
       <r>  -12.5719    1.0000 </r>
       <r>  -12.5650    1.0000 </r>
       <r>  -12.5598    1.0000 </r>
       <r>  -12.5564    1.0000 </r>
       <r>  -12.5407    1.0000 </r>
       <r>  -12.5336    1.0000 </r>
       <r>  -12.5217    1.0000 </r>
       <r>  -12.5175    1.0000 </r>
       <r>  -12.5147    1.0000 </r>
       <r>  -12.4916    1.0000 </r>
       <r>  -12.4601    1.0000 </r>
       <r>  -12.4600    1.0000 </r>
       <r>  -12.4526    1.0000 </r>
       <r>  -12.3909    1.0000 </r>
       <r>  -12.3070    1.0000 </r>
       <r>  -12.2759    1.0000 </r>
       <r>  -12.2333    1.0000 </r>
       <r>   -3.0444    1.0000 </r>
       <r>   -2.9232    1.0000 </r>
       <r>   -2.6658    1.0000 </r>
       <r>   -2.6343    1.0000 </r>
       <r>   -2.6161    1.0000 </r>
       <r>   -2.5631    1.0000 </r>
       <r>   -2.2632    1.0000 </r>
       <r>   -2.1790    1.0000 </r>
       <r>   -2.1671    1.0000 </r>
       <r>   -2.1576    1.0000 </r>
       <r>   -2.1338    1.0000 </r>
       <r>   -1.9261    1.0000 </r>
       <r>   -1.8818    1.0000 </r>
       <r>   -1.7884    1.0000 </r>
       <r>   -1.7541    1.0000 </r>
       <r>   -1.7399    1.0000 </r>
       <r>   -1.7165    1.0000 </r>
       <r>   -1.6988    1.0000 </r>
       <r>   -1.6881    1.0000 </r>
       <r>   -1.6178    1.0000 </r>
       <r>   -1.5859    1.0000 </r>
       <r>   -1.5612    1.0000 </r>
       <r>   -1.5514    1.0000 </r>
       <r>   -1.5471    1.0000 </r>
       <r>   -1.5236    1.0000 </r>
       <r>   -1.5174    1.0000 </r>
       <r>   -1.4908    1.0000 </r>
       <r>   -1.4702    1.0000 </r>
       <r>   -1.3886    1.0000 </r>
       <r>   -1.3175    1.0000 </r>
       <r>   -1.3064    1.0000 </r>
       <r>   -1.3045    1.0000 </r>
       <r>   -1.1925    1.0000 </r>
       <r>   -1.1756    1.0000 </r>
       <r>   -1.1542    1.0000 </r>
       <r>   -1.1359    1.0000 </r>
       <r>   -0.9615    1.0000 </r>
       <r>   -0.9424    1.0000 </r>
       <r>   -0.8833    1.0000 </r>
       <r>   -0.8080    1.0000 </r>
       <r>   -0.7935    1.0000 </r>
       <r>   -0.7608    1.0000 </r>
       <r>   -0.6676    1.0000 </r>
       <r>   -0.6406    1.0000 </r>
       <r>   -0.6052    1.0000 </r>
       <r>   -0.5843    1.0000 </r>
       <r>   -0.5717    1.0000 </r>
       <r>   -0.5600    1.0000 </r>
       <r>    0.0360    1.0000 </r>
       <r>    0.1048    1.0000 </r>
       <r>    0.3353    1.0000 </r>
       <r>    0.3639    1.0000 </r>
       <r>    0.3906    1.0000 </r>
       <r>    0.4840    1.0000 </r>
       <r>    0.5635    1.0000 </r>
       <r>    0.5680    1.0000 </r>
       <r>    0.7069    1.0000 </r>
       <r>    0.7117    1.0000 </r>
       <r>    0.7306    1.0000 </r>
       <r>    0.7532    1.0000 </r>
       <r>    0.8168    1.0000 </r>
       <r>    0.8783    1.0000 </r>
       <r>    0.9162    1.0000 </r>
       <r>    0.9537    1.0000 </r>
       <r>    0.9572    1.0000 </r>
       <r>    1.0842    1.0000 </r>
       <r>    1.0942    1.0000 </r>
       <r>    1.1168    1.0000 </r>
       <r>    1.1242    1.0000 </r>
       <r>    1.1888    1.0000 </r>
       <r>    1.2475    1.0000 </r>
       <r>    1.2880    1.0000 </r>
       <r>    1.3967    1.0000 </r>
       <r>    1.3967    1.0000 </r>
       <r>    1.4505    1.0000 </r>
       <r>    1.4555    1.0000 </r>
       <r>    1.4630    1.0000 </r>
       <r>    1.4637    1.0000 </r>
       <r>    1.4769    1.0000 </r>
       <r>    1.5759    1.0000 </r>
       <r>    1.5942    1.0000 </r>
       <r>    1.6147    1.0000 </r>
       <r>    1.6426    1.0000 </r>
       <r>    1.6481    1.0000 </r>
       <r>    1.6949    1.0000 </r>
       <r>    1.7041    1.0000 </r>
       <r>    1.8222    1.0000 </r>
       <r>    1.8515    1.0000 </r>
       <r>    1.8598    1.0000 </r>
       <r>    1.8605    1.0000 </r>
       <r>    1.8658    1.0000 </r>
       <r>    1.8941    1.0000 </r>
       <r>    1.9060    1.0000 </r>
       <r>    2.2182    1.0000 </r>
       <r>    2.4988    0.0001 </r>
       <r>    2.5829    0.0000 </r>
       <r>    2.6072    0.0000 </r>
       <r>    3.0934    0.0000 </r>
       <r>    3.2065    0.0000 </r>
       <r>    3.7899    0.0000 </r>
       <r>    5.2726    0.0000 </r>
       <r>    5.7490    0.0000 </r>
       <r>    6.0117    0.0000 </r>
       <r>    6.5670    0.0000 </r>
       <r>    7.5220    0.0000 </r>
       <r>    7.6114    0.0000 </r>
       <r>    7.9454    0.0000 </r>
       <r>    8.1953    0.0000 </r>
       <r>    8.3218    0.0000 </r>
       <r>    8.3485    0.0000 </r>
       <r>    8.5611    0.0000 </r>
       <r>    8.7409    0.0000 </r>
       <r>    8.9194    0.0000 </r>
       <r>    8.9928    0.0000 </r>
       <r>    9.1241    0.0000 </r>
       <r>    9.1868    0.0000 </r>
       <r>    9.2793    0.0000 </r>
       <r>    9.4196    0.0000 </r>
       <r>    9.6294    0.0000 </r>
       <r>    9.6680    0.0000 </r>
       <r>    9.7788    0.0000 </r>
       <r>    9.7936    0.0000 </r>
       <r>    9.8464    0.0000 </r>
       <r>    9.8968    0.0000 </r>
       <r>   10.1270    0.0000 </r>
       <r>   10.1291    0.0000 </r>
       <r>   10.1529    0.0000 </r>
       <r>   10.1651    0.0000 </r>
       <r>   10.2023    0.0000 </r>
       <r>   10.3004    0.0000 </r>
       <r>   10.3027    0.0000 </r>
       <r>   10.3030    0.0000 </r>
       <r>   10.4345    0.0000 </r>
       <r>   10.4916    0.0000 </r>
       <r>   10.5441    0.0000 </r>
       <r>   10.5803    0.0000 </r>
       <r>   10.6208    0.0000 </r>
       <r>   10.6255    0.0000 </r>
       <r>   10.6289    0.0000 </r>
       <r>   10.8151    0.0000 </r>
      </set>
      <set comment="kpoint 3">
       <r>  -30.7350    1.0000 </r>
       <r>  -30.7339    1.0000 </r>
       <r>  -30.7212    1.0000 </r>
       <r>  -30.7203    1.0000 </r>
       <r>  -30.6895    1.0000 </r>
       <r>  -30.6885    1.0000 </r>
       <r>  -30.6760    1.0000 </r>
       <r>  -30.6750    1.0000 </r>
       <r>  -14.9099    1.0000 </r>
       <r>  -14.8863    1.0000 </r>
       <r>  -14.7668    1.0000 </r>
       <r>  -14.7482    1.0000 </r>
       <r>  -14.6044    1.0000 </r>
       <r>  -14.5455    1.0000 </r>
       <r>  -14.3530    1.0000 </r>
       <r>  -14.2628    1.0000 </r>
       <r>  -14.1679    1.0000 </r>
       <r>  -14.1438    1.0000 </r>
       <r>  -14.0990    1.0000 </r>
       <r>  -14.0978    1.0000 </r>
       <r>  -14.0403    1.0000 </r>
       <r>  -13.9931    1.0000 </r>
       <r>  -13.9407    1.0000 </r>
       <r>  -13.7908    1.0000 </r>
       <r>  -13.7486    1.0000 </r>
       <r>  -13.7032    1.0000 </r>
       <r>  -13.7024    1.0000 </r>
       <r>  -13.6586    1.0000 </r>
       <r>  -12.7596    1.0000 </r>
       <r>  -12.7407    1.0000 </r>
       <r>  -12.7076    1.0000 </r>
       <r>  -12.7067    1.0000 </r>
       <r>  -12.7053    1.0000 </r>
       <r>  -12.6971    1.0000 </r>
       <r>  -12.6784    1.0000 </r>
       <r>  -12.6093    1.0000 </r>
       <r>  -12.6079    1.0000 </r>
       <r>  -12.6063    1.0000 </r>
       <r>  -12.5874    1.0000 </r>
       <r>  -12.5637    1.0000 </r>
       <r>  -12.5422    1.0000 </r>
       <r>  -12.5262    1.0000 </r>
       <r>  -12.4662    1.0000 </r>
       <r>  -12.4565    1.0000 </r>
       <r>  -12.4357    1.0000 </r>
       <r>  -12.4286    1.0000 </r>
       <r>  -12.4050    1.0000 </r>
       <r>  -12.3965    1.0000 </r>
       <r>  -12.3834    1.0000 </r>
       <r>  -12.3820    1.0000 </r>
       <r>  -12.2789    1.0000 </r>
       <r>  -12.2708    1.0000 </r>
       <r>   -3.2596    1.0000 </r>
       <r>   -3.0600    1.0000 </r>
       <r>   -2.9853    1.0000 </r>
       <r>   -2.9367    1.0000 </r>
       <r>   -2.7819    1.0000 </r>
       <r>   -2.7033    1.0000 </r>
       <r>   -2.3069    1.0000 </r>
       <r>   -2.1569    1.0000 </r>
       <r>   -2.1456    1.0000 </r>
       <r>   -2.1228    1.0000 </r>
       <r>   -2.1161    1.0000 </r>
       <r>   -2.0401    1.0000 </r>
       <r>   -2.0285    1.0000 </r>
       <r>   -1.9965    1.0000 </r>
       <r>   -1.9765    1.0000 </r>
       <r>   -1.9447    1.0000 </r>
       <r>   -1.9330    1.0000 </r>
       <r>   -1.8835    1.0000 </r>
       <r>   -1.8623    1.0000 </r>
       <r>   -1.8427    1.0000 </r>
       <r>   -1.7926    1.0000 </r>
       <r>   -1.7902    1.0000 </r>
       <r>   -1.7827    1.0000 </r>
       <r>   -1.6699    1.0000 </r>
       <r>   -1.6386    1.0000 </r>
       <r>   -1.6359    1.0000 </r>
       <r>   -1.5931    1.0000 </r>
       <r>   -1.4533    1.0000 </r>
       <r>   -1.3929    1.0000 </r>
       <r>   -1.3204    1.0000 </r>
       <r>   -1.3078    1.0000 </r>
       <r>   -1.1407    1.0000 </r>
       <r>   -1.0239    1.0000 </r>
       <r>   -1.0214    1.0000 </r>
       <r>   -1.0141    1.0000 </r>
       <r>   -1.0121    1.0000 </r>
       <r>   -0.9869    1.0000 </r>
       <r>   -0.9738    1.0000 </r>
       <r>   -0.9531    1.0000 </r>
       <r>   -0.9415    1.0000 </r>
       <r>   -0.6702    1.0000 </r>
       <r>   -0.6611    1.0000 </r>
       <r>   -0.6508    1.0000 </r>
       <r>   -0.6222    1.0000 </r>
       <r>   -0.6075    1.0000 </r>
       <r>   -0.5582    1.0000 </r>
       <r>   -0.5395    1.0000 </r>
       <r>   -0.5204    1.0000 </r>
       <r>    0.0079    1.0000 </r>
       <r>    0.2718    1.0000 </r>
       <r>    0.3159    1.0000 </r>
       <r>    0.3639    1.0000 </r>
       <r>    0.3648    1.0000 </r>
       <r>    0.5665    1.0000 </r>
       <r>    0.5858    1.0000 </r>
       <r>    0.5972    1.0000 </r>
       <r>    0.6868    1.0000 </r>
       <r>    0.7816    1.0000 </r>
       <r>    0.8132    1.0000 </r>
       <r>    0.8239    1.0000 </r>
       <r>    0.8242    1.0000 </r>
       <r>    0.8870    1.0000 </r>
       <r>    0.9006    1.0000 </r>
       <r>    0.9700    1.0000 </r>
       <r>    1.0041    1.0000 </r>
       <r>    1.0977    1.0000 </r>
       <r>    1.1013    1.0000 </r>
       <r>    1.1757    1.0000 </r>
       <r>    1.1772    1.0000 </r>
       <r>    1.2245    1.0000 </r>
       <r>    1.2285    1.0000 </r>
       <r>    1.2588    1.0000 </r>
       <r>    1.2857    1.0000 </r>
       <r>    1.2935    1.0000 </r>
       <r>    1.3729    1.0000 </r>
       <r>    1.4498    1.0000 </r>
       <r>    1.4691    1.0000 </r>
       <r>    1.6072    1.0000 </r>
       <r>    1.6195    1.0000 </r>
       <r>    1.6259    1.0000 </r>
       <r>    1.6539    1.0000 </r>
       <r>    1.6751    1.0000 </r>
       <r>    1.6976    1.0000 </r>
       <r>    1.6982    1.0000 </r>
       <r>    1.7305    1.0000 </r>
       <r>    1.7902    1.0000 </r>
       <r>    1.8115    1.0000 </r>
       <r>    1.8573    1.0000 </r>
       <r>    1.8780    1.0000 </r>
       <r>    1.9620    1.0000 </r>
       <r>    1.9721    1.0000 </r>
       <r>    2.1172    1.0000 </r>
       <r>    2.1175    1.0000 </r>
       <r>    2.4289    0.0319 </r>
       <r>    2.5173    0.0000 </r>
       <r>    2.6907    0.0000 </r>
       <r>    2.8354    0.0000 </r>
       <r>    3.2564    0.0000 </r>
       <r>    3.3905    0.0000 </r>
       <r>    4.1879    0.0000 </r>
       <r>    5.3901    0.0000 </r>
       <r>    5.7616    0.0000 </r>
       <r>    6.0448    0.0000 </r>
       <r>    6.5471    0.0000 </r>
       <r>    7.8635    0.0000 </r>
       <r>    8.1127    0.0000 </r>
       <r>    8.2354    0.0000 </r>
       <r>    8.2944    0.0000 </r>
       <r>    8.4190    0.0000 </r>
       <r>    8.4827    0.0000 </r>
       <r>    8.5151    0.0000 </r>
       <r>    8.9317    0.0000 </r>
       <r>    9.1338    0.0000 </r>
       <r>    9.1561    0.0000 </r>
       <r>    9.2956    0.0000 </r>
       <r>    9.3899    0.0000 </r>
       <r>    9.4288    0.0000 </r>
       <r>    9.5012    0.0000 </r>
       <r>    9.7325    0.0000 </r>
       <r>   10.0884    0.0000 </r>
       <r>   10.1162    0.0000 </r>
       <r>   10.1166    0.0000 </r>
       <r>   10.1303    0.0000 </r>
       <r>   10.1356    0.0000 </r>
       <r>   10.1753    0.0000 </r>
       <r>   10.1944    0.0000 </r>
       <r>   10.2032    0.0000 </r>
       <r>   10.3704    0.0000 </r>
       <r>   10.4008    0.0000 </r>
       <r>   10.4416    0.0000 </r>
       <r>   10.4811    0.0000 </r>
       <r>   10.5412    0.0000 </r>
       <r>   10.5560    0.0000 </r>
       <r>   10.6245    0.0000 </r>
       <r>   10.6419    0.0000 </r>
       <r>   10.6942    0.0000 </r>
       <r>   10.7154    0.0000 </r>
       <r>   10.7263    0.0000 </r>
       <r>   10.7339    0.0000 </r>
       <r>   10.8413    0.0000 </r>
      </set>
      <set comment="kpoint 4">
       <r>  -30.7316    1.0000 </r>
       <r>  -30.7305    1.0000 </r>
       <r>  -30.7247    1.0000 </r>
       <r>  -30.7237    1.0000 </r>
       <r>  -30.6861    1.0000 </r>
       <r>  -30.6851    1.0000 </r>
       <r>  -30.6794    1.0000 </r>
       <r>  -30.6784    1.0000 </r>
       <r>  -14.8775    1.0000 </r>
       <r>  -14.8625    1.0000 </r>
       <r>  -14.7324    1.0000 </r>
       <r>  -14.7178    1.0000 </r>
       <r>  -14.6149    1.0000 </r>
       <r>  -14.5840    1.0000 </r>
       <r>  -14.3822    1.0000 </r>
       <r>  -14.3013    1.0000 </r>
       <r>  -14.2321    1.0000 </r>
       <r>  -14.1736    1.0000 </r>
       <r>  -14.0365    1.0000 </r>
       <r>  -14.0177    1.0000 </r>
       <r>  -14.0018    1.0000 </r>
       <r>  -13.9321    1.0000 </r>
       <r>  -13.9167    1.0000 </r>
       <r>  -13.8523    1.0000 </r>
       <r>  -13.7936    1.0000 </r>
       <r>  -13.7452    1.0000 </r>
       <r>  -13.7389    1.0000 </r>
       <r>  -13.7223    1.0000 </r>
       <r>  -12.7623    1.0000 </r>
       <r>  -12.7391    1.0000 </r>
       <r>  -12.7310    1.0000 </r>
       <r>  -12.7233    1.0000 </r>
       <r>  -12.7096    1.0000 </r>
       <r>  -12.6922    1.0000 </r>
       <r>  -12.6754    1.0000 </r>
       <r>  -12.6366    1.0000 </r>
       <r>  -12.6251    1.0000 </r>
       <r>  -12.5705    1.0000 </r>
       <r>  -12.5676    1.0000 </r>
       <r>  -12.5618    1.0000 </r>
       <r>  -12.5515    1.0000 </r>
       <r>  -12.4683    1.0000 </r>
       <r>  -12.4501    1.0000 </r>
       <r>  -12.4427    1.0000 </r>
       <r>  -12.4423    1.0000 </r>
       <r>  -12.4178    1.0000 </r>
       <r>  -12.4141    1.0000 </r>
       <r>  -12.3894    1.0000 </r>
       <r>  -12.3560    1.0000 </r>
       <r>  -12.3501    1.0000 </r>
       <r>  -12.3069    1.0000 </r>
       <r>  -12.2947    1.0000 </r>
       <r>   -3.0321    1.0000 </r>
       <r>   -2.9239    1.0000 </r>
       <r>   -2.6516    1.0000 </r>
       <r>   -2.6359    1.0000 </r>
       <r>   -2.6078    1.0000 </r>
       <r>   -2.5695    1.0000 </r>
       <r>   -2.1933    1.0000 </r>
       <r>   -2.1925    1.0000 </r>
       <r>   -2.1839    1.0000 </r>
       <r>   -2.1694    1.0000 </r>
       <r>   -2.1518    1.0000 </r>
       <r>   -2.0122    1.0000 </r>
       <r>   -1.9817    1.0000 </r>
       <r>   -1.9608    1.0000 </r>
       <r>   -1.9574    1.0000 </r>
       <r>   -1.9475    1.0000 </r>
       <r>   -1.8785    1.0000 </r>
       <r>   -1.8450    1.0000 </r>
       <r>   -1.8365    1.0000 </r>
       <r>   -1.8124    1.0000 </r>
       <r>   -1.8092    1.0000 </r>
       <r>   -1.7961    1.0000 </r>
       <r>   -1.7613    1.0000 </r>
       <r>   -1.7403    1.0000 </r>
       <r>   -1.6740    1.0000 </r>
       <r>   -1.6694    1.0000 </r>
       <r>   -1.6553    1.0000 </r>
       <r>   -1.6539    1.0000 </r>
       <r>   -1.6050    1.0000 </r>
       <r>   -1.5237    1.0000 </r>
       <r>   -1.4716    1.0000 </r>
       <r>   -1.4067    1.0000 </r>
       <r>   -1.3626    1.0000 </r>
       <r>   -1.3191    1.0000 </r>
       <r>   -1.3064    1.0000 </r>
       <r>   -1.3048    1.0000 </r>
       <r>   -1.0915    1.0000 </r>
       <r>   -1.0869    1.0000 </r>
       <r>   -1.0824    1.0000 </r>
       <r>   -1.0783    1.0000 </r>
       <r>   -0.9674    1.0000 </r>
       <r>   -0.9644    1.0000 </r>
       <r>   -0.8010    1.0000 </r>
       <r>   -0.6500    1.0000 </r>
       <r>   -0.5768    1.0000 </r>
       <r>   -0.5394    1.0000 </r>
       <r>   -0.4691    1.0000 </r>
       <r>   -0.4455    1.0000 </r>
       <r>    0.2618    1.0000 </r>
       <r>    0.2650    1.0000 </r>
       <r>    0.4586    1.0000 </r>
       <r>    0.5563    1.0000 </r>
       <r>    0.6482    1.0000 </r>
       <r>    0.6958    1.0000 </r>
       <r>    0.7016    1.0000 </r>
       <r>    0.7572    1.0000 </r>
       <r>    0.8033    1.0000 </r>
       <r>    0.8308    1.0000 </r>
       <r>    0.9046    1.0000 </r>
       <r>    0.9201    1.0000 </r>
       <r>    0.9555    1.0000 </r>
       <r>    0.9901    1.0000 </r>
       <r>    1.0231    1.0000 </r>
       <r>    1.0237    1.0000 </r>
       <r>    1.0260    1.0000 </r>
       <r>    1.0646    1.0000 </r>
       <r>    1.0782    1.0000 </r>
       <r>    1.0930    1.0000 </r>
       <r>    1.1540    1.0000 </r>
       <r>    1.1796    1.0000 </r>
       <r>    1.1844    1.0000 </r>
       <r>    1.2903    1.0000 </r>
       <r>    1.3623    1.0000 </r>
       <r>    1.3704    1.0000 </r>
       <r>    1.3995    1.0000 </r>
       <r>    1.4437    1.0000 </r>
       <r>    1.4736    1.0000 </r>
       <r>    1.5277    1.0000 </r>
       <r>    1.5635    1.0000 </r>
       <r>    1.5986    1.0000 </r>
       <r>    1.6687    1.0000 </r>
       <r>    1.6862    1.0000 </r>
       <r>    1.6890    1.0000 </r>
       <r>    1.7738    1.0000 </r>
       <r>    1.7806    1.0000 </r>
       <r>    1.8108    1.0000 </r>
       <r>    1.8818    1.0000 </r>
       <r>    1.8990    1.0000 </r>
       <r>    1.9664    1.0000 </r>
       <r>    2.1232    1.0000 </r>
       <r>    2.1642    1.0000 </r>
       <r>    2.2299    0.9999 </r>
       <r>    2.2612    0.9981 </r>
       <r>    2.2913    0.9793 </r>
       <r>    2.6354    0.0000 </r>
       <r>    2.8093    0.0000 </r>
       <r>    2.8158    0.0000 </r>
       <r>    3.0976    0.0000 </r>
       <r>    3.2603    0.0000 </r>
       <r>    3.7863    0.0000 </r>
       <r>    5.5536    0.0000 </r>
       <r>    5.8947    0.0000 </r>
       <r>    5.8979    0.0000 </r>
       <r>    6.2740    0.0000 </r>
       <r>    7.9902    0.0000 </r>
       <r>    8.0310    0.0000 </r>
       <r>    8.3722    0.0000 </r>
       <r>    8.5386    0.0000 </r>
       <r>    8.5512    0.0000 </r>
       <r>    8.7026    0.0000 </r>
       <r>    8.8169    0.0000 </r>
       <r>    8.9478    0.0000 </r>
       <r>    9.0701    0.0000 </r>
       <r>    9.1576    0.0000 </r>
       <r>    9.1878    0.0000 </r>
       <r>    9.1947    0.0000 </r>
       <r>    9.4966    0.0000 </r>
       <r>    9.5093    0.0000 </r>
       <r>    9.5374    0.0000 </r>
       <r>    9.6187    0.0000 </r>
       <r>    9.6569    0.0000 </r>
       <r>    9.7977    0.0000 </r>
       <r>    9.8817    0.0000 </r>
       <r>   10.0760    0.0000 </r>
       <r>   10.1121    0.0000 </r>
       <r>   10.1679    0.0000 </r>
       <r>   10.1773    0.0000 </r>
       <r>   10.2262    0.0000 </r>
       <r>   10.2510    0.0000 </r>
       <r>   10.3545    0.0000 </r>
       <r>   10.3586    0.0000 </r>
       <r>   10.3914    0.0000 </r>
       <r>   10.5218    0.0000 </r>
       <r>   10.6305    0.0000 </r>
       <r>   10.6430    0.0000 </r>
       <r>   10.6900    0.0000 </r>
       <r>   10.8048    0.0000 </r>
       <r>   10.8546    0.0000 </r>
       <r>   10.9400    0.0000 </r>
       <r>   11.0051    0.0000 </r>
      </set>
      <set comment="kpoint 5">
       <r>  -30.7270    1.0000 </r>
       <r>  -30.7260    1.0000 </r>
       <r>  -30.7140    1.0000 </r>
       <r>  -30.7132    1.0000 </r>
       <r>  -30.6816    1.0000 </r>
       <r>  -30.6807    1.0000 </r>
       <r>  -30.6689    1.0000 </r>
       <r>  -30.6680    1.0000 </r>
       <r>  -15.0143    1.0000 </r>
       <r>  -14.8213    1.0000 </r>
       <r>  -14.7663    1.0000 </r>
       <r>  -14.4004    1.0000 </r>
       <r>  -14.3678    1.0000 </r>
       <r>  -14.3418    1.0000 </r>
       <r>  -14.2568    1.0000 </r>
       <r>  -14.2312    1.0000 </r>
       <r>  -14.1243    1.0000 </r>
       <r>  -14.0966    1.0000 </r>
       <r>  -14.0908    1.0000 </r>
       <r>  -14.0568    1.0000 </r>
       <r>  -14.0241    1.0000 </r>
       <r>  -14.0138    1.0000 </r>
       <r>  -13.9400    1.0000 </r>
       <r>  -13.9237    1.0000 </r>
       <r>  -13.9230    1.0000 </r>
       <r>  -13.7763    1.0000 </r>
       <r>  -13.7291    1.0000 </r>
       <r>  -13.6423    1.0000 </r>
       <r>  -12.8996    1.0000 </r>
       <r>  -12.8797    1.0000 </r>
       <r>  -12.8331    1.0000 </r>
       <r>  -12.8130    1.0000 </r>
       <r>  -12.8046    1.0000 </r>
       <r>  -12.7746    1.0000 </r>
       <r>  -12.7474    1.0000 </r>
       <r>  -12.7260    1.0000 </r>
       <r>  -12.7049    1.0000 </r>
       <r>  -12.6878    1.0000 </r>
       <r>  -12.6859    1.0000 </r>
       <r>  -12.6666    1.0000 </r>
       <r>  -12.6320    1.0000 </r>
       <r>  -12.5845    1.0000 </r>
       <r>  -12.5422    1.0000 </r>
       <r>  -12.4686    1.0000 </r>
       <r>  -12.4488    1.0000 </r>
       <r>  -12.3818    1.0000 </r>
       <r>  -12.3550    1.0000 </r>
       <r>  -12.3118    1.0000 </r>
       <r>  -12.2841    1.0000 </r>
       <r>  -12.2640    1.0000 </r>
       <r>  -12.2161    1.0000 </r>
       <r>  -12.1514    1.0000 </r>
       <r>   -3.3190    1.0000 </r>
       <r>   -3.0698    1.0000 </r>
       <r>   -2.9992    1.0000 </r>
       <r>   -2.9991    1.0000 </r>
       <r>   -2.9398    1.0000 </r>
       <r>   -2.8868    1.0000 </r>
       <r>   -2.8731    1.0000 </r>
       <r>   -2.8433    1.0000 </r>
       <r>   -2.6586    1.0000 </r>
       <r>   -2.6026    1.0000 </r>
       <r>   -2.2968    1.0000 </r>
       <r>   -2.1883    1.0000 </r>
       <r>   -2.1777    1.0000 </r>
       <r>   -2.1437    1.0000 </r>
       <r>   -2.1179    1.0000 </r>
       <r>   -2.0914    1.0000 </r>
       <r>   -2.0820    1.0000 </r>
       <r>   -2.0682    1.0000 </r>
       <r>   -2.0584    1.0000 </r>
       <r>   -2.0171    1.0000 </r>
       <r>   -1.9975    1.0000 </r>
       <r>   -1.9641    1.0000 </r>
       <r>   -1.9205    1.0000 </r>
       <r>   -1.9043    1.0000 </r>
       <r>   -1.8576    1.0000 </r>
       <r>   -1.6910    1.0000 </r>
       <r>   -1.6458    1.0000 </r>
       <r>   -1.5023    1.0000 </r>
       <r>   -1.4501    1.0000 </r>
       <r>   -1.4256    1.0000 </r>
       <r>   -1.3844    1.0000 </r>
       <r>   -1.1319    1.0000 </r>
       <r>   -1.0787    1.0000 </r>
       <r>   -1.0762    1.0000 </r>
       <r>   -1.0552    1.0000 </r>
       <r>   -1.0473    1.0000 </r>
       <r>   -1.0439    1.0000 </r>
       <r>   -1.0051    1.0000 </r>
       <r>   -0.9837    1.0000 </r>
       <r>   -0.9777    1.0000 </r>
       <r>   -0.5682    1.0000 </r>
       <r>   -0.5633    1.0000 </r>
       <r>   -0.5272    1.0000 </r>
       <r>   -0.4755    1.0000 </r>
       <r>   -0.4020    1.0000 </r>
       <r>   -0.3332    1.0000 </r>
       <r>   -0.3307    1.0000 </r>
       <r>   -0.3199    1.0000 </r>
       <r>   -0.2025    1.0000 </r>
       <r>    0.0153    1.0000 </r>
       <r>    0.0775    1.0000 </r>
       <r>    0.2268    1.0000 </r>
       <r>    0.5955    1.0000 </r>
       <r>    0.6286    1.0000 </r>
       <r>    0.7150    1.0000 </r>
       <r>    0.7525    1.0000 </r>
       <r>    0.7873    1.0000 </r>
       <r>    0.8080    1.0000 </r>
       <r>    0.8362    1.0000 </r>
       <r>    0.8990    1.0000 </r>
       <r>    0.9383    1.0000 </r>
       <r>    0.9927    1.0000 </r>
       <r>    1.0240    1.0000 </r>
       <r>    1.0242    1.0000 </r>
       <r>    1.0577    1.0000 </r>
       <r>    1.0785    1.0000 </r>
       <r>    1.1366    1.0000 </r>
       <r>    1.1621    1.0000 </r>
       <r>    1.1653    1.0000 </r>
       <r>    1.1729    1.0000 </r>
       <r>    1.1747    1.0000 </r>
       <r>    1.2104    1.0000 </r>
       <r>    1.2916    1.0000 </r>
       <r>    1.3197    1.0000 </r>
       <r>    1.4347    1.0000 </r>
       <r>    1.4522    1.0000 </r>
       <r>    1.5002    1.0000 </r>
       <r>    1.5321    1.0000 </r>
       <r>    1.5567    1.0000 </r>
       <r>    1.5753    1.0000 </r>
       <r>    1.5888    1.0000 </r>
       <r>    1.6187    1.0000 </r>
       <r>    1.7206    1.0000 </r>
       <r>    1.7787    1.0000 </r>
       <r>    1.9520    1.0000 </r>
       <r>    1.9527    1.0000 </r>
       <r>    2.0204    1.0000 </r>
       <r>    2.1157    1.0000 </r>
       <r>    2.1205    1.0000 </r>
       <r>    2.1545    1.0000 </r>
       <r>    2.1552    1.0000 </r>
       <r>    2.2231    1.0000 </r>
       <r>    2.4751    0.0008 </r>
       <r>    2.5897    0.0000 </r>
       <r>    3.0515    0.0000 </r>
       <r>    3.3216    0.0000 </r>
       <r>    3.4155    0.0000 </r>
       <r>    3.5639    0.0000 </r>
       <r>    3.9815    0.0000 </r>
       <r>    4.1925    0.0000 </r>
       <r>    5.2635    0.0000 </r>
       <r>    5.7128    0.0000 </r>
       <r>    5.8944    0.0000 </r>
       <r>    6.3898    0.0000 </r>
       <r>    8.3812    0.0000 </r>
       <r>    8.7428    0.0000 </r>
       <r>    8.7851    0.0000 </r>
       <r>    8.7946    0.0000 </r>
       <r>    8.8777    0.0000 </r>
       <r>    8.9783    0.0000 </r>
       <r>    9.0524    0.0000 </r>
       <r>    9.1378    0.0000 </r>
       <r>    9.2104    0.0000 </r>
       <r>    9.2433    0.0000 </r>
       <r>    9.2678    0.0000 </r>
       <r>    9.4274    0.0000 </r>
       <r>    9.7304    0.0000 </r>
       <r>    9.7541    0.0000 </r>
       <r>    9.9274    0.0000 </r>
       <r>    9.9406    0.0000 </r>
       <r>    9.9475    0.0000 </r>
       <r>    9.9688    0.0000 </r>
       <r>   10.1189    0.0000 </r>
       <r>   10.2719    0.0000 </r>
       <r>   10.3066    0.0000 </r>
       <r>   10.3099    0.0000 </r>
       <r>   10.3269    0.0000 </r>
       <r>   10.4303    0.0000 </r>
       <r>   10.5355    0.0000 </r>
       <r>   10.5362    0.0000 </r>
       <r>   10.9195    0.0000 </r>
       <r>   11.2479    0.0000 </r>
       <r>   11.2749    0.0000 </r>
       <r>   11.2832    0.0000 </r>
       <r>   11.2877    0.0000 </r>
       <r>   11.3217    0.0000 </r>
       <r>   11.3421    0.0000 </r>
       <r>   11.3471    0.0000 </r>
       <r>   11.3653    0.0000 </r>
       <r>   11.4186    0.0000 </r>
      </set>
      <set comment="kpoint 6">
       <r>  -30.7237    1.0000 </r>
       <r>  -30.7228    1.0000 </r>
       <r>  -30.7173    1.0000 </r>
       <r>  -30.7164    1.0000 </r>
       <r>  -30.6785    1.0000 </r>
       <r>  -30.6775    1.0000 </r>
       <r>  -30.6721    1.0000 </r>
       <r>  -30.6712    1.0000 </r>
       <r>  -14.9134    1.0000 </r>
       <r>  -14.7302    1.0000 </r>
       <r>  -14.6754    1.0000 </r>
       <r>  -14.6474    1.0000 </r>
       <r>  -14.4951    1.0000 </r>
       <r>  -14.4511    1.0000 </r>
       <r>  -14.2615    1.0000 </r>
       <r>  -14.2430    1.0000 </r>
       <r>  -14.1460    1.0000 </r>
       <r>  -14.1182    1.0000 </r>
       <r>  -14.1169    1.0000 </r>
       <r>  -14.0378    1.0000 </r>
       <r>  -13.9499    1.0000 </r>
       <r>  -13.9102    1.0000 </r>
       <r>  -13.8938    1.0000 </r>
       <r>  -13.8628    1.0000 </r>
       <r>  -13.8474    1.0000 </r>
       <r>  -13.7981    1.0000 </r>
       <r>  -13.7567    1.0000 </r>
       <r>  -13.6948    1.0000 </r>
       <r>  -12.8817    1.0000 </r>
       <r>  -12.8663    1.0000 </r>
       <r>  -12.8454    1.0000 </r>
       <r>  -12.8215    1.0000 </r>
       <r>  -12.8100    1.0000 </r>
       <r>  -12.7829    1.0000 </r>
       <r>  -12.7618    1.0000 </r>
       <r>  -12.7354    1.0000 </r>
       <r>  -12.7222    1.0000 </r>
       <r>  -12.6934    1.0000 </r>
       <r>  -12.6579    1.0000 </r>
       <r>  -12.6399    1.0000 </r>
       <r>  -12.5935    1.0000 </r>
       <r>  -12.5193    1.0000 </r>
       <r>  -12.4982    1.0000 </r>
       <r>  -12.4414    1.0000 </r>
       <r>  -12.4157    1.0000 </r>
       <r>  -12.3925    1.0000 </r>
       <r>  -12.3876    1.0000 </r>
       <r>  -12.3716    1.0000 </r>
       <r>  -12.3146    1.0000 </r>
       <r>  -12.2734    1.0000 </r>
       <r>  -12.2589    1.0000 </r>
       <r>  -12.1918    1.0000 </r>
       <r>   -3.1497    1.0000 </r>
       <r>   -3.0709    1.0000 </r>
       <r>   -2.8716    1.0000 </r>
       <r>   -2.8716    1.0000 </r>
       <r>   -2.7741    1.0000 </r>
       <r>   -2.7435    1.0000 </r>
       <r>   -2.6220    1.0000 </r>
       <r>   -2.6218    1.0000 </r>
       <r>   -2.5741    1.0000 </r>
       <r>   -2.4992    1.0000 </r>
       <r>   -2.2597    1.0000 </r>
       <r>   -2.2182    1.0000 </r>
       <r>   -2.1458    1.0000 </r>
       <r>   -2.1268    1.0000 </r>
       <r>   -2.1088    1.0000 </r>
       <r>   -2.0948    1.0000 </r>
       <r>   -2.0869    1.0000 </r>
       <r>   -2.0400    1.0000 </r>
       <r>   -2.0243    1.0000 </r>
       <r>   -2.0163    1.0000 </r>
       <r>   -1.9986    1.0000 </r>
       <r>   -1.9162    1.0000 </r>
       <r>   -1.8783    1.0000 </r>
       <r>   -1.8561    1.0000 </r>
       <r>   -1.7846    1.0000 </r>
       <r>   -1.7226    1.0000 </r>
       <r>   -1.7162    1.0000 </r>
       <r>   -1.7153    1.0000 </r>
       <r>   -1.6456    1.0000 </r>
       <r>   -1.5713    1.0000 </r>
       <r>   -1.4457    1.0000 </r>
       <r>   -1.4148    1.0000 </r>
       <r>   -1.3889    1.0000 </r>
       <r>   -1.3752    1.0000 </r>
       <r>   -1.3566    1.0000 </r>
       <r>   -1.3528    1.0000 </r>
       <r>   -1.2078    1.0000 </r>
       <r>   -1.1922    1.0000 </r>
       <r>   -1.1522    1.0000 </r>
       <r>   -1.1520    1.0000 </r>
       <r>   -1.0264    1.0000 </r>
       <r>   -0.9935    1.0000 </r>
       <r>   -0.7485    1.0000 </r>
       <r>   -0.4993    1.0000 </r>
       <r>   -0.3728    1.0000 </r>
       <r>   -0.3406    1.0000 </r>
       <r>   -0.1824    1.0000 </r>
       <r>   -0.1569    1.0000 </r>
       <r>   -0.0886    1.0000 </r>
       <r>    0.1007    1.0000 </r>
       <r>    0.3888    1.0000 </r>
       <r>    0.4194    1.0000 </r>
       <r>    0.6714    1.0000 </r>
       <r>    0.6837    1.0000 </r>
       <r>    0.7762    1.0000 </r>
       <r>    0.8039    1.0000 </r>
       <r>    0.8547    1.0000 </r>
       <r>    0.8856    1.0000 </r>
       <r>    0.9785    1.0000 </r>
       <r>    1.0144    1.0000 </r>
       <r>    1.0205    1.0000 </r>
       <r>    1.0793    1.0000 </r>
       <r>    1.0834    1.0000 </r>
       <r>    1.0888    1.0000 </r>
       <r>    1.1082    1.0000 </r>
       <r>    1.1159    1.0000 </r>
       <r>    1.1294    1.0000 </r>
       <r>    1.1382    1.0000 </r>
       <r>    1.1703    1.0000 </r>
       <r>    1.1885    1.0000 </r>
       <r>    1.2021    1.0000 </r>
       <r>    1.2242    1.0000 </r>
       <r>    1.2816    1.0000 </r>
       <r>    1.3351    1.0000 </r>
       <r>    1.4373    1.0000 </r>
       <r>    1.5068    1.0000 </r>
       <r>    1.5685    1.0000 </r>
       <r>    1.5858    1.0000 </r>
       <r>    1.6635    1.0000 </r>
       <r>    1.6804    1.0000 </r>
       <r>    1.7031    1.0000 </r>
       <r>    1.7035    1.0000 </r>
       <r>    1.7096    1.0000 </r>
       <r>    1.9647    1.0000 </r>
       <r>    1.9648    1.0000 </r>
       <r>    1.9685    1.0000 </r>
       <r>    1.9854    1.0000 </r>
       <r>    2.1326    1.0000 </r>
       <r>    2.1605    1.0000 </r>
       <r>    2.2415    0.9997 </r>
       <r>    2.2718    0.9952 </r>
       <r>    2.3301    0.8263 </r>
       <r>    2.3556    0.5865 </r>
       <r>    2.9297    0.0000 </r>
       <r>    3.0029    0.0000 </r>
       <r>    3.1068    0.0000 </r>
       <r>    3.3416    0.0000 </r>
       <r>    3.4007    0.0000 </r>
       <r>    3.8051    0.0000 </r>
       <r>    3.8206    0.0000 </r>
       <r>    5.4767    0.0000 </r>
       <r>    5.7936    0.0000 </r>
       <r>    5.8470    0.0000 </r>
       <r>    6.1800    0.0000 </r>
       <r>    8.4796    0.0000 </r>
       <r>    8.6372    0.0000 </r>
       <r>    8.8926    0.0000 </r>
       <r>    8.9449    0.0000 </r>
       <r>    8.9484    0.0000 </r>
       <r>    9.0327    0.0000 </r>
       <r>    9.0446    0.0000 </r>
       <r>    9.0471    0.0000 </r>
       <r>    9.2353    0.0000 </r>
       <r>    9.3441    0.0000 </r>
       <r>    9.4210    0.0000 </r>
       <r>    9.6638    0.0000 </r>
       <r>    9.6916    0.0000 </r>
       <r>    9.7125    0.0000 </r>
       <r>    9.8028    0.0000 </r>
       <r>    9.9503    0.0000 </r>
       <r>    9.9518    0.0000 </r>
       <r>   10.0276    0.0000 </r>
       <r>   10.0554    0.0000 </r>
       <r>   10.1742    0.0000 </r>
       <r>   10.1993    0.0000 </r>
       <r>   10.3801    0.0000 </r>
       <r>   10.4566    0.0000 </r>
       <r>   10.5532    0.0000 </r>
       <r>   10.5646    0.0000 </r>
       <r>   10.5737    0.0000 </r>
       <r>   10.7264    0.0000 </r>
       <r>   10.7405    0.0000 </r>
       <r>   10.8505    0.0000 </r>
       <r>   10.8507    0.0000 </r>
       <r>   10.9042    0.0000 </r>
       <r>   11.0179    0.0000 </r>
       <r>   11.1902    0.0000 </r>
       <r>   11.3385    0.0000 </r>
       <r>   11.3425    0.0000 </r>
       <r>   11.3806    0.0000 </r>
      </set>
     </set>
     <set comment="spin 2">
      <set comment="kpoint 1">
       <r>  -30.7419    1.0000 </r>
       <r>  -30.7407    1.0000 </r>
       <r>  -30.7277    1.0000 </r>
       <r>  -30.7267    1.0000 </r>
       <r>  -30.6963    1.0000 </r>
       <r>  -30.6951    1.0000 </r>
       <r>  -30.6823    1.0000 </r>
       <r>  -30.6813    1.0000 </r>
       <r>  -14.8357    1.0000 </r>
       <r>  -14.7470    1.0000 </r>
       <r>  -14.7388    1.0000 </r>
       <r>  -14.6489    1.0000 </r>
       <r>  -14.5307    1.0000 </r>
       <r>  -14.5255    1.0000 </r>
       <r>  -14.3793    1.0000 </r>
       <r>  -14.2933    1.0000 </r>
       <r>  -14.1817    1.0000 </r>
       <r>  -14.0005    1.0000 </r>
       <r>  -13.9951    1.0000 </r>
       <r>  -13.9079    1.0000 </r>
       <r>  -13.7964    1.0000 </r>
       <r>  -13.7856    1.0000 </r>
       <r>  -13.7651    1.0000 </r>
       <r>  -13.5356    1.0000 </r>
       <r>  -13.5248    1.0000 </r>
       <r>  -13.4456    1.0000 </r>
       <r>  -13.4239    1.0000 </r>
       <r>  -13.3942    1.0000 </r>
       <r>  -12.7523    1.0000 </r>
       <r>  -12.7297    1.0000 </r>
       <r>  -12.7221    1.0000 </r>
       <r>  -12.7093    1.0000 </r>
       <r>  -12.7009    1.0000 </r>
       <r>  -12.6028    1.0000 </r>
       <r>  -12.6023    1.0000 </r>
       <r>  -12.5955    1.0000 </r>
       <r>  -12.5645    1.0000 </r>
       <r>  -12.5576    1.0000 </r>
       <r>  -12.5522    1.0000 </r>
       <r>  -12.5452    1.0000 </r>
       <r>  -12.5261    1.0000 </r>
       <r>  -12.5145    1.0000 </r>
       <r>  -12.5075    1.0000 </r>
       <r>  -12.4829    1.0000 </r>
       <r>  -12.4578    1.0000 </r>
       <r>  -12.4200    1.0000 </r>
       <r>  -12.4144    1.0000 </r>
       <r>  -12.3705    1.0000 </r>
       <r>  -12.3652    1.0000 </r>
       <r>  -12.2978    1.0000 </r>
       <r>  -12.1820    1.0000 </r>
       <r>  -12.1511    1.0000 </r>
       <r>   -3.1362    1.0000 </r>
       <r>   -2.7946    1.0000 </r>
       <r>   -2.6858    1.0000 </r>
       <r>   -2.6683    1.0000 </r>
       <r>   -2.5712    1.0000 </r>
       <r>   -2.3973    1.0000 </r>
       <r>   -2.3721    1.0000 </r>
       <r>   -2.1124    1.0000 </r>
       <r>   -2.0617    1.0000 </r>
       <r>   -2.0338    1.0000 </r>
       <r>   -2.0006    1.0000 </r>
       <r>   -1.9925    1.0000 </r>
       <r>   -1.9881    1.0000 </r>
       <r>   -1.6153    1.0000 </r>
       <r>   -1.5543    1.0000 </r>
       <r>   -1.5404    1.0000 </r>
       <r>   -1.5059    1.0000 </r>
       <r>   -1.5032    1.0000 </r>
       <r>   -1.5024    1.0000 </r>
       <r>   -1.5019    1.0000 </r>
       <r>   -1.4537    1.0000 </r>
       <r>   -1.4227    1.0000 </r>
       <r>   -1.3611    1.0000 </r>
       <r>   -1.3542    1.0000 </r>
       <r>   -1.3355    1.0000 </r>
       <r>   -1.2972    1.0000 </r>
       <r>   -1.2490    1.0000 </r>
       <r>   -1.0901    1.0000 </r>
       <r>   -0.9530    1.0000 </r>
       <r>   -0.9390    1.0000 </r>
       <r>   -0.9385    1.0000 </r>
       <r>   -0.9350    1.0000 </r>
       <r>   -0.9274    1.0000 </r>
       <r>   -0.9262    1.0000 </r>
       <r>   -0.9184    1.0000 </r>
       <r>   -0.8329    1.0000 </r>
       <r>   -0.7761    1.0000 </r>
       <r>   -0.7183    1.0000 </r>
       <r>   -0.7178    1.0000 </r>
       <r>   -0.6767    1.0000 </r>
       <r>   -0.6693    1.0000 </r>
       <r>   -0.6622    1.0000 </r>
       <r>   -0.6554    1.0000 </r>
       <r>   -0.6318    1.0000 </r>
       <r>   -0.6203    1.0000 </r>
       <r>   -0.5797    1.0000 </r>
       <r>   -0.5766    1.0000 </r>
       <r>   -0.5195    1.0000 </r>
       <r>    0.2060    1.0000 </r>
       <r>    0.2281    1.0000 </r>
       <r>    0.4824    1.0000 </r>
       <r>    0.5004    1.0000 </r>
       <r>    0.5120    1.0000 </r>
       <r>    0.6159    1.0000 </r>
       <r>    0.6319    1.0000 </r>
       <r>    0.6761    1.0000 </r>
       <r>    0.6921    1.0000 </r>
       <r>    0.7277    1.0000 </r>
       <r>    0.7421    1.0000 </r>
[...]
       <r>     6.7400     0.3807   155.9333 </r>
       <r>     6.8946     0.0847   155.9464 </r>
       <r>     7.0493     0.3463   156.0000 </r>
       <r>     7.2039     0.0001   156.0000 </r>
       <r>     7.3586     0.0004   156.0001 </r>
       <r>     7.5132     0.7321   156.1133 </r>
       <r>     7.6679     1.4195   156.3328 </r>
       <r>     7.8225     0.9685   156.4826 </r>
       <r>     7.9772     2.7933   156.9146 </r>
       <r>     8.1318     4.2074   157.5653 </r>
       <r>     8.2865     2.6456   157.9744 </r>
       <r>     8.4411     5.8182   158.8742 </r>
       <r>     8.5958     7.4990   160.0339 </r>
       <r>     8.7504     5.3814   160.8662 </r>
       <r>     8.9051     7.3210   161.9984 </r>
       <r>     9.0597    13.4168   164.0733 </r>
       <r>     9.2144    12.4415   165.9974 </r>
       <r>     9.3691     7.8677   167.2141 </r>
       <r>     9.5237     9.4114   168.6696 </r>
       <r>     9.6784     9.9980   170.2158 </r>
       <r>     9.8330    11.6584   172.0188 </r>
       <r>     9.9877    10.1728   173.5920 </r>
       <r>    10.1423    16.4654   176.1384 </r>
       <r>    10.2970    21.5633   179.4732 </r>
       <r>    10.4516    16.2143   181.9808 </r>
       <r>    10.6063    16.5021   184.5329 </r>
       <r>    10.7609    14.6572   186.7996 </r>
       <r>    10.9156    12.3731   188.7131 </r>
       <r>    11.0702     6.4160   189.7054 </r>
       <r>    11.2249     1.9936   190.0137 </r>
       <r>    11.3795    10.1179   191.5784 </r>
       <r>    11.5342     2.7255   191.9999 </r>
       <r>    11.6888     0.0005   192.0000 </r>
       <r>    11.8435     0.0000   192.0000 </r>
       <r>    11.9981     0.0000   192.0000 </r>
       <r>    12.1528     0.0000   192.0000 </r>
       <r>    12.3074     0.0000   192.0000 </r>
       <r>    12.4621     0.0000   192.0000 </r>
       <r>    12.6167     0.0000   192.0000 </r>
       <r>    12.7714     0.0000   192.0000 </r>
       <r>    12.9260     0.0000   192.0000 </r>
       <r>    13.0807     0.0000   192.0000 </r>
       <r>    13.2353     0.0000   192.0000 </r>
       <r>    13.3900     0.0000   192.0000 </r>
       <r>    13.5446     0.0000   192.0000 </r>
      </set>
      <set comment="spin 2">
       <r>   -32.8507     0.0000     0.0000 </r>
       <r>   -32.6961     0.0000     0.0000 </r>
       <r>   -32.5414     0.0000     0.0000 </r>
       <r>   -32.3868     0.0000     0.0000 </r>
       <r>   -32.2321     0.0000     0.0000 </r>
       <r>   -32.0775     0.0000     0.0000 </r>
       <r>   -31.9228     0.0000     0.0000 </r>
       <r>   -31.7682     0.0000     0.0000 </r>
       <r>   -31.6135     0.0000     0.0000 </r>
       <r>   -31.4589     0.0000     0.0000 </r>
       <r>   -31.3042     0.0000     0.0000 </r>
       <r>   -31.1496     0.0000     0.0000 </r>
       <r>   -30.9949     0.0000     0.0000 </r>
       <r>   -30.8403     0.0225     0.0035 </r>
       <r>   -30.6856    34.5942     5.3535 </r>
       <r>   -30.5310    17.1123     7.9999 </r>
       <r>   -30.3763     0.0003     8.0000 </r>
       <r>   -30.2217     0.0000     8.0000 </r>
       <r>   -30.0670     0.0000     8.0000 </r>
       <r>   -29.9124     0.0000     8.0000 </r>
       <r>   -29.7577     0.0000     8.0000 </r>
       <r>   -29.6031     0.0000     8.0000 </r>
       <r>   -29.4484     0.0000     8.0000 </r>
       <r>   -29.2938     0.0000     8.0000 </r>
       <r>   -29.1391     0.0000     8.0000 </r>
       <r>   -28.9845     0.0000     8.0000 </r>
       <r>   -28.8298     0.0000     8.0000 </r>
       <r>   -28.6752     0.0000     8.0000 </r>
       <r>   -28.5205     0.0000     8.0000 </r>
       <r>   -28.3659     0.0000     8.0000 </r>
       <r>   -28.2112     0.0000     8.0000 </r>
       <r>   -28.0566     0.0000     8.0000 </r>
       <r>   -27.9019     0.0000     8.0000 </r>
       <r>   -27.7473     0.0000     8.0000 </r>
       <r>   -27.5926     0.0000     8.0000 </r>
       <r>   -27.4380     0.0000     8.0000 </r>
       <r>   -27.2833     0.0000     8.0000 </r>
       <r>   -27.1286     0.0000     8.0000 </r>
       <r>   -26.9740     0.0000     8.0000 </r>
       <r>   -26.8193     0.0000     8.0000 </r>
       <r>   -26.6647     0.0000     8.0000 </r>
       <r>   -26.5100     0.0000     8.0000 </r>
       <r>   -26.3554     0.0000     8.0000 </r>
       <r>   -26.2007     0.0000     8.0000 </r>
       <r>   -26.0461     0.0000     8.0000 </r>
       <r>   -25.8914     0.0000     8.0000 </r>
       <r>   -25.7368     0.0000     8.0000 </r>
       <r>   -25.5821     0.0000     8.0000 </r>
       <r>   -25.4275     0.0000     8.0000 </r>
       <r>   -25.2728     0.0000     8.0000 </r>
       <r>   -25.1182     0.0000     8.0000 </r>
       <r>   -24.9635     0.0000     8.0000 </r>
       <r>   -24.8089     0.0000     8.0000 </r>
       <r>   -24.6542     0.0000     8.0000 </r>
       <r>   -24.4996     0.0000     8.0000 </r>
       <r>   -24.3449     0.0000     8.0000 </r>
       <r>   -24.1903     0.0000     8.0000 </r>
       <r>   -24.0356     0.0000     8.0000 </r>
       <r>   -23.8810     0.0000     8.0000 </r>
       <r>   -23.7263     0.0000     8.0000 </r>
       <r>   -23.5717     0.0000     8.0000 </r>
       <r>   -23.4170     0.0000     8.0000 </r>
       <r>   -23.2624     0.0000     8.0000 </r>
       <r>   -23.1077     0.0000     8.0000 </r>
       <r>   -22.9531     0.0000     8.0000 </r>
       <r>   -22.7984     0.0000     8.0000 </r>
       <r>   -22.6438     0.0000     8.0000 </r>
       <r>   -22.4891     0.0000     8.0000 </r>
       <r>   -22.3345     0.0000     8.0000 </r>
       <r>   -22.1798     0.0000     8.0000 </r>
       <r>   -22.0252     0.0000     8.0000 </r>
       <r>   -21.8705     0.0000     8.0000 </r>
       <r>   -21.7159     0.0000     8.0000 </r>
       <r>   -21.5612     0.0000     8.0000 </r>
       <r>   -21.4066     0.0000     8.0000 </r>
       <r>   -21.2519     0.0000     8.0000 </r>
       <r>   -21.0972     0.0000     8.0000 </r>
       <r>   -20.9426     0.0000     8.0000 </r>
       <r>   -20.7879     0.0000     8.0000 </r>
       <r>   -20.6333     0.0000     8.0000 </r>
       <r>   -20.4786     0.0000     8.0000 </r>
       <r>   -20.3240     0.0000     8.0000 </r>
       <r>   -20.1693     0.0000     8.0000 </r>
       <r>   -20.0147     0.0000     8.0000 </r>
       <r>   -19.8600     0.0000     8.0000 </r>
       <r>   -19.7054     0.0000     8.0000 </r>
       <r>   -19.5507     0.0000     8.0000 </r>
       <r>   -19.3961     0.0000     8.0000 </r>
       <r>   -19.2414     0.0000     8.0000 </r>
       <r>   -19.0868     0.0000     8.0000 </r>
       <r>   -18.9321     0.0000     8.0000 </r>
       <r>   -18.7775     0.0000     8.0000 </r>
       <r>   -18.6228     0.0000     8.0000 </r>
       <r>   -18.4682     0.0000     8.0000 </r>
       <r>   -18.3135     0.0000     8.0000 </r>
       <r>   -18.1589     0.0000     8.0000 </r>
       <r>   -18.0042     0.0000     8.0000 </r>
       <r>   -17.8496     0.0000     8.0000 </r>
       <r>   -17.6949     0.0000     8.0000 </r>
       <r>   -17.5403     0.0000     8.0000 </r>
       <r>   -17.3856     0.0000     8.0000 </r>
       <r>   -17.2310     0.0000     8.0000 </r>
       <r>   -17.0763     0.0000     8.0000 </r>
       <r>   -16.9217     0.0000     8.0000 </r>
       <r>   -16.7670     0.0000     8.0000 </r>
       <r>   -16.6124     0.0000     8.0000 </r>
       <r>   -16.4577     0.0000     8.0000 </r>
       <r>   -16.3031     0.0000     8.0000 </r>
       <r>   -16.1484     0.0000     8.0000 </r>
       <r>   -15.9938     0.0000     8.0000 </r>
       <r>   -15.8391     0.0000     8.0000 </r>
       <r>   -15.6845     0.0000     8.0000 </r>
       <r>   -15.5298     0.0000     8.0000 </r>
       <r>   -15.3752     0.0000     8.0000 </r>
       <r>   -15.2205     0.0000     8.0000 </r>
       <r>   -15.0659     0.0000     8.0000 </r>
       <r>   -14.9112     0.5590     8.0865 </r>
       <r>   -14.7565     5.4034     8.9221 </r>
       <r>   -14.6019    12.8442    10.9085 </r>
       <r>   -14.4472    13.5576    13.0052 </r>
       <r>   -14.2926     6.7936    14.0558 </r>
       <r>   -14.1379    11.4888    15.8326 </r>
       <r>   -13.9833    14.0588    18.0068 </r>
       <r>   -13.8286    18.0427    20.7971 </r>
       <r>   -13.6740    20.2203    23.9242 </r>
       <r>   -13.5193    16.3044    26.4457 </r>
       <r>   -13.3647     9.8580    27.9702 </r>
       <r>   -13.2100     0.1925    28.0000 </r>
       <r>   -13.0554     0.0000    28.0000 </r>
       <r>   -12.9007     1.4453    28.2235 </r>
       <r>   -12.7461    21.6110    31.5657 </r>
       <r>   -12.5914    41.2454    37.9443 </r>
       <r>   -12.4368    38.0910    43.8352 </r>
       <r>   -12.2821    36.1175    49.4208 </r>
       <r>   -12.1275    15.8624    51.8739 </r>
       <r>   -11.9728     0.8153    52.0000 </r>
       <r>   -11.8182     0.0000    52.0000 </r>
       <r>   -11.6635     0.0000    52.0000 </r>
       <r>   -11.5089     0.0000    52.0000 </r>
       <r>   -11.3542     0.0000    52.0000 </r>
       <r>   -11.1996     0.0000    52.0000 </r>
       <r>   -11.0449     0.0000    52.0000 </r>
       <r>   -10.8903     0.0000    52.0000 </r>
       <r>   -10.7356     0.0000    52.0000 </r>
       <r>   -10.5810     0.0000    52.0000 </r>
       <r>   -10.4263     0.0000    52.0000 </r>
       <r>   -10.2717     0.0000    52.0000 </r>
       <r>   -10.1170     0.0000    52.0000 </r>
       <r>    -9.9624     0.0000    52.0000 </r>
       <r>    -9.8077     0.0000    52.0000 </r>
       <r>    -9.6531     0.0000    52.0000 </r>
       <r>    -9.4984     0.0000    52.0000 </r>
       <r>    -9.3438     0.0000    52.0000 </r>
       <r>    -9.1891     0.0000    52.0000 </r>
       <r>    -9.0345     0.0000    52.0000 </r>
       <r>    -8.8798     0.0000    52.0000 </r>
       <r>    -8.7251     0.0000    52.0000 </r>
       <r>    -8.5705     0.0000    52.0000 </r>
       <r>    -8.4158     0.0000    52.0000 </r>
       <r>    -8.2612     0.0000    52.0000 </r>
       <r>    -8.1065     0.0000    52.0000 </r>
       <r>    -7.9519     0.0000    52.0000 </r>
       <r>    -7.7972     0.0000    52.0000 </r>
       <r>    -7.6426     0.0000    52.0000 </r>
       <r>    -7.4879     0.0000    52.0000 </r>
       <r>    -7.3333     0.0000    52.0000 </r>
       <r>    -7.1786     0.0000    52.0000 </r>
       <r>    -7.0240     0.0000    52.0000 </r>
       <r>    -6.8693     0.0000    52.0000 </r>
       <r>    -6.7147     0.0000    52.0000 </r>
       <r>    -6.5600     0.0000    52.0000 </r>
       <r>    -6.4054     0.0000    52.0000 </r>
       <r>    -6.2507     0.0000    52.0000 </r>
       <r>    -6.0961     0.0000    52.0000 </r>
       <r>    -5.9414     0.0000    52.0000 </r>
       <r>    -5.7868     0.0000    52.0000 </r>
       <r>    -5.6321     0.0000    52.0000 </r>
       <r>    -5.4775     0.0000    52.0000 </r>
       <r>    -5.3228     0.0000    52.0000 </r>
       <r>    -5.1682     0.0000    52.0000 </r>
       <r>    -5.0135     0.0000    52.0000 </r>
       <r>    -4.8589     0.0000    52.0000 </r>
       <r>    -4.7042     0.0000    52.0000 </r>
       <r>    -4.5496     0.0000    52.0000 </r>
       <r>    -4.3949     0.0000    52.0000 </r>
       <r>    -4.2403     0.0000    52.0000 </r>
       <r>    -4.0856     0.0000    52.0000 </r>
       <r>    -3.9310     0.0000    52.0000 </r>
       <r>    -3.7763     0.0000    52.0000 </r>
       <r>    -3.6217     0.0000    52.0000 </r>
       <r>    -3.4670     0.0000    52.0000 </r>
       <r>    -3.3124     0.0068    52.0011 </r>
       <r>    -3.1577     1.2013    52.1868 </r>
       <r>    -3.0031     2.7165    52.6070 </r>
       <r>    -2.8484     5.5482    53.4650 </r>
       <r>    -2.6937     7.3660    54.6042 </r>
       <r>    -2.5391     7.6120    55.7814 </r>
       <r>    -2.3844     7.2422    56.9014 </r>
       <r>    -2.2298    10.2642    58.4888 </r>
       <r>    -2.0751    22.9579    62.0392 </r>
       <r>    -1.9205    28.3798    66.4282 </r>
       <r>    -1.7658    19.7833    69.4877 </r>
       <r>    -1.6112    31.4213    74.3471 </r>
       <r>    -1.4565    25.9364    78.3582 </r>
       <r>    -1.3019    27.1352    82.5547 </r>
       <r>    -1.1472    23.7605    86.2292 </r>
       <r>    -0.9926    22.9153    89.7731 </r>
       <r>    -0.8379    16.7712    92.3668 </r>
       <r>    -0.6833     7.7776    93.5696 </r>
       <r>    -0.5286    16.5922    96.1356 </r>
       <r>    -0.3740    14.6296    98.3981 </r>
       <r>    -0.2193     6.4360    99.3935 </r>
       <r>    -0.0647     5.1089   100.1835 </r>
       <r>     0.0900     1.5407   100.4218 </r>
       <r>     0.2446     3.6339   100.9838 </r>
       <r>     0.3993     8.4202   102.2860 </r>
       <r>     0.5539     4.8181   103.0311 </r>
       <r>     0.7086    11.5211   104.8129 </r>
       <r>     0.8632    20.6872   108.0122 </r>
       <r>     1.0179    21.3456   111.3133 </r>
       <r>     1.1725    26.3125   115.3826 </r>
       <r>     1.3272    40.4171   121.6331 </r>
       <r>     1.4818    20.4391   124.7941 </r>
       <r>     1.6365    23.9235   128.4939 </r>
       <r>     1.7911    26.5163   132.5946 </r>
       <r>     1.9458    23.0916   136.1658 </r>
       <r>     2.1004    21.9102   139.5542 </r>
       <r>     2.2551    12.3054   141.4573 </r>
       <r>     2.4097    10.3118   143.0520 </r>
       <r>     2.5644     8.3118   144.3374 </r>
       <r>     2.7190    10.9896   146.0370 </r>
       <r>     2.8737     4.2596   146.6957 </r>
       <r>     3.0283     3.1395   147.1813 </r>
       <r>     3.1830     5.1870   147.9834 </r>
       <r>     3.3377     4.5083   148.6806 </r>
       <r>     3.4923     3.4332   149.2116 </r>
       <r>     3.6470     3.3967   149.7369 </r>
       <r>     3.8016     4.2114   150.3882 </r>
       <r>     3.9563     3.2769   150.8950 </r>
       <r>     4.1109     3.7140   151.4694 </r>
       <r>     4.2656     0.6180   151.5649 </r>
       <r>     4.4202     2.3562   151.9293 </r>
       <r>     4.5749     0.4570   152.0000 </r>
       <r>     4.7295     0.0000   152.0000 </r>
       <r>     4.8842     0.0298   152.0046 </r>
       <r>     5.0388     0.4005   152.0665 </r>
       <r>     5.1935     0.0032   152.0670 </r>
       <r>     5.3481     1.5488   152.3066 </r>
       <r>     5.5028     1.7975   152.5845 </r>
       <r>     5.6574     2.6233   152.9902 </r>
       <r>     5.8121     3.2044   153.4858 </r>
       <r>     5.9667     7.5145   154.6479 </r>
       <r>     6.1214     2.0680   154.9677 </r>
       <r>     6.2760     2.3629   155.3332 </r>
       <r>     6.4307     1.8411   155.6179 </r>
       <r>     6.5853     1.0933   155.7870 </r>
       <r>     6.7400     0.9462   155.9333 </r>
       <r>     6.8946     0.0090   155.9347 </r>
       <r>     7.0493     0.4179   155.9994 </r>
       <r>     7.2039     0.0042   156.0000 </r>
       <r>     7.3586     0.0001   156.0000 </r>
       <r>     7.5132     0.5731   156.0886 </r>
       <r>     7.6679     1.5479   156.3280 </r>
       <r>     7.8225     0.9428   156.4738 </r>
       <r>     7.9772     2.4887   156.8587 </r>
       <r>     8.1318     4.3889   157.5375 </r>
       <r>     8.2865     2.6306   157.9443 </r>
       <r>     8.4411     5.4275   158.7837 </r>
       <r>     8.5958     7.7161   159.9770 </r>
       <r>     8.7504     4.9728   160.7460 </r>
       <r>     8.9051     6.9541   161.8215 </r>
       <r>     9.0597    13.0942   163.8465 </r>
       <r>     9.2144    12.4777   165.7762 </r>
       <r>     9.3691     8.6311   167.1110 </r>
       <r>     9.5237     9.2372   168.5396 </r>
       <r>     9.6784     9.0810   169.9439 </r>
       <r>     9.8330    12.0492   171.8074 </r>
       <r>     9.9877     9.9592   173.3476 </r>
       <r>    10.1423    15.1818   175.6955 </r>
       <r>    10.2970    22.6514   179.1985 </r>
       <r>    10.4516    16.0386   181.6789 </r>
       <r>    10.6063    16.9133   184.2946 </r>
       <r>    10.7609    14.9910   186.6130 </r>
       <r>    10.9156    12.4456   188.5377 </r>
       <r>    11.0702     7.3652   189.6767 </r>
       <r>    11.2249     1.7525   189.9477 </r>
       <r>    11.3795    10.0136   191.4964 </r>
       <r>    11.5342     3.2543   191.9996 </r>
       <r>    11.6888     0.0023   192.0000 </r>
       <r>    11.8435     0.0000   192.0000 </r>
       <r>    11.9981     0.0000   192.0000 </r>
       <r>    12.1528     0.0000   192.0000 </r>
       <r>    12.3074     0.0000   192.0000 </r>
       <r>    12.4621     0.0000   192.0000 </r>
       <r>    12.6167     0.0000   192.0000 </r>
       <r>    12.7714     0.0000   192.0000 </r>
       <r>    12.9260     0.0000   192.0000 </r>
       <r>    13.0807     0.0000   192.0000 </r>
       <r>    13.2353     0.0000   192.0000 </r>
       <r>    13.3900     0.0000   192.0000 </r>
       <r>    13.5446     0.0000   192.0000 </r>
      </set>
     </set>
    </array>
   </total>
  </dos>
 </calculation>
 <structure name="finalpos" >
  <crystal>
   <varray name="basis" >
    <v>       8.00000000       0.00000000       0.00000000 </v>
    <v>       0.00000000      16.00000000       0.00000000 </v>
    <v>       0.00000000       0.00000000       4.00000000 </v>
   </varray>
   <i name="volume">    512.00000000 </i>
   <varray name="rec_basis" >
    <v>       0.12500000       0.00000000       0.00000000 </v>
    <v>       0.00000000       0.06250000       0.00000000 </v>
    <v>       0.00000000       0.00000000       0.25000000 </v>
   </varray>
  </crystal>
  <varray name="positions" >
   <v>       0.25000000       0.25000000       0.00000000 </v>
   <v>       0.75000000       0.50000000       0.00000000 </v>
   <v>       0.75000000       0.25000000       0.00000000 </v>
   <v>       0.25000000       0.50000000       0.00000000 </v>
   <v>       0.75000000       0.75000000       0.00000000 </v>
   <v>       0.25000000       0.00000000       0.00000000 </v>
   <v>       0.25000000       0.75000000       0.00000000 </v>
   <v>       0.75000000       0.00000000       0.00000000 </v>
   <v>       0.00000000       0.62500000       0.50000000 </v>
   <v>       0.00000000       0.37500000       0.50000000 </v>
   <v>       0.50000000       0.62500000       0.50000000 </v>
   <v>       0.50000000       0.37500000       0.50000000 </v>
   <v>       0.50000000       0.12500000       0.50000000 </v>
   <v>       0.50000000       0.87500000       0.50000000 </v>
   <v>       0.00000000       0.12500000       0.50000000 </v>
   <v>       0.00000000       0.87500000       0.50000000 </v>
   <v>       0.50000000       0.25000000       0.50000000 </v>
   <v>       0.00000000       0.50000000       0.50000000 </v>
   <v>       0.00000000       0.25000000       0.50000000 </v>
   <v>       0.50000000       0.50000000       0.50000000 </v>
   <v>       0.50000000       0.62500000       0.00000000 </v>
   <v>       0.50000000       0.37500000       0.00000000 </v>
   <v>       0.75000000       0.62500000       0.50000000 </v>
   <v>       0.75000000       0.37500000       0.50000000 </v>
   <v>       0.25000000       0.62500000       0.50000000 </v>
   <v>       0.25000000       0.37500000       0.50000000 </v>
   <v>       0.00000000       0.75000000       0.50000000 </v>
   <v>       0.50000000       0.00000000       0.50000000 </v>
   <v>       0.50000000       0.75000000       0.50000000 </v>
   <v>       0.00000000       0.00000000       0.50000000 </v>
   <v>       0.00000000       0.12500000       0.00000000 </v>
   <v>       0.00000000       0.87500000       0.00000000 </v>
   <v>       0.25000000       0.12500000       0.50000000 </v>
   <v>       0.25000000       0.87500000       0.50000000 </v>
   <v>       0.75000000       0.12500000       0.50000000 </v>
   <v>       0.75000000       0.87500000       0.50000000 </v>
  </varray>
 </structure>
</modeling>
