<?xml version="1.0" encoding="ISO-8859-1"?>
<modeling>
 <generator>
  <i name="program" type="string">vasp </i>
  <i name="version" type="string">5.3.5  </i>
  <i name="subversion" type="string">31Mar14 (build Jun 20 2014 13:15:13) complex                          parallel </i>
  <i name="platform" type="string">LinuxIFC </i>
  <i name="date" type="string">2025 11 21 </i>
  <i name="time" type="string">11:30:34 </i>
 </generator>
 <incar>
  <i type="string" name="PREC">accurate</i>
  <i type="int" name="IALGO">    68</i>
  <i type="logical" name="ADDGRID"> T  </i>
  <i type="int" name="NELM">   100</i>
  <i type="int" name="NELMIN">     4</i>
  <i type="int" name="IBRION">     2</i>
  <i name="EDIFF">      0.00000100</i>
  <i name="EDIFFG">     -0.02000000</i>
  <i type="int" name="NSW">    30</i>
  <i type="int" name="ISIF">     3</i>
  <i name="ENCUT">    500.00000000</i>
  <i type="logical" name="LREAL"> F  </i>
  <i type="int" name="ISMEAR">     1</i>
  <i name="SIGMA">      0.30000000</i>
  <i type="logical" name="LWAVE"> F  </i>
  <i type="logical" name="LCHARG"> F  </i>
  <i type="int" name="NELM">   100</i>
 </incar>
 <kpoints>
  <generation param="Auto">
   <i name="subdivisionlength">     70.00000000 </i>
   <v type="int" name="divisions">      28       28        5 </v>
   <v name="usershift">      0.00000000       0.00000000       0.00000000 </v>
   <v name="genvec1">      0.03571429       0.00000000       0.00000000 </v>
   <v name="genvec2">      0.00000000       0.03571429       0.00000000 </v>
   <v name="genvec3">      0.00000000       0.00000000       0.20000000 </v>
   <v name="shift">      0.00000000       0.00000000       0.00000000 </v>
  </generation>
  <varray name="kpointlist" >
   <v>       0.00000000       0.00000000       0.00000000 </v>
   <v>       0.03571429       0.00000000       0.00000000 </v>
   <v>       0.07142857       0.00000000       0.00000000 </v>
   <v>       0.10714286       0.00000000       0.00000000 </v>
   <v>       0.14285714       0.00000000       0.00000000 </v>
   <v>       0.17857143       0.00000000       0.00000000 </v>
   <v>       0.21428571       0.00000000       0.00000000 </v>
   <v>       0.25000000       0.00000000       0.00000000 </v>
   <v>       0.28571429       0.00000000       0.00000000 </v>
   <v>       0.32142857       0.00000000       0.00000000 </v>
   <v>       0.35714286       0.00000000       0.00000000 </v>
   <v>       0.39285714       0.00000000       0.00000000 </v>
   <v>       0.42857143       0.00000000       0.00000000 </v>
   <v>       0.46428571       0.00000000       0.00000000 </v>
   <v>       0.50000000       0.00000000       0.00000000 </v>
   <v>       0.03571429       0.03571429       0.00000000 </v>
   <v>       0.07142857       0.03571429       0.00000000 </v>
   <v>       0.10714286       0.03571429       0.00000000 </v>
   <v>       0.14285714       0.03571429       0.00000000 </v>
   <v>       0.17857143       0.03571429       0.00000000 </v>
   <v>       0.21428571       0.03571429       0.00000000 </v>
   <v>       0.25000000       0.03571429       0.00000000 </v>
   <v>       0.28571429       0.03571429       0.00000000 </v>
   <v>       0.32142857       0.03571429       0.00000000 </v>
   <v>       0.35714286       0.03571429       0.00000000 </v>
   <v>       0.39285714       0.03571429       0.00000000 </v>
   <v>       0.42857143       0.03571429       0.00000000 </v>
   <v>       0.46428571       0.03571429       0.00000000 </v>
   <v>       0.07142857       0.07142857       0.00000000 </v>
   <v>       0.10714286       0.07142857       0.00000000 </v>
   <v>       0.14285714       0.07142857       0.00000000 </v>
   <v>       0.17857143       0.07142857       0.00000000 </v>
   <v>       0.21428571       0.07142857       0.00000000 </v>
   <v>       0.25000000       0.07142857       0.00000000 </v>
   <v>       0.28571429       0.07142857       0.00000000 </v>
   <v>       0.32142857       0.07142857       0.00000000 </v>
   <v>       0.35714286       0.07142857       0.00000000 </v>
   <v>       0.39285714       0.07142857       0.00000000 </v>
   <v>       0.42857143       0.07142857       0.00000000 </v>
   <v>       0.46428571       0.07142857       0.00000000 </v>
   <v>       0.10714286       0.10714286       0.00000000 </v>
   <v>       0.14285714       0.10714286       0.00000000 </v>
   <v>       0.17857143       0.10714286       0.00000000 </v>
   <v>       0.21428571       0.10714286       0.00000000 </v>
   <v>       0.25000000       0.10714286       0.00000000 </v>
   <v>       0.28571429       0.10714286       0.00000000 </v>
   <v>       0.32142857       0.10714286       0.00000000 </v>
   <v>       0.35714286       0.10714286       0.00000000 </v>
   <v>       0.39285714       0.10714286       0.00000000 </v>
   <v>       0.42857143       0.10714286       0.00000000 </v>
   <v>       0.14285714       0.14285714       0.00000000 </v>
   <v>       0.17857143       0.14285714       0.00000000 </v>
   <v>       0.21428571       0.14285714       0.00000000 </v>
   <v>       0.25000000       0.14285714       0.00000000 </v>
   <v>       0.28571429       0.14285714       0.00000000 </v>
   <v>       0.32142857       0.14285714       0.00000000 </v>
   <v>       0.35714286       0.14285714       0.00000000 </v>
   <v>       0.39285714       0.14285714       0.00000000 </v>
   <v>       0.42857143       0.14285714       0.00000000 </v>
   <v>       0.17857143       0.17857143       0.00000000 </v>
   <v>       0.21428571       0.17857143       0.00000000 </v>
   <v>       0.25000000       0.17857143       0.00000000 </v>
   <v>       0.28571429       0.17857143       0.00000000 </v>
   <v>       0.32142857       0.17857143       0.00000000 </v>
   <v>       0.35714286       0.17857143       0.00000000 </v>
   <v>       0.39285714       0.17857143       0.00000000 </v>
   <v>       0.21428571       0.21428571       0.00000000 </v>
   <v>       0.25000000       0.21428571       0.00000000 </v>
   <v>       0.28571429       0.21428571       0.00000000 </v>
   <v>       0.32142857       0.21428571       0.00000000 </v>
   <v>       0.35714286       0.21428571       0.00000000 </v>
   <v>       0.39285714       0.21428571       0.00000000 </v>
   <v>       0.25000000       0.25000000       0.00000000 </v>
   <v>       0.28571429       0.25000000       0.00000000 </v>
   <v>       0.32142857       0.25000000       0.00000000 </v>
   <v>       0.35714286       0.25000000       0.00000000 </v>
   <v>       0.28571429       0.28571429       0.00000000 </v>
   <v>       0.32142857       0.28571429       0.00000000 </v>
   <v>       0.35714286       0.28571429       0.00000000 </v>
   <v>       0.32142857       0.32142857       0.00000000 </v>
   <v>       0.00000000       0.00000000       0.20000000 </v>
   <v>       0.03571429       0.00000000       0.20000000 </v>
   <v>       0.07142857       0.00000000       0.20000000 </v>
   <v>       0.10714286       0.00000000       0.20000000 </v>
   <v>       0.14285714       0.00000000       0.20000000 </v>
   <v>       0.17857143       0.00000000       0.20000000 </v>
   <v>       0.21428571       0.00000000       0.20000000 </v>
   <v>       0.25000000       0.00000000       0.20000000 </v>
   <v>       0.28571429       0.00000000       0.20000000 </v>
   <v>       0.32142857       0.00000000       0.20000000 </v>
   <v>       0.35714286       0.00000000       0.20000000 </v>
   <v>       0.39285714       0.00000000       0.20000000 </v>
   <v>       0.42857143       0.00000000       0.20000000 </v>
   <v>       0.46428571       0.00000000       0.20000000 </v>
   <v>       0.50000000       0.00000000       0.20000000 </v>
   <v>      -0.46428571       0.00000000       0.20000000 </v>
   <v>      -0.42857143       0.00000000       0.20000000 </v>
   <v>      -0.39285714       0.00000000       0.20000000 </v>
   <v>      -0.35714286       0.00000000       0.20000000 </v>
   <v>      -0.32142857       0.00000000       0.20000000 </v>
   <v>      -0.28571429       0.00000000       0.20000000 </v>
   <v>      -0.25000000       0.00000000       0.20000000 </v>
   <v>      -0.21428571       0.00000000       0.20000000 </v>
   <v>      -0.17857143       0.00000000       0.20000000 </v>
   <v>      -0.14285714       0.00000000       0.20000000 </v>
   <v>      -0.10714286       0.00000000       0.20000000 </v>
   <v>      -0.07142857       0.00000000       0.20000000 </v>
   <v>      -0.03571429       0.00000000       0.20000000 </v>
   <v>       0.03571429       0.03571429       0.20000000 </v>
   <v>       0.07142857       0.03571429       0.20000000 </v>
   <v>       0.10714286       0.03571429       0.20000000 </v>
   <v>       0.14285714       0.03571429       0.20000000 </v>
   <v>       0.17857143       0.03571429       0.20000000 </v>
   <v>       0.21428571       0.03571429       0.20000000 </v>
   <v>       0.25000000       0.03571429       0.20000000 </v>
   <v>       0.28571429       0.03571429       0.20000000 </v>
   <v>       0.32142857       0.03571429       0.20000000 </v>
   <v>       0.35714286       0.03571429       0.20000000 </v>
   <v>       0.39285714       0.03571429       0.20000000 </v>
   <v>       0.42857143       0.03571429       0.20000000 </v>
   <v>       0.46428571       0.03571429       0.20000000 </v>
   <v>       0.50000000       0.03571429       0.20000000 </v>
   <v>      -0.46428571       0.03571429       0.20000000 </v>
   <v>      -0.42857143       0.03571429       0.20000000 </v>
   <v>      -0.39285714       0.03571429       0.20000000 </v>
   <v>      -0.35714286       0.03571429       0.20000000 </v>
   <v>      -0.32142857       0.03571429       0.20000000 </v>
   <v>      -0.28571429       0.03571429       0.20000000 </v>
   <v>      -0.25000000       0.03571429       0.20000000 </v>
   <v>      -0.21428571       0.03571429       0.20000000 </v>
   <v>      -0.17857143       0.03571429       0.20000000 </v>
   <v>      -0.14285714       0.03571429       0.20000000 </v>
   <v>      -0.10714286       0.03571429       0.20000000 </v>
   <v>       0.07142857       0.07142857       0.20000000 </v>
   <v>       0.10714286       0.07142857       0.20000000 </v>
   <v>       0.14285714       0.07142857       0.20000000 </v>
   <v>       0.17857143       0.07142857       0.20000000 </v>
   <v>       0.21428571       0.07142857       0.20000000 </v>
   <v>       0.25000000       0.07142857       0.20000000 </v>
   <v>       0.28571429       0.07142857       0.20000000 </v>
   <v>       0.32142857       0.07142857       0.20000000 </v>
   <v>       0.35714286       0.07142857       0.20000000 </v>
   <v>       0.39285714       0.07142857       0.20000000 </v>
   <v>       0.42857143       0.07142857       0.20000000 </v>
   <v>       0.46428571       0.07142857       0.20000000 </v>
   <v>       0.50000000       0.07142857       0.20000000 </v>
   <v>      -0.46428571       0.07142857       0.20000000 </v>
   <v>      -0.42857143       0.07142857       0.20000000 </v>
   <v>      -0.39285714       0.07142857       0.20000000 </v>
   <v>      -0.35714286       0.07142857       0.20000000 </v>
   <v>      -0.32142857       0.07142857       0.20000000 </v>
   <v>      -0.28571429       0.07142857       0.20000000 </v>
   <v>      -0.25000000       0.07142857       0.20000000 </v>
   <v>      -0.21428571       0.07142857       0.20000000 </v>
   <v>      -0.17857143       0.07142857       0.20000000 </v>
   <v>       0.10714286       0.10714286       0.20000000 </v>
   <v>       0.14285714       0.10714286       0.20000000 </v>
   <v>       0.17857143       0.10714286       0.20000000 </v>
   <v>       0.21428571       0.10714286       0.20000000 </v>
   <v>       0.25000000       0.10714286       0.20000000 </v>
   <v>       0.28571429       0.10714286       0.20000000 </v>
   <v>       0.32142857       0.10714286       0.20000000 </v>
   <v>       0.35714286       0.10714286       0.20000000 </v>
   <v>       0.39285714       0.10714286       0.20000000 </v>
   <v>       0.42857143       0.10714286       0.20000000 </v>
   <v>       0.46428571       0.10714286       0.20000000 </v>
   <v>       0.50000000       0.10714286       0.20000000 </v>
   <v>      -0.46428571       0.10714286       0.20000000 </v>
   <v>      -0.42857143       0.10714286       0.20000000 </v>
   <v>      -0.39285714       0.10714286       0.20000000 </v>
   <v>      -0.35714286       0.10714286       0.20000000 </v>
   <v>      -0.32142857       0.10714286       0.20000000 </v>
   <v>      -0.28571429       0.10714286       0.20000000 </v>
   <v>      -0.25000000       0.10714286       0.20000000 </v>
   <v>       0.14285714       0.14285714       0.20000000 </v>
   <v>       0.17857143       0.14285714       0.20000000 </v>
   <v>       0.21428571       0.14285714       0.20000000 </v>
   <v>       0.25000000       0.14285714       0.20000000 </v>
   <v>       0.28571429       0.14285714       0.20000000 </v>
   <v>       0.32142857       0.14285714       0.20000000 </v>
   <v>       0.35714286       0.14285714       0.20000000 </v>
   <v>       0.39285714       0.14285714       0.20000000 </v>
   <v>       0.42857143       0.14285714       0.20000000 </v>
   <v>       0.46428571       0.14285714       0.20000000 </v>
   <v>       0.50000000       0.14285714       0.20000000 </v>
   <v>      -0.46428571       0.14285714       0.20000000 </v>
   <v>      -0.42857143       0.14285714       0.20000000 </v>
   <v>      -0.39285714       0.14285714       0.20000000 </v>
   <v>      -0.35714286       0.14285714       0.20000000 </v>
   <v>      -0.32142857       0.14285714       0.20000000 </v>
   <v>       0.17857143       0.17857143       0.20000000 </v>
   <v>       0.21428571       0.17857143       0.20000000 </v>
   <v>       0.25000000       0.17857143       0.20000000 </v>
   <v>       0.28571429       0.17857143       0.20000000 </v>
   <v>       0.32142857       0.17857143       0.20000000 </v>
   <v>       0.35714286       0.17857143       0.20000000 </v>
   <v>       0.39285714       0.17857143       0.20000000 </v>
   <v>       0.42857143       0.17857143       0.20000000 </v>
   <v>       0.46428571       0.17857143       0.20000000 </v>
   <v>       0.50000000       0.17857143       0.20000000 </v>
   <v>      -0.46428571       0.17857143       0.20000000 </v>
   <v>      -0.42857143       0.17857143       0.20000000 </v>
   <v>      -0.39285714       0.17857143       0.20000000 </v>
   <v>       0.21428571       0.21428571       0.20000000 </v>
   <v>       0.25000000       0.21428571       0.20000000 </v>
   <v>       0.28571429       0.21428571       0.20000000 </v>
   <v>       0.32142857       0.21428571       0.20000000 </v>
   <v>       0.35714286       0.21428571       0.20000000 </v>
   <v>       0.39285714       0.21428571       0.20000000 </v>
   <v>       0.42857143       0.21428571       0.20000000 </v>
   <v>       0.46428571       0.21428571       0.20000000 </v>
   <v>       0.50000000       0.21428571       0.20000000 </v>
   <v>      -0.46428571       0.21428571       0.20000000 </v>
   <v>       0.25000000       0.25000000       0.20000000 </v>
   <v>       0.28571429       0.25000000       0.20000000 </v>
   <v>       0.32142857       0.25000000       0.20000000 </v>
   <v>       0.35714286       0.25000000       0.20000000 </v>
   <v>       0.39285714       0.25000000       0.20000000 </v>
   <v>       0.42857143       0.25000000       0.20000000 </v>
   <v>       0.46428571       0.25000000       0.20000000 </v>
   <v>       0.28571429       0.28571429       0.20000000 </v>
   <v>       0.32142857       0.28571429       0.20000000 </v>
   <v>       0.35714286       0.28571429       0.20000000 </v>
   <v>       0.39285714       0.28571429       0.20000000 </v>
   <v>       0.32142857       0.32142857       0.20000000 </v>
   <v>       0.00000000       0.00000000       0.40000000 </v>
   <v>       0.03571429       0.00000000       0.40000000 </v>
   <v>       0.07142857       0.00000000       0.40000000 </v>
   <v>       0.10714286       0.00000000       0.40000000 </v>
   <v>       0.14285714       0.00000000       0.40000000 </v>
   <v>       0.17857143       0.00000000       0.40000000 </v>
   <v>       0.21428571       0.00000000       0.40000000 </v>
   <v>       0.25000000       0.00000000       0.40000000 </v>
   <v>       0.28571429       0.00000000       0.40000000 </v>
   <v>       0.32142857       0.00000000       0.40000000 </v>
   <v>       0.35714286       0.00000000       0.40000000 </v>
   <v>       0.39285714       0.00000000       0.40000000 </v>
   <v>       0.42857143       0.00000000       0.40000000 </v>
   <v>       0.46428571       0.00000000       0.40000000 </v>
   <v>       0.50000000       0.00000000       0.40000000 </v>
   <v>      -0.46428571       0.00000000       0.40000000 </v>
   <v>      -0.42857143       0.00000000       0.40000000 </v>
   <v>      -0.39285714       0.00000000       0.40000000 </v>
   <v>      -0.35714286       0.00000000       0.40000000 </v>
   <v>      -0.32142857       0.00000000       0.40000000 </v>
   <v>      -0.28571429       0.00000000       0.40000000 </v>
   <v>      -0.25000000       0.00000000       0.40000000 </v>
   <v>      -0.21428571       0.00000000       0.40000000 </v>
   <v>      -0.17857143       0.00000000       0.40000000 </v>
   <v>      -0.14285714       0.00000000       0.40000000 </v>
   <v>      -0.10714286       0.00000000       0.40000000 </v>
   <v>      -0.07142857       0.00000000       0.40000000 </v>
   <v>      -0.03571429       0.00000000       0.40000000 </v>
   <v>       0.03571429       0.03571429       0.40000000 </v>
   <v>       0.07142857       0.03571429       0.40000000 </v>
   <v>       0.10714286       0.03571429       0.40000000 </v>
   <v>       0.14285714       0.03571429       0.40000000 </v>
   <v>       0.17857143       0.03571429       0.40000000 </v>
   <v>       0.21428571       0.03571429       0.40000000 </v>
   <v>       0.25000000       0.03571429       0.40000000 </v>
   <v>       0.28571429       0.03571429       0.40000000 </v>
   <v>       0.32142857       0.03571429       0.40000000 </v>
   <v>       0.35714286       0.03571429       0.40000000 </v>
   <v>       0.39285714       0.03571429       0.40000000 </v>
   <v>       0.42857143       0.03571429       0.40000000 </v>
   <v>       0.46428571       0.03571429       0.40000000 </v>
   <v>       0.50000000       0.03571429       0.40000000 </v>
   <v>      -0.46428571       0.03571429       0.40000000 </v>
   <v>      -0.42857143       0.03571429       0.40000000 </v>
   <v>      -0.39285714       0.03571429       0.40000000 </v>
   <v>      -0.35714286       0.03571429       0.40000000 </v>
   <v>      -0.32142857       0.03571429       0.40000000 </v>
   <v>      -0.28571429       0.03571429       0.40000000 </v>
   <v>      -0.25000000       0.03571429       0.40000000 </v>
   <v>      -0.21428571       0.03571429       0.40000000 </v>
   <v>      -0.17857143       0.03571429       0.40000000 </v>
   <v>      -0.14285714       0.03571429       0.40000000 </v>
   <v>      -0.10714286       0.03571429       0.40000000 </v>
   <v>       0.07142857       0.07142857       0.40000000 </v>
   <v>       0.10714286       0.07142857       0.40000000 </v>
   <v>       0.14285714       0.07142857       0.40000000 </v>
   <v>       0.17857143       0.07142857       0.40000000 </v>
   <v>       0.21428571       0.07142857       0.40000000 </v>
   <v>       0.25000000       0.07142857       0.40000000 </v>
   <v>       0.28571429       0.07142857       0.40000000 </v>
   <v>       0.32142857       0.07142857       0.40000000 </v>
   <v>       0.35714286       0.07142857       0.40000000 </v>
   <v>       0.39285714       0.07142857       0.40000000 </v>
   <v>       0.42857143       0.07142857       0.40000000 </v>
   <v>       0.46428571       0.07142857       0.40000000 </v>
   <v>       0.50000000       0.07142857       0.40000000 </v>
   <v>      -0.46428571       0.07142857       0.40000000 </v>
   <v>      -0.42857143       0.07142857       0.40000000 </v>
   <v>      -0.39285714       0.07142857       0.40000000 </v>
   <v>      -0.35714286       0.07142857       0.40000000 </v>
   <v>      -0.32142857       0.07142857       0.40000000 </v>
   <v>      -0.28571429       0.07142857       0.40000000 </v>
   <v>      -0.25000000       0.07142857       0.40000000 </v>
   <v>      -0.21428571       0.07142857       0.40000000 </v>
   <v>      -0.17857143       0.07142857       0.40000000 </v>
   <v>       0.10714286       0.10714286       0.40000000 </v>
   <v>       0.14285714       0.10714286       0.40000000 </v>
   <v>       0.17857143       0.10714286       0.40000000 </v>
   <v>       0.21428571       0.10714286       0.40000000 </v>
   <v>       0.25000000       0.10714286       0.40000000 </v>
   <v>       0.28571429       0.10714286       0.40000000 </v>
   <v>       0.32142857       0.10714286       0.40000000 </v>
   <v>       0.35714286       0.10714286       0.40000000 </v>
   <v>       0.39285714       0.10714286       0.40000000 </v>
   <v>       0.42857143       0.10714286       0.40000000 </v>
   <v>       0.46428571       0.10714286       0.40000000 </v>
   <v>       0.50000000       0.10714286       0.40000000 </v>
   <v>      -0.46428571       0.10714286       0.40000000 </v>
   <v>      -0.42857143       0.10714286       0.40000000 </v>
   <v>      -0.39285714       0.10714286       0.40000000 </v>
   <v>      -0.35714286       0.10714286       0.40000000 </v>
   <v>      -0.32142857       0.10714286       0.40000000 </v>
   <v>      -0.28571429       0.10714286       0.40000000 </v>
   <v>      -0.25000000       0.10714286       0.40000000 </v>
   <v>       0.14285714       0.14285714       0.40000000 </v>
   <v>       0.17857143       0.14285714       0.40000000 </v>
   <v>       0.21428571       0.14285714       0.40000000 </v>
   <v>       0.25000000       0.14285714       0.40000000 </v>
   <v>       0.28571429       0.14285714       0.40000000 </v>
   <v>       0.32142857       0.14285714       0.40000000 </v>
   <v>       0.35714286       0.14285714       0.40000000 </v>
   <v>       0.39285714       0.14285714       0.40000000 </v>
   <v>       0.42857143       0.14285714       0.40000000 </v>
   <v>       0.46428571       0.14285714       0.40000000 </v>
   <v>       0.50000000       0.14285714       0.40000000 </v>
   <v>      -0.46428571       0.14285714       0.40000000 </v>
   <v>      -0.42857143       0.14285714       0.40000000 </v>
   <v>      -0.39285714       0.14285714       0.40000000 </v>
   <v>      -0.35714286       0.14285714       0.40000000 </v>
   <v>      -0.32142857       0.14285714       0.40000000 </v>
   <v>       0.17857143       0.17857143       0.40000000 </v>
   <v>       0.21428571       0.17857143       0.40000000 </v>
   <v>       0.25000000       0.17857143       0.40000000 </v>
   <v>       0.28571429       0.17857143       0.40000000 </v>
   <v>       0.32142857       0.17857143       0.40000000 </v>
   <v>       0.35714286       0.17857143       0.40000000 </v>
   <v>       0.39285714       0.17857143       0.40000000 </v>
   <v>       0.42857143       0.17857143       0.40000000 </v>
   <v>       0.46428571       0.17857143       0.40000000 </v>
   <v>       0.50000000       0.17857143       0.40000000 </v>
   <v>      -0.46428571       0.17857143       0.40000000 </v>
   <v>      -0.42857143       0.17857143       0.40000000 </v>
   <v>      -0.39285714       0.17857143       0.40000000 </v>
   <v>       0.21428571       0.21428571       0.40000000 </v>
   <v>       0.25000000       0.21428571       0.40000000 </v>
   <v>       0.28571429       0.21428571       0.40000000 </v>
   <v>       0.32142857       0.21428571       0.40000000 </v>
   <v>       0.35714286       0.21428571       0.40000000 </v>
   <v>       0.39285714       0.21428571       0.40000000 </v>
   <v>       0.42857143       0.21428571       0.40000000 </v>
   <v>       0.46428571       0.21428571       0.40000000 </v>
   <v>       0.50000000       0.21428571       0.40000000 </v>
   <v>      -0.46428571       0.21428571       0.40000000 </v>
   <v>       0.25000000       0.25000000       0.40000000 </v>
   <v>       0.28571429       0.25000000       0.40000000 </v>
   <v>       0.32142857       0.25000000       0.40000000 </v>
   <v>       0.35714286       0.25000000       0.40000000 </v>
   <v>       0.39285714       0.25000000       0.40000000 </v>
   <v>       0.42857143       0.25000000       0.40000000 </v>
   <v>       0.46428571       0.25000000       0.40000000 </v>
   <v>       0.28571429       0.28571429       0.40000000 </v>
   <v>       0.32142857       0.28571429       0.40000000 </v>
   <v>       0.35714286       0.28571429       0.40000000 </v>
   <v>       0.39285714       0.28571429       0.40000000 </v>
   <v>       0.32142857       0.32142857       0.40000000 </v>
  </varray>
  <varray name="weights" >
   <v>       0.00025510 </v>
   <v>       0.00153061 </v>
   <v>       0.00153061 </v>
   <v>       0.00153061 </v>
   <v>       0.00153061 </v>
   <v>       0.00153061 </v>
   <v>       0.00153061 </v>
   <v>       0.00153061 </v>
   <v>       0.00153061 </v>
   <v>       0.00153061 </v>
   <v>       0.00153061 </v>
   <v>       0.00153061 </v>
   <v>       0.00153061 </v>
   <v>       0.00153061 </v>
   <v>       0.00076531 </v>
   <v>       0.00153061 </v>
   <v>       0.00306122 </v>
   <v>       0.00306122 </v>
   <v>       0.00306122 </v>
   <v>       0.00306122 </v>
   <v>       0.00306122 </v>
   <v>       0.00306122 </v>
   <v>       0.00306122 </v>
   <v>       0.00306122 </v>
   <v>       0.00306122 </v>
   <v>       0.00306122 </v>
   <v>       0.00306122 </v>
   <v>       0.00306122 </v>
   <v>       0.00153061 </v>
   <v>       0.00306122 </v>
   <v>       0.00306122 </v>
   <v>       0.00306122 </v>
   <v>       0.00306122 </v>
   <v>       0.00306122 </v>
   <v>       0.00306122 </v>
   <v>       0.00306122 </v>
   <v>       0.00306122 </v>
   <v>       0.00306122 </v>
   <v>       0.00306122 </v>
   <v>       0.00153061 </v>
   <v>       0.00153061 </v>
   <v>       0.00306122 </v>
   <v>       0.00306122 </v>
   <v>       0.00306122 </v>
   <v>       0.00306122 </v>
   <v>       0.00306122 </v>
   <v>       0.00306122 </v>
   <v>       0.00306122 </v>
   <v>       0.00306122 </v>
   <v>       0.00306122 </v>
   <v>       0.00153061 </v>
   <v>       0.00306122 </v>
   <v>       0.00306122 </v>
   <v>       0.00306122 </v>
   <v>       0.00306122 </v>
   <v>       0.00306122 </v>
   <v>       0.00306122 </v>
   <v>       0.00306122 </v>
   <v>       0.00153061 </v>
   <v>       0.00153061 </v>
   <v>       0.00306122 </v>
   <v>       0.00306122 </v>
   <v>       0.00306122 </v>
   <v>       0.00306122 </v>
   <v>       0.00306122 </v>
   <v>       0.00306122 </v>
   <v>       0.00153061 </v>
   <v>       0.00306122 </v>
   <v>       0.00306122 </v>
   <v>       0.00306122 </v>
   <v>       0.00306122 </v>
   <v>       0.00153061 </v>
   <v>       0.00153061 </v>
   <v>       0.00306122 </v>
   <v>       0.00306122 </v>
   <v>       0.00306122 </v>
   <v>       0.00153061 </v>
   <v>       0.00306122 </v>
   <v>       0.00153061 </v>
   <v>       0.00153061 </v>
   <v>       0.00051020 </v>
   <v>       0.00153061 </v>
   <v>       0.00153061 </v>
   <v>       0.00153061 </v>
   <v>       0.00153061 </v>
   <v>       0.00153061 </v>
   <v>       0.00153061 </v>
   <v>       0.00153061 </v>
   <v>       0.00153061 </v>
   <v>       0.00153061 </v>
   <v>       0.00153061 </v>
   <v>       0.00153061 </v>
   <v>       0.00153061 </v>
   <v>       0.00153061 </v>
   <v>       0.00153061 </v>
   <v>       0.00153061 </v>
   <v>       0.00153061 </v>
   <v>       0.00153061 </v>
   <v>       0.00153061 </v>
   <v>       0.00153061 </v>
   <v>       0.00153061 </v>
   <v>       0.00153061 </v>
   <v>       0.00153061 </v>
   <v>       0.00153061 </v>
   <v>       0.00153061 </v>
   <v>       0.00153061 </v>
   <v>       0.00153061 </v>
   <v>       0.00153061 </v>
   <v>       0.00306122 </v>
   <v>       0.00306122 </v>
   <v>       0.00306122 </v>
   <v>       0.00306122 </v>
   <v>       0.00306122 </v>
   <v>       0.00306122 </v>
   <v>       0.00306122 </v>
   <v>       0.00306122 </v>
   <v>       0.00306122 </v>
   <v>       0.00306122 </v>
   <v>       0.00306122 </v>
   <v>       0.00306122 </v>
   <v>       0.00306122 </v>
   <v>       0.00306122 </v>
   <v>       0.00306122 </v>
   <v>       0.00306122 </v>
   <v>       0.00306122 </v>
   <v>       0.00306122 </v>
   <v>       0.00306122 </v>
   <v>       0.00306122 </v>
   <v>       0.00306122 </v>
   <v>       0.00306122 </v>
   <v>       0.00306122 </v>
   <v>       0.00306122 </v>
   <v>       0.00306122 </v>
   <v>       0.00306122 </v>
   <v>       0.00306122 </v>
   <v>       0.00306122 </v>
   <v>       0.00306122 </v>
   <v>       0.00306122 </v>
   <v>       0.00306122 </v>
   <v>       0.00306122 </v>
   <v>       0.00306122 </v>
   <v>       0.00306122 </v>
   <v>       0.00306122 </v>
   <v>       0.00306122 </v>
   <v>       0.00306122 </v>
   <v>       0.00306122 </v>
   <v>       0.00306122 </v>
   <v>       0.00306122 </v>
   <v>       0.00306122 </v>
   <v>       0.00306122 </v>
   <v>       0.00306122 </v>
   <v>       0.00306122 </v>
   <v>       0.00306122 </v>
   <v>       0.00306122 </v>
   <v>       0.00306122 </v>
   <v>       0.00306122 </v>
   <v>       0.00306122 </v>
   <v>       0.00306122 </v>
   <v>       0.00306122 </v>
   <v>       0.00306122 </v>
   <v>       0.00306122 </v>
   <v>       0.00306122 </v>
   <v>       0.00306122 </v>
   <v>       0.00306122 </v>
   <v>       0.00306122 </v>
   <v>       0.00306122 </v>
   <v>       0.00306122 </v>
   <v>       0.00306122 </v>
   <v>       0.00306122 </v>
   <v>       0.00306122 </v>
   <v>       0.00306122 </v>
   <v>       0.00306122 </v>
   <v>       0.00306122 </v>
   <v>       0.00306122 </v>
   <v>       0.00306122 </v>
   <v>       0.00306122 </v>
   <v>       0.00306122 </v>
   <v>       0.00306122 </v>
   <v>       0.00306122 </v>
   <v>       0.00306122 </v>
   <v>       0.00306122 </v>
   <v>       0.00306122 </v>
   <v>       0.00306122 </v>
   <v>       0.00306122 </v>
   <v>       0.00306122 </v>
   <v>       0.00306122 </v>
   <v>       0.00306122 </v>
   <v>       0.00306122 </v>
   <v>       0.00306122 </v>
   <v>       0.00306122 </v>
   <v>       0.00306122 </v>
   <v>       0.00306122 </v>
   <v>       0.00306122 </v>
   <v>       0.00306122 </v>
   <v>       0.00306122 </v>
   <v>       0.00306122 </v>
   <v>       0.00306122 </v>
   <v>       0.00306122 </v>
   <v>       0.00306122 </v>
   <v>       0.00306122 </v>
   <v>       0.00306122 </v>
   <v>       0.00306122 </v>
   <v>       0.00306122 </v>
   <v>       0.00306122 </v>
   <v>       0.00306122 </v>
   <v>       0.00306122 </v>
   <v>       0.00306122 </v>
   <v>       0.00306122 </v>
   <v>       0.00306122 </v>
   <v>       0.00306122 </v>
   <v>       0.00306122 </v>
   <v>       0.00306122 </v>
   <v>       0.00306122 </v>
   <v>       0.00306122 </v>
   <v>       0.00306122 </v>
   <v>       0.00306122 </v>
   <v>       0.00306122 </v>
   <v>       0.00306122 </v>
   <v>       0.00306122 </v>
   <v>       0.00306122 </v>
   <v>       0.00306122 </v>
   <v>       0.00306122 </v>
   <v>       0.00306122 </v>
   <v>       0.00306122 </v>
   <v>       0.00306122 </v>
   <v>       0.00051020 </v>
   <v>       0.00153061 </v>
   <v>       0.00153061 </v>
   <v>       0.00153061 </v>
   <v>       0.00153061 </v>
   <v>       0.00153061 </v>
   <v>       0.00153061 </v>
   <v>       0.00153061 </v>
   <v>       0.00153061 </v>
   <v>       0.00153061 </v>
   <v>       0.00153061 </v>
   <v>       0.00153061 </v>
   <v>       0.00153061 </v>
   <v>       0.00153061 </v>
   <v>       0.00153061 </v>
   <v>       0.00153061 </v>
   <v>       0.00153061 </v>
   <v>       0.00153061 </v>
   <v>       0.00153061 </v>
   <v>       0.00153061 </v>
   <v>       0.00153061 </v>
   <v>       0.00153061 </v>
   <v>       0.00153061 </v>
   <v>       0.00153061 </v>
   <v>       0.00153061 </v>
   <v>       0.00153061 </v>
   <v>       0.00153061 </v>
   <v>       0.00153061 </v>
   <v>       0.00306122 </v>
   <v>       0.00306122 </v>
   <v>       0.00306122 </v>
   <v>       0.00306122 </v>
   <v>       0.00306122 </v>
   <v>       0.00306122 </v>
   <v>       0.00306122 </v>
   <v>       0.00306122 </v>
   <v>       0.00306122 </v>
   <v>       0.00306122 </v>
   <v>       0.00306122 </v>
   <v>       0.00306122 </v>
   <v>       0.00306122 </v>
   <v>       0.00306122 </v>
   <v>       0.00306122 </v>
   <v>       0.00306122 </v>
   <v>       0.00306122 </v>
   <v>       0.00306122 </v>
   <v>       0.00306122 </v>
   <v>       0.00306122 </v>
   <v>       0.00306122 </v>
   <v>       0.00306122 </v>
   <v>       0.00306122 </v>
   <v>       0.00306122 </v>
   <v>       0.00306122 </v>
   <v>       0.00306122 </v>
   <v>       0.00306122 </v>
   <v>       0.00306122 </v>
   <v>       0.00306122 </v>
   <v>       0.00306122 </v>
   <v>       0.00306122 </v>
   <v>       0.00306122 </v>
   <v>       0.00306122 </v>
   <v>       0.00306122 </v>
   <v>       0.00306122 </v>
   <v>       0.00306122 </v>
   <v>       0.00306122 </v>
   <v>       0.00306122 </v>
   <v>       0.00306122 </v>
   <v>       0.00306122 </v>
   <v>       0.00306122 </v>
   <v>       0.00306122 </v>
   <v>       0.00306122 </v>
   <v>       0.00306122 </v>
   <v>       0.00306122 </v>
   <v>       0.00306122 </v>
   <v>       0.00306122 </v>
   <v>       0.00306122 </v>
   <v>       0.00306122 </v>
   <v>       0.00306122 </v>
   <v>       0.00306122 </v>
   <v>       0.00306122 </v>
   <v>       0.00306122 </v>
   <v>       0.00306122 </v>
   <v>       0.00306122 </v>
   <v>       0.00306122 </v>
   <v>       0.00306122 </v>
   <v>       0.00306122 </v>
   <v>       0.00306122 </v>
   <v>       0.00306122 </v>
   <v>       0.00306122 </v>
   <v>       0.00306122 </v>
   <v>       0.00306122 </v>
   <v>       0.00306122 </v>
   <v>       0.00306122 </v>
   <v>       0.00306122 </v>
   <v>       0.00306122 </v>
   <v>       0.00306122 </v>
   <v>       0.00306122 </v>
   <v>       0.00306122 </v>
   <v>       0.00306122 </v>
   <v>       0.00306122 </v>
   <v>       0.00306122 </v>
   <v>       0.00306122 </v>
   <v>       0.00306122 </v>
   <v>       0.00306122 </v>
   <v>       0.00306122 </v>
   <v>       0.00306122 </v>
   <v>       0.00306122 </v>
   <v>       0.00306122 </v>
   <v>       0.00306122 </v>
   <v>       0.00306122 </v>
   <v>       0.00306122 </v>
   <v>       0.00306122 </v>
   <v>       0.00306122 </v>
   <v>       0.00306122 </v>
   <v>       0.00306122 </v>
   <v>       0.00306122 </v>
   <v>       0.00306122 </v>
   <v>       0.00306122 </v>
   <v>       0.00306122 </v>
   <v>       0.00306122 </v>
   <v>       0.00306122 </v>
   <v>       0.00306122 </v>
   <v>       0.00306122 </v>
   <v>       0.00306122 </v>
   <v>       0.00306122 </v>
   <v>       0.00306122 </v>
   <v>       0.00306122 </v>
   <v>       0.00306122 </v>
   <v>       0.00306122 </v>
   <v>       0.00306122 </v>
   <v>       0.00306122 </v>
   <v>       0.00306122 </v>
   <v>       0.00306122 </v>
   <v>       0.00306122 </v>
   <v>       0.00306122 </v>
   <v>       0.00306122 </v>
   <v>       0.00306122 </v>
   <v>       0.00306122 </v>
   <v>       0.00306122 </v>
   <v>       0.00306122 </v>
   <v>       0.00306122 </v>
   <v>       0.00306122 </v>
   <v>       0.00306122 </v>
   <v>       0.00306122 </v>
   <v>       0.00306122 </v>
  </varray>
 </kpoints>
 <parameters>
  <separator name="general" >
   <i type="string" name="SYSTEM">unknown system</i>
   <i type="logical" name="LCOMPAT"> F  </i>
  </separator>
  <separator name="electronic" >
   <i type="string" name="PREC">accura</i>
   <i name="ENMAX">    500.00000000</i>
   <i name="ENAUG">    412.49600000</i>
   <i name="EDIFF">      0.00000100</i>
   <i type="int" name="IALGO">    68</i>
   <i type="int" name="IWAVPR">    11</i>
   <i type="int" name="NBANDS">    40</i>
   <i name="NELECT">     66.00000000</i>
   <i type="int" name="TURBO">     0</i>
   <i type="int" name="IRESTART">     0</i>
   <i type="int" name="NREBOOT">     0</i>
   <i type="int" name="NMIN">     0</i>
   <i name="EREF">      0.00000000</i>
   <separator name="electronic smearing" >
    <i type="int" name="ISMEAR">     1</i>
    <i name="SIGMA">      0.30000000</i>
    <i name="KSPACING">      0.50000000</i>
    <i type="logical" name="KGAMMA"> T  </i>
   </separator>
   <separator name="electronic projectors" >
    <i type="logical" name="LREAL"> F  </i>
    <v name="ROPT">      0.00000000      0.00000000</v>
    <i type="int" name="LMAXPAW">  -100</i>
    <i type="int" name="LMAXMIX">     2</i>
    <i type="logical" name="NLSPLINE"> F  </i>
   </separator>
   <separator name="electronic startup" >
    <i type="int" name="ISTART">     0</i>
    <i type="int" name="ICHARG">     2</i>
    <i type="int" name="INIWAV">     1</i>
   </separator>
   <separator name="electronic spin" >
    <i type="int" name="ISPIN">     1</i>
    <i type="logical" name="LNONCOLLINEAR"> F  </i>
    <v name="MAGMOM">      1.00000000      1.00000000      1.00000000      1.00000000      1.00000000      1.00000000</v>
    <i name="NUPDOWN">     -1.00000000</i>
    <i type="logical" name="LSORBIT"> F  </i>
    <v name="SAXIS">      0.00000000      0.00000000      1.00000000</v>
    <i type="logical" name="LSPIRAL"> F  </i>
    <v name="QSPIRAL">      0.00000000      0.00000000      0.00000000</v>
    <i type="logical" name="LZEROZ"> F  </i>
   </separator>
   <separator name="electronic exchange-correlation" >
    <i type="logical" name="LASPH"> F  </i>
    <i type="logical" name="LMETAGGA"> F  </i>
   </separator>
   <separator name="electronic convergence" >
    <i type="int" name="NELM">   100</i>
    <i type="int" name="NELMDL">     0</i>
    <i type="int" name="NELMIN">     4</i>
    <i name="ENINI">    500.00000000</i>
    <separator name="electronic convergence detail" >
     <i type="logical" name="LDIAG"> T  </i>
     <i type="logical" name="LSUBROT"> F  </i>
     <i name="WEIMIN">      0.00100000</i>
     <i name="EBREAK">      0.00000001</i>
     <i name="DEPER">      0.30000000</i>
     <i type="int" name="NRMM">     4</i>
     <i name="TIME">      0.40000000</i>
    </separator>
   </separator>
   <separator name="electronic mixer" >
    <i name="AMIX">      0.40000000</i>
    <i name="BMIX">      1.00000000</i>
    <i name="AMIN">      0.10000000</i>
    <i name="AMIX_MAG">      1.60000000</i>
    <i name="BMIX_MAG">      1.00000000</i>
    <separator name="electronic mixer details" >
     <i type="int" name="IMIX">     4</i>
     <i type="int" name="MAXMIX">   -45</i>
     <i name="WC">    100.00000000</i>
     <i type="int" name="INIMIX">     1</i>
     <i type="int" name="MIXPRE">     1</i>
     <i type="int" name="MREMOVE">     5</i>
    </separator>
   </separator>
   <separator name="electronic dipolcorrection" >
    <i type="logical" name="LDIPOL"> F  </i>
    <i type="logical" name="LMONO"> F  </i>
    <i type="int" name="IDIPOL">     0</i>
    <i name="EPSILON">      1.00000000</i>
    <v name="DIPOL">   -100.00000000   -100.00000000   -100.00000000</v>
    <i name="EFIELD">      0.00000000</i>
   </separator>
  </separator>
  <separator name="grids" >
   <i type="int" name="NGX">    24</i>
   <i type="int" name="NGY">    24</i>
   <i type="int" name="NGZ">   108</i>
   <i type="int" name="NGXF">    48</i>
   <i type="int" name="NGYF">    48</i>
   <i type="int" name="NGZF">   216</i>
   <i type="logical" name="ADDGRID"> T  </i>
  </separator>
  <separator name="ionic" >
   <i type="int" name="NSW">    30</i>
   <i type="int" name="IBRION">     2</i>
   <i type="int" name="ISIF">     3</i>
   <i name="PSTRESS">      0.00000000</i>
   <i name="EDIFFG">     -0.02000000</i>
   <i type="int" name="NFREE">     1</i>
   <i name="POTIM">      0.50000000</i>
   <i name="SMASS">     -3.00000000</i>
   <i name="SCALEE">      1.00000000</i>
  </separator>
  <separator name="ionic md" >
   <i name="TEBEG">      0.00010000</i>
   <i name="TEEND">      0.00010000</i>
   <i type="int" name="NBLOCK">     1</i>
   <i type="int" name="KBLOCK">    30</i>
   <i type="int" name="NPACO">   256</i>
   <i name="APACO">     16.00000000</i>
  </separator>
  <separator name="symmetry" >
   <i type="int" name="ISYM">     2</i>
   <i name="SYMPREC">      0.00001000</i>
  </separator>
  <separator name="dos" >
   <i type="logical" name="LORBIT"> F  </i>
   <v name="RWIGS">     -1.00000000     -1.00000000</v>
   <i type="int" name="NEDOS">   301</i>
   <i name="EMIN">     10.00000000</i>
   <i name="EMAX">    -10.00000000</i>
   <i name="EFERMI">      0.00000000</i>
  </separator>
  <separator name="writing" >
   <i type="int" name="NWRITE">     2</i>
   <i type="logical" name="LWAVE"> F  </i>
   <i type="logical" name="LCHARG"> F  </i>
   <i type="logical" name="LPARD"> F  </i>
   <i type="logical" name="LVTOT"> F  </i>
   <i type="logical" name="LVHAR"> F  </i>
   <i type="logical" name="LELF"> F  </i>
   <i type="logical" name="LOPTICS"> F  </i>
   <v name="STM">      0.00000000      0.00000000      0.00000000      0.00000000      0.00000000      0.00000000      0.00000000</v>
  </separator>
  <separator name="performance" >
   <i type="int" name="NPAR">     4</i>
   <i type="int" name="NSIM">     4</i>
   <i type="int" name="NBLK">    -1</i>
   <i type="logical" name="LPLANE"> T  </i>
   <i type="logical" name="LSCALAPACK"> T  </i>
   <i type="logical" name="LSCAAWARE"> F  </i>
   <i type="logical" name="LSCALU"> F  </i>
   <i type="logical" name="LASYNC"> F  </i>
   <i type="logical" name="LORBITALREAL"> F  </i>
  </separator>
  <separator name="miscellaneous" >
   <i type="int" name="IDIOT">     3</i>
   <i type="logical" name="LMUSIC"> F  </i>
   <v name="POMASS">    107.86800000    196.96600000</v>
   <v name="DARWINR">      0.00000000      0.00000000</v>
   <v name="DARWINV">      1.00000000      1.00000000</v>
   <i type="logical" name="LCORR"> T  </i>
  </separator>
  <i type="logical" name="GGA_COMPAT"> T  </i>
  <i type="logical" name="LBERRY"> F  </i>
  <i type="int" name="ICORELEVEL">     0</i>
  <i type="logical" name="LDAU"> F  </i>
  <i type="int" name="I_CONSTRAINED_M">     0</i>
  <separator name="electronic exchange-correlation" >
   <i type="string" name="GGA">--</i>
   <i type="int" name="VOSKOWN">     0</i>
   <i type="logical" name="LHFCALC"> F  </i>
   <i type="string" name="PRECFOCK"></i>
   <i type="logical" name="LSYMGRAD"> F  </i>
   <i type="logical" name="LHFONE"> F  </i>
   <i type="logical" name="LRHFCALC"> F  </i>
   <i type="logical" name="LTHOMAS"> F  </i>
   <i type="logical" name="LMODELHF"> F  </i>
   <i name="ENCUT4O">     -1.00000000</i>
   <i type="int" name="EXXOEP">     0</i>
   <i type="int" name="FOURORBIT">     0</i>
   <i name="AEXX">      0.00000000</i>
   <i name="HFALPHA">      0.00000000</i>
   <i name="MCALPHA">      0.00000000</i>
   <i name="ALDAX">      1.00000000</i>
   <i name="AGGAX">      1.00000000</i>
   <i name="ALDAC">      1.00000000</i>
   <i name="AGGAC">      1.00000000</i>
   <i type="int" name="NKREDX">     1</i>
   <i type="int" name="NKREDY">     1</i>
   <i type="int" name="NKREDZ">     1</i>
   <i type="logical" name="SHIFTRED"> F  </i>
   <i type="logical" name="ODDONLY"> F  </i>
   <i type="logical" name="EVENONLY"> F  </i>
   <i type="int" name="LMAXFOCK">     0</i>
   <i type="int" name="NMAXFOCKAE">     0</i>
   <i type="logical" name="LFOCKAEDFT"> F  </i>
   <i name="HFSCREEN">      0.00000000</i>
   <i name="HFSCREENC">      0.00000000</i>
   <i type="int" name="NBANDSGWLOW">     0</i>
  </separator>
  <separator name="vdW DFT" >
   <i type="logical" name="LUSE_VDW"> F  </i>
   <i name="Zab_VDW">     -0.84910000</i>
   <i name="PARAM1">      0.12340000</i>
   <i name="PARAM2">      1.00000000</i>
   <i name="PARAM3">      0.00000000</i>
  </separator>
  <separator name="model GW" >
   <i type="int" name="MODEL_GW">     0</i>
   <i name="MODEL_EPS0">     10.68476715</i>
   <i name="MODEL_ALPHA">      1.00000000</i>
  </separator>
  <separator name="linear response parameters" >
   <i type="logical" name="LEPSILON"> F  </i>
   <i type="logical" name="LRPA"> F  </i>
   <i type="logical" name="LNABLA"> F  </i>
   <i type="logical" name="LVEL"> F  </i>
   <i type="int" name="KINTER">     0</i>
   <i name="CSHIFT">      0.10000000</i>
   <i name="OMEGAMAX">     -1.00000000</i>
   <i name="DEG_THRESHOLD">      0.00200000</i>
  </separator>
  <separator name="orbital magnetization" >
   <i type="logical" name="NUCIND"> F  </i>
   <v name="MAGPOS">      0.00000000      0.00000000      0.00000000</v>
   <i type="logical" name="LNICSALL"> T  </i>
   <i type="logical" name="ORBITALMAG"> F  </i>
   <i type="logical" name="LMAGBLOCH"> F  </i>
   <i type="logical" name="LCHIMAG"> F  </i>
   <i type="logical" name="LGAUGE"> T  </i>
   <i type="int" name="MAGATOM">     0</i>
   <v name="MAGDIPOL">      0.00000000      0.00000000      0.00000000</v>
   <v name="AVECCONST">      0.00000000      0.00000000      0.00000000</v>
  </separator>
  <separator name="response functions" >
   <i type="logical" name="LADDER"> F  </i>
   <i type="logical" name="LFXC"> F  </i>
   <i type="logical" name="LHARTREE"> T  </i>
   <i type="int" name="IBSE">     0</i>
   <i type="logical" name="LTCTE"> F  </i>
   <i type="logical" name="LTETE"> F  </i>
   <i type="logical" name="LTRIPLET"> F  </i>
   <i type="logical" name="LFXCEPS"> F  </i>
   <i type="logical" name="LFXHEG"> F  </i>
   <i type="logical" name="L2ORDER"> F  </i>
   <i type="logical" name="LUSEW"> F  </i>
   <i name="ENCUTGW">     -2.00000000</i>
   <i name="ENCUTGWSOFT">     -2.00000000</i>
   <i name="ENCUTLF">     -1.00000000</i>
   <i type="int" name="LMAXMP2">    -1</i>
   <i name="SCISSOR">      0.00000000</i>
   <i type="int" name="NOMEGA">     0</i>
   <i type="int" name="NOMEGAR">     0</i>
   <i type="int" name="NBANDSGW">    -1</i>
   <i type="int" name="NBANDSO">    -1</i>
   <i type="int" name="NBANDSV">    -1</i>
   <i type="int" name="NELM">   100</i>
   <i type="int" name="DIM">     3</i>
   <i type="int" name="ANTIRES">     0</i>
   <i name="OMEGAMAX">    -30.00000000</i>
   <i name="OMEGAMIN">    -30.00000000</i>
   <i name="OMEGATL">   -200.00000000</i>
   <i type="int" name="OMEGAGRID">     0</i>
   <i name="CSHIFT">     -0.10000000</i>
   <i type="logical" name="SELFENERGY"> F  </i>
   <i type="logical" name="LSPECTRAL"> F  </i>
   <i type="logical" name="ODDONLYGW"> F  </i>
   <i type="logical" name="EVENONLYGW"> F  </i>
   <i type="int" name="NKREDLFX">     1</i>
   <i type="int" name="NKREDLFY">     1</i>
   <i type="int" name="NKREDLFZ">     1</i>
   <i type="int" name="MAXMEM">  1800</i>
   <i type="int" name="TELESCOPE">     0</i>
   <i type="int" name="TAUPAR">     1</i>
  </separator>
  <separator name="External order field" >
   <i name="OFIELD_KAPPA">      0.00000000</i>
   <v name="OFIELD_K">      0.00000000      0.00000000      0.00000000</v>
   <i name="OFIELD_Q6_NEAR">      0.00000000</i>
   <i name="OFIELD_Q6_FAR">      0.00000000</i>
   <i name="OFIELD_A">      0.00000000</i>
  </separator>
 </parameters>
 <atominfo>
  <atoms>       6 </atoms>
  <types>       2 </types>
  <array name="atoms" >
   <dimension dim="1">ion</dimension>
   <field type="string">element</field>
   <field type="int">atomtype</field>
   <set>
    <rc><c>Ag</c><c>   1</c></rc>
    <rc><c>Ag</c><c>   1</c></rc>
    <rc><c>Ag</c><c>   1</c></rc>
    <rc><c>Ag</c><c>   1</c></rc>
    <rc><c>Au</c><c>   2</c></rc>
    <rc><c>Au</c><c>   2</c></rc>
   </set>
  </array>
  <array name="atomtypes" >
   <dimension dim="1">type</dimension>
   <field type="int">atomspertype</field>
   <field type="string">element</field>
   <field>mass</field>
   <field>valence</field>
   <field type="string">pseudopotential</field>
   <set>
    <rc><c>   4</c><c>Ag</c><c>    107.86800000</c><c>     11.00000000</c><c>  PAW_PBE Ag 02Apr2005                  </c></rc>
    <rc><c>   2</c><c>Au</c><c>    196.96600000</c><c>     11.00000000</c><c>  PAW_PBE Au 04Oct2007                  </c></rc>
   </set>
  </array>
 </atominfo>
 <structure name="initialpos" >
  <crystal>
   <varray name="basis" >
    <v>       2.06868148       0.00000000       2.06868148 </v>
    <v>       0.00000000      -2.06868148      -2.06868148 </v>
    <v>       8.32255271       8.32255271      -8.32255271 </v>
   </varray>
   <i name="volume">    106.84767148 </i>
   <varray name="rec_basis" >
    <v>       0.32226646      -0.16113323       0.16113323 </v>
    <v>       0.16113323      -0.32226646      -0.16113323 </v>
    <v>       0.04005181       0.04005181      -0.04005181 </v>
   </varray>
  </crystal>
  <varray name="positions" >
   <v>       0.66666667       0.33333333       0.33418113 </v>
   <v>       0.00000000       0.00000000       0.49983011 </v>
   <v>       0.33333333       0.66666667       0.66683656 </v>
   <v>       0.66666667       0.33333333       0.83248554 </v>
   <v>       0.00000000       0.00000000       0.99835246 </v>
   <v>       0.33333333       0.66666667       0.16831420 </v>
  </varray>
 </structure>
 <calculation>
  <scstep>
   <time name="dav">    4.65    4.69</time>
   <time name="total">    4.71    4.75</time>
   <energy>
    <i name="alphaZ">    321.87342766 </i>
    <i name="ewald">  -5780.50243453 </i>
    <i name="hartreedc">  -1097.04788790 </i>
    <i name="XCdc">    -11.10691634 </i>
    <i name="pawpsdc">   5762.04360401 </i>
    <i name="pawaedc">  -5531.41736657 </i>
    <i name="eentropy">     -0.00150582 </i>
    <i name="bandstr">    784.06375847 </i>
    <i name="atom">   6001.21416313 </i>
    <i name="e_fr_energy">    449.11884211 </i>
    <i name="e_wo_entrp">    449.12034793 </i>
    <i name="e_0_energy">    449.11934405 </i>
   </energy>
  </scstep>
  <scstep>
   <time name="dav">    4.81    4.81</time>
   <time name="total">    4.82    4.84</time>
   <energy>
    <i name="e_fr_energy">     -7.24387469 </i>
    <i name="e_wo_entrp">     -7.24000260 </i>
    <i name="e_0_energy">     -7.24258399 </i>
   </energy>
  </scstep>
  <scstep>
   <time name="dav">    5.18    5.18</time>
   <time name="total">    5.20    5.21</time>
   <energy>
    <i name="e_fr_energy">    -18.89473553 </i>
    <i name="e_wo_entrp">    -18.89356744 </i>
    <i name="e_0_energy">    -18.89434617 </i>
   </energy>
  </scstep>
  <scstep>
   <time name="dav">    4.97    5.02</time>
   <time name="total">    4.99    5.05</time>
   <energy>
    <i name="e_fr_energy">    -18.98041890 </i>
    <i name="e_wo_entrp">    -18.97918883 </i>
    <i name="e_0_energy">    -18.98000888 </i>
   </energy>
  </scstep>
  <scstep>
   <time name="dav">    5.22    5.22</time>
   <time name="total">    5.59    5.60</time>
   <energy>
    <i name="e_fr_energy">    -18.98118187 </i>
    <i name="e_wo_entrp">    -18.97995149 </i>
    <i name="e_0_energy">    -18.98077175 </i>
   </energy>
  </scstep>
  <scstep>
   <time name="diag">    1.28    1.28</time>
   <time name="diis">    2.26    2.26</time>
   <time name="orth">    0.19    0.19</time>
   <time name="total">    4.12    4.14</time>
   <energy>
    <i name="e_fr_energy">    -17.54198526 </i>
    <i name="e_wo_entrp">    -17.54107968 </i>
    <i name="e_0_energy">    -17.54168340 </i>
   </energy>
  </scstep>
  <scstep>
   <time name="diag">    1.27    1.27</time>
   <time name="diis">    2.27    2.29</time>
   <time name="orth">    0.19    0.19</time>
   <time name="total">    4.13    4.16</time>
   <energy>
    <i name="e_fr_energy">    -17.49939571 </i>
    <i name="e_wo_entrp">    -17.49539869 </i>
    <i name="e_0_energy">    -17.49806337 </i>
   </energy>
  </scstep>
  <scstep>
   <time name="diag">    1.28    1.28</time>
   <time name="diis">    2.25    2.25</time>
   <time name="orth">    0.19    0.19</time>
   <time name="total">    4.12    4.13</time>
   <energy>
    <i name="e_fr_energy">    -17.46701529 </i>
    <i name="e_wo_entrp">    -17.46776030 </i>
    <i name="e_0_energy">    -17.46726363 </i>
   </energy>
  </scstep>
  <scstep>
   <time name="diag">    1.27    1.27</time>
   <time name="diis">    2.26    2.26</time>
   <time name="orth">    0.19    0.19</time>
   <time name="total">    4.13    4.14</time>
   <energy>
    <i name="e_fr_energy">    -17.41796406 </i>
    <i name="e_wo_entrp">    -17.42233703 </i>
    <i name="e_0_energy">    -17.41942172 </i>
   </energy>
  </scstep>
  <scstep>
   <time name="diag">    1.32    1.34</time>
   <time name="diis">    2.25    2.25</time>
   <time name="orth">    0.19    0.19</time>
   <time name="total">    4.18    4.21</time>
   <energy>
    <i name="e_fr_energy">    -17.41763166 </i>
    <i name="e_wo_entrp">    -17.42179932 </i>
    <i name="e_0_energy">    -17.41902088 </i>
   </energy>
  </scstep>
  <scstep>
   <time name="diag">    1.28    1.28</time>
   <time name="diis">    2.26    2.26</time>
   <time name="orth">    0.19    0.19</time>
   <time name="total">    4.13    4.14</time>
   <energy>
    <i name="e_fr_energy">    -17.41764056 </i>
    <i name="e_wo_entrp">    -17.42181440 </i>
    <i name="e_0_energy">    -17.41903184 </i>
   </energy>
  </scstep>
  <scstep>
   <time name="diag">    1.28    1.28</time>
   <time name="diis">    2.29    2.29</time>
   <time name="orth">    0.19    0.19</time>
   <time name="total">    4.17    4.18</time>
   <energy>
    <i name="e_fr_energy">    -17.41765086 </i>
    <i name="e_wo_entrp">    -17.42185049 </i>
    <i name="e_0_energy">    -17.41905073 </i>
   </energy>
  </scstep>
  <scstep>
   <time name="diag">    1.28    1.28</time>
   <time name="diis">    1.45    1.45</time>
   <time name="orth">    0.19    0.19</time>
   <time name="total">    3.32    3.33</time>
   <energy>
    <i name="e_fr_energy">    -17.41764915 </i>
    <i name="e_wo_entrp">    -17.42183655 </i>
    <i name="e_0_energy">    -17.41904495 </i>
   </energy>
  </scstep>
  <scstep>
   <time name="diag">    1.27    1.27</time>
   <time name="diis">    1.41    1.41</time>
   <time name="orth">    0.19    0.19</time>
   <time name="total">    2.93    2.94</time>
   <energy>
    <i name="alphaZ">    321.87342766 </i>
    <i name="ewald">  -5780.50243453 </i>
    <i name="hartreedc">  -1025.62696918 </i>
    <i name="XCdc">    -13.91336807 </i>
    <i name="pawpsdc">   6462.30938794 </i>
    <i name="pawaedc">  -6246.35452408 </i>
    <i name="eentropy">      0.00418712 </i>
    <i name="bandstr">    263.57848072 </i>
    <i name="atom">   6001.21416313 </i>
    <i name="e_fr_energy">    -17.41764930 </i>
    <i name="e_wo_entrp">    -17.42183642 </i>
    <i name="e_0_energy">    -17.41904501 </i>
   </energy>
  </scstep>
  <structure>
   <crystal>
    <varray name="basis" >
     <v>       2.06868148       0.00000000       2.06868148 </v>
     <v>       0.00000000      -2.06868148      -2.06868148 </v>
     <v>       8.32255271       8.32255271      -8.32255271 </v>
    </varray>
    <i name="volume">    106.84767148 </i>
    <varray name="rec_basis" >
     <v>       0.32226646      -0.16113323       0.16113323 </v>
     <v>       0.16113323      -0.32226646      -0.16113323 </v>
     <v>       0.04005181       0.04005181      -0.04005181 </v>
    </varray>
   </crystal>
   <varray name="positions" >
    <v>       0.66666667       0.33333333       0.33418113 </v>
    <v>       0.00000000       0.00000000       0.49983011 </v>
    <v>       0.33333333       0.66666667       0.66683656 </v>
    <v>       0.66666667       0.33333333       0.83248554 </v>
    <v>       0.00000000       0.00000000       0.99835246 </v>
    <v>       0.33333333       0.66666667       0.16831420 </v>
   </varray>
  </structure>
  <varray name="forces" >
   <v>       0.00829612       0.00829612      -0.00829612 </v>
   <v>       0.00611636       0.00611636      -0.00611636 </v>
   <v>      -0.00611636      -0.00611636       0.00611636 </v>
   <v>      -0.00829612      -0.00829612       0.00829612 </v>
   <v>      -0.00203886      -0.00203886       0.00203886 </v>
   <v>       0.00203886       0.00203886      -0.00203886 </v>
  </varray>
  <varray name="stress" >
   <v>       1.40594843       0.20563375      -0.20563375 </v>
   <v>       0.20563375       1.40594843      -0.20563375 </v>
   <v>      -0.20563375      -0.20563375       1.40594843 </v>
  </varray>
  <energy>
   <i name="e_fr_energy">    -17.41764930 </i>
   <i name="e_wo_entrp">    -17.41904501 </i>
   <i name="e_0_energy">      0.00418712 </i>
  </energy>
  <time name="totalsc">   63.99   64.32</time>
  <eigenvalues>
   <array>
    <dimension dim="1">band</dimension>
    <dimension dim="2">kpoint</dimension>
    <dimension dim="3">spin</dimension>
    <field>eigene</field>
    <field>occ</field>
    <set>
     <set comment="spin 1">
      <set comment="kpoint 1">
       <r>   -0.5408    1.0000 </r>
       <r>    0.7224    1.0000 </r>
       <r>    1.0594    1.0000 </r>
       <r>    1.6812    1.0000 </r>
       <r>    2.0241    1.0000 </r>
       <r>    2.0249    1.0000 </r>
       <r>    3.3853    1.0000 </r>
       <r>    3.4114    1.0000 </r>
       <r>    3.4801    1.0000 </r>
       <r>    3.4801    1.0000 </r>
       <r>    3.5108    1.0000 </r>
       <r>    3.5108    1.0000 </r>
       <r>    3.5580    1.0000 </r>
       <r>    3.5857    1.0000 </r>
       <r>    3.5857    1.0000 </r>
       <r>    3.6225    1.0000 </r>
       <r>    3.6225    1.0000 </r>
       <r>    3.8228    1.0000 </r>
       <r>    3.8228    1.0000 </r>
       <r>    3.8640    1.0000 </r>
       <r>    3.8640    1.0000 </r>
       <r>    4.4379    1.0000 </r>
       <r>    4.4379    1.0000 </r>
       <r>    4.4900    1.0000 </r>
       <r>    4.4900    1.0000 </r>
       <r>    4.7351    1.0000 </r>
       <r>    4.7573    1.0000 </r>
       <r>    4.7573    1.0000 </r>
       <r>    4.7923    1.0000 </r>
       <r>    4.9864    1.0000 </r>
       <r>    4.9864    1.0000 </r>
       <r>    5.2401    1.0000 </r>
       <r>    5.2401    1.0000 </r>
       <r>    5.8181    1.0000 </r>
       <r>    5.8181    1.0000 </r>
       <r>    7.6742    1.0213 </r>
       <r>   11.2844    0.0000 </r>
       <r>   15.6782    0.0000 </r>
       <r>   15.7495    0.0000 </r>
       <r>   21.6637    0.0000 </r>
      </set>
      <set comment="kpoint 2">
       <r>   -0.5030    1.0000 </r>
       <r>    0.7582    1.0000 </r>
       <r>    1.0929    1.0000 </r>
       <r>    1.7104    1.0000 </r>
       <r>    2.0472    1.0000 </r>
       <r>    2.0505    1.0000 </r>
       <r>    3.3609    1.0000 </r>
       <r>    3.3843    1.0000 </r>
       <r>    3.4676    1.0000 </r>
       <r>    3.4975    1.0000 </r>
       <r>    3.5082    1.0000 </r>
       <r>    3.5226    1.0000 </r>
       <r>    3.5515    1.0000 </r>
       <r>    3.5793    1.0000 </r>
       <r>    3.6022    1.0000 </r>
       <r>    3.6387    1.0000 </r>
       <r>    3.6442    1.0000 </r>
       <r>    3.8200    1.0000 </r>
       <r>    3.8423    1.0000 </r>
       <r>    3.8670    1.0000 </r>
       <r>    3.8833    1.0000 </r>
       <r>    4.3977    1.0000 </r>
       <r>    4.4099    1.0000 </r>
       <r>    4.4855    1.0000 </r>
       <r>    4.5100    1.0000 </r>
       <r>    4.5106    1.0000 </r>
       <r>    4.6311    1.0000 </r>
       <r>    4.7593    1.0000 </r>
       <r>    4.9003    1.0000 </r>
       <r>    4.9775    1.0000 </r>
       <r>    5.0941    1.0000 </r>
       <r>    5.2447    1.0000 </r>
       <r>    5.3388    1.0000 </r>
       <r>    5.8073    1.0000 </r>
       <r>    5.8189    1.0000 </r>
       <r>    7.8131    1.0351 </r>
       <r>   11.2883    0.0000 </r>
       <r>   15.7006    0.0000 </r>
       <r>   15.7742    0.0000 </r>
       <r>   21.6989    0.0000 </r>
      </set>
      <set comment="kpoint 3">
       <r>   -0.3910    1.0000 </r>
       <r>    0.8636    1.0000 </r>
       <r>    1.1919    1.0000 </r>
       <r>    1.7955    1.0000 </r>
       <r>    2.1139    1.0000 </r>
       <r>    2.1256    1.0000 </r>
       <r>    3.2919    1.0000 </r>
       <r>    3.3269    1.0000 </r>
       <r>    3.4308    1.0000 </r>
       <r>    3.4880    1.0000 </r>
       <r>    3.5488    1.0000 </r>
       <r>    3.5568    1.0000 </r>
       <r>    3.5570    1.0000 </r>
       <r>    3.5649    1.0000 </r>
       <r>    3.6512    1.0000 </r>
       <r>    3.6575    1.0000 </r>
       <r>    3.6862    1.0000 </r>
       <r>    3.8257    1.0000 </r>
       <r>    3.8742    1.0000 </r>
       <r>    3.8969    1.0000 </r>
       <r>    3.9408    1.0000 </r>
       <r>    4.1836    1.0000 </r>
       <r>    4.3256    1.0000 </r>
       <r>    4.3638    1.0000 </r>
       <r>    4.3930    1.0000 </r>
       <r>    4.5387    1.0000 </r>
       <r>    4.5561    1.0000 </r>
       <r>    4.7597    1.0000 </r>
       <r>    4.9575    1.0000 </r>
       <r>    4.9596    1.0000 </r>
       <r>    5.0630    1.0000 </r>
       <r>    5.2552    1.0000 </r>
       <r>    5.5549    1.0000 </r>
       <r>    5.8212    1.0000 </r>
       <r>    5.9264    1.0000 </r>
       <r>    8.1684    0.4924 </r>
       <r>   11.3012    0.0000 </r>
       <r>   15.7674    0.0000 </r>
       <r>   15.8482    0.0000 </r>
       <r>   21.7973    0.0000 </r>
      </set>
      <set comment="kpoint 4">
       <r>   -0.2082    1.0000 </r>
       <r>    1.0323    1.0000 </r>
       <r>    1.3506    1.0000 </r>
       <r>    1.9284    1.0000 </r>
       <r>    2.2140    1.0000 </r>
       <r>    2.2454    1.0000 </r>
       <r>    3.1941    1.0000 </r>
       <r>    3.2691    1.0000 </r>
       <r>    3.3728    1.0000 </r>
       <r>    3.4471    1.0000 </r>
       <r>    3.5156    1.0000 </r>
       <r>    3.5893    1.0000 </r>
       <r>    3.6084    1.0000 </r>
       <r>    3.6321    1.0000 </r>
       <r>    3.6392    1.0000 </r>
       <r>    3.7298    1.0000 </r>
       <r>    3.7618    1.0000 </r>
       <r>    3.8423    1.0000 </r>
       <r>    3.8655    1.0000 </r>
       <r>    3.9271    1.0000 </r>
       <r>    3.9716    1.0000 </r>
       <r>    4.0362    1.0000 </r>
       <r>    4.1086    1.0000 </r>
       <r>    4.3271    1.0000 </r>
       <r>    4.3464    1.0000 </r>
       <r>    4.5397    1.0000 </r>
       <r>    4.5701    1.0000 </r>
       <r>    4.7440    1.0000 </r>
       <r>    4.8282    1.0000 </r>
       <r>    4.9530    1.0000 </r>
       <r>    5.0136    1.0000 </r>
       <r>    5.2654    1.0000 </r>
       <r>    5.8206    1.0000 </r>
       <r>    5.8247    1.0000 </r>
       <r>    6.2057    1.0000 </r>
       <r>    8.6487   -0.0226 </r>
       <r>   11.3263    0.0000 </r>
       <r>   15.8767    0.0000 </r>
       <r>   15.9730    0.0000 </r>
       <r>   21.9403    0.0000 </r>
      </set>
      <set comment="kpoint 5">
       <r>    0.0382    1.0000 </r>
       <r>    1.2513    1.0000 </r>
       <r>    1.5569    1.0000 </r>
       <r>    2.0917    1.0000 </r>
       <r>    2.3264    1.0000 </r>
       <r>    2.4031    1.0000 </r>
       <r>    3.0817    1.0000 </r>
       <r>    3.2316    1.0000 </r>
       <r>    3.3000    1.0000 </r>
       <r>    3.3924    1.0000 </r>
       <r>    3.4396    1.0000 </r>
       <r>    3.5146    1.0000 </r>
       <r>    3.6626    1.0000 </r>
       <r>    3.6697    1.0000 </r>
       <r>    3.6964    1.0000 </r>
       <r>    3.7436    1.0000 </r>
       <r>    3.8292    1.0000 </r>
       <r>    3.8412    1.0000 </r>
       <r>    3.8601    1.0000 </r>
       <r>    3.9097    1.0000 </r>
       <r>    3.9509    1.0000 </r>
       <r>    4.0386    1.0000 </r>
       <r>    4.1616    1.0000 </r>
       <r>    4.3266    1.0000 </r>
       <r>    4.3354    1.0000 </r>
       <r>    4.4767    1.0000 </r>
       <r>    4.5929    1.0000 </r>
       <r>    4.6150    1.0000 </r>
       <r>    4.7056    1.0000 </r>
       <r>    4.9717    1.0000 </r>
       <r>    5.0738    1.0000 </r>
       <r>    5.2726    1.0000 </r>
       <r>    5.8288    1.0000 </r>
       <r>    6.1080    1.0000 </r>
       <r>    6.5394    1.0000 </r>
       <r>    9.2014    0.0000 </r>
       <r>   11.3695    0.0000 </r>
       <r>   16.0237    0.0000 </r>
       <r>   16.1516    0.0000 </r>
       <r>   21.1791    0.0000 </r>
      </set>
      <set comment="kpoint 6">
       <r>    0.3364    1.0000 </r>
       <r>    1.4963    1.0000 </r>
       <r>    1.7875    1.0000 </r>
       <r>    2.2524    1.0000 </r>
       <r>    2.4197    1.0000 </r>
       <r>    2.5872    1.0000 </r>
       <r>    2.9625    1.0000 </r>
       <r>    3.2126    1.0000 </r>
       <r>    3.2371    1.0000 </r>
       <r>    3.2540    1.0000 </r>
       <r>    3.3303    1.0000 </r>
       <r>    3.3937    1.0000 </r>
       <r>    3.6879    1.0000 </r>
       <r>    3.7155    1.0000 </r>
       <r>    3.7274    1.0000 </r>
       <r>    3.7575    1.0000 </r>
       <r>    3.8432    1.0000 </r>
       <r>    3.8769    1.0000 </r>
       <r>    3.9080    1.0000 </r>
       <r>    3.9810    1.0000 </r>
       <r>    4.0141    1.0000 </r>
       <r>    4.0988    1.0000 </r>
       <r>    4.2277    1.0000 </r>
       <r>    4.2907    1.0000 </r>
       <r>    4.3890    1.0000 </r>
       <r>    4.4297    1.0000 </r>
       <r>    4.5094    1.0000 </r>
       <r>    4.6561    1.0000 </r>
       <r>    4.6880    1.0000 </r>
       <r>    5.0166    1.0000 </r>
       <r>    5.1605    1.0000 </r>
       <r>    5.2782    1.0000 </r>
       <r>    5.8330    1.0000 </r>
       <r>    6.4062    1.0000 </r>
       <r>    6.8932    1.0000 </r>
       <r>    9.7994    0.0000 </r>
       <r>   11.4390    0.0000 </r>
       <r>   16.2006    0.0000 </r>
       <r>   16.3864    0.0000 </r>
       <r>   19.9001    0.0000 </r>
      </set>
      <set comment="kpoint 7">
       <r>    0.6669    1.0000 </r>
       <r>    1.7264    1.0000 </r>
       <r>    2.0041    1.0000 </r>
       <r>    2.3568    1.0000 </r>
       <r>    2.4755    1.0000 </r>
       <r>    2.7684    1.0000 </r>
       <r>    2.8419    1.0000 </r>
       <r>    2.9879    1.0000 </r>
       <r>    3.1667    1.0000 </r>
       <r>    3.2236    1.0000 </r>
       <r>    3.3209    1.0000 </r>
       <r>    3.3709    1.0000 </r>
       <r>    3.6231    1.0000 </r>
       <r>    3.7476    1.0000 </r>
       <r>    3.7628    1.0000 </r>
       <r>    3.8276    1.0000 </r>
       <r>    3.8492    1.0000 </r>
       <r>    3.9177    1.0000 </r>
       <r>    4.0243    1.0000 </r>
       <r>    4.0273    1.0000 </r>
       <r>    4.1213    1.0000 </r>
       <r>    4.1386    1.0000 </r>
       <r>    4.2112    1.0000 </r>
       <r>    4.4034    1.0000 </r>
       <r>    4.4589    1.0000 </r>
       <r>    4.4926    1.0000 </r>
       <r>    4.5828    1.0000 </r>
       <r>    4.6192    1.0000 </r>
       <r>    4.7962    1.0000 </r>
       <r>    5.0912    1.0000 </r>
       <r>    5.2703    1.0000 </r>
       <r>    5.2904    1.0000 </r>
       <r>    5.8371    1.0000 </r>
       <r>    6.7136    1.0000 </r>
       <r>    7.2619    1.0001 </r>
       <r>   10.4252    0.0000 </r>
       <r>   11.5462    0.0000 </r>
       <r>   16.3954    0.0000 </r>
       <r>   16.6722    0.0000 </r>
       <r>   18.6086    0.0000 </r>
      </set>
      <set comment="kpoint 8">
       <r>    0.9987    1.0000 </r>
       <r>    1.8902    1.0000 </r>
       <r>    2.1628    1.0000 </r>
       <r>    2.3722    1.0000 </r>
       <r>    2.4942    1.0000 </r>
       <r>    2.7236    1.0000 </r>
       <r>    2.7483    1.0000 </r>
       <r>    2.8646    1.0000 </r>
       <r>    3.1278    1.0000 </r>
       <r>    3.1973    1.0000 </r>
       <r>    3.3106    1.0000 </r>
       <r>    3.5036    1.0000 </r>
       <r>    3.5961    1.0000 </r>
       <r>    3.7569    1.0000 </r>
       <r>    3.7678    1.0000 </r>
       <r>    3.8570    1.0000 </r>
       <r>    3.8923    1.0000 </r>
       <r>    3.9108    1.0000 </r>
       <r>    4.0701    1.0000 </r>
       <r>    4.1524    1.0000 </r>
       <r>    4.2685    1.0000 </r>
       <r>    4.3627    1.0000 </r>
       <r>    4.3753    1.0000 </r>
       <r>    4.4965    1.0000 </r>
       <r>    4.5006    1.0000 </r>
       <r>    4.6268    1.0000 </r>
       <r>    4.6315    1.0000 </r>
       <r>    4.7231    1.0000 </r>
       <r>    4.9377    1.0000 </r>
       <r>    5.1950    1.0000 </r>
       <r>    5.3386    1.0000 </r>
       <r>    5.4021    1.0000 </r>
       <r>    5.8415    1.0000 </r>
       <r>    7.0342    1.0000 </r>
       <r>    7.6504    1.0178 </r>
       <r>   11.0585    0.0000 </r>
       <r>   11.7069    0.0000 </r>
       <r>   16.5631    0.0000 </r>
       <r>   16.9355    0.0000 </r>
       <r>   17.3908    0.0000 </r>
      </set>
      <set comment="kpoint 9">
       <r>    1.2878    1.0000 </r>
       <r>    1.9637    1.0000 </r>
       <r>    2.2306    1.0000 </r>
       <r>    2.3537    1.0000 </r>
       <r>    2.4636    1.0000 </r>
       <r>    2.5450    1.0000 </r>
       <r>    2.6170    1.0000 </r>
       <r>    2.7888    1.0000 </r>
       <r>    3.0518    1.0000 </r>
       <r>    3.2472    1.0000 </r>
       <r>    3.3593    1.0000 </r>
       <r>    3.5871    1.0000 </r>
       <r>    3.6181    1.0000 </r>
       <r>    3.7172    1.0000 </r>
       <r>    3.7639    1.0000 </r>
       <r>    3.9000    1.0000 </r>
       <r>    3.9090    1.0000 </r>
       <r>    4.1028    1.0000 </r>
       <r>    4.2085    1.0000 </r>
       <r>    4.3057    1.0000 </r>
       <r>    4.4246    1.0000 </r>
       <r>    4.5267    1.0000 </r>
       <r>    4.5984    1.0000 </r>
       <r>    4.6034    1.0000 </r>
       <r>    4.7149    1.0000 </r>
       <r>    4.7486    1.0000 </r>
       <r>    4.8178    1.0000 </r>
       <r>    4.8627    1.0000 </r>
       <r>    5.0639    1.0000 </r>
       <r>    5.3208    1.0000 </r>
       <r>    5.4745    1.0000 </r>
       <r>    5.5621    1.0000 </r>
       <r>    5.8482    1.0000 </r>
       <r>    7.3770    1.0006 </r>
       <r>    8.0691    0.7575 </r>
       <r>   11.6526    0.0000 </r>
       <r>   11.9542    0.0000 </r>
       <r>   15.9468    0.0000 </r>
       <r>   16.6037    0.0000 </r>
       <r>   16.7809    0.0000 </r>
      </set>
      <set comment="kpoint 10">
       <r>    1.4912    1.0000 </r>
       <r>    1.9652    1.0000 </r>
       <r>    2.2166    1.0000 </r>
       <r>    2.3309    1.0000 </r>
       <r>    2.3826    1.0000 </r>
       <r>    2.4056    1.0000 </r>
       <r>    2.5249    1.0000 </r>
       <r>    2.6715    1.0000 </r>
       <r>    2.9315    1.0000 </r>
       <r>    3.2398    1.0000 </r>
       <r>    3.4752    1.0000 </r>
       <r>    3.5784    1.0000 </r>
       <r>    3.6664    1.0000 </r>
       <r>    3.7013    1.0000 </r>
       <r>    3.7679    1.0000 </r>
       <r>    3.9051    1.0000 </r>
       <r>    4.0221    1.0000 </r>
       <r>    4.1971    1.0000 </r>
       <r>    4.4315    1.0000 </r>
       <r>    4.5470    1.0000 </r>
       <r>    4.5820    1.0000 </r>
       <r>    4.6829    1.0000 </r>
       <r>    4.7331    1.0000 </r>
       <r>    4.8249    1.0000 </r>
       <r>    4.8415    1.0000 </r>
       <r>    4.8946    1.0000 </r>
       <r>    5.1183    1.0000 </r>
       <r>    5.1732    1.0000 </r>
       <r>    5.2759    1.0000 </r>
       <r>    5.4994    1.0000 </r>
       <r>    5.6699    1.0000 </r>
       <r>    5.7756    1.0000 </r>
       <r>    5.8646    1.0000 </r>
       <r>    7.7546    1.0328 </r>
       <r>    8.5298   -0.0354 </r>
       <r>   12.0913    0.0000 </r>
       <r>   12.3448    0.0000 </r>
       <r>   14.7453    0.0000 </r>
       <r>   15.5776    0.0000 </r>
       <r>   15.8125    0.0000 </r>
      </set>
      <set comment="kpoint 11">
       <r>    1.5971    1.0000 </r>
       <r>    1.9211    1.0000 </r>
       <r>    2.1907    1.0000 </r>
       <r>    2.2175    1.0000 </r>
       <r>    2.3115    1.0000 </r>
       <r>    2.3560    1.0000 </r>
       <r>    2.4576    1.0000 </r>
       <r>    2.5580    1.0000 </r>
       <r>    2.8001    1.0000 </r>
       <r>    3.2153    1.0000 </r>
       <r>    3.5206    1.0000 </r>
       <r>    3.6162    1.0000 </r>
       <r>    3.6172    1.0000 </r>
       <r>    3.6654    1.0000 </r>
       <r>    3.8976    1.0000 </r>
       <r>    3.9448    1.0000 </r>
       <r>    4.1621    1.0000 </r>
       <r>    4.1861    1.0000 </r>
       <r>    4.5180    1.0000 </r>
       <r>    4.7188    1.0000 </r>
       <r>    4.7964    1.0000 </r>
       <r>    4.8688    1.0000 </r>
       <r>    4.9358    1.0000 </r>
       <r>    4.9615    1.0000 </r>
       <r>    4.9887    1.0000 </r>
       <r>    5.1445    1.0000 </r>
       <r>    5.1478    1.0000 </r>
       <r>    5.6106    1.0000 </r>
       <r>    5.6660    1.0000 </r>
       <r>    5.8690    1.0000 </r>
       <r>    5.8931    1.0000 </r>
       <r>    5.9239    1.0000 </r>
       <r>    6.1109    1.0000 </r>
       <r>    8.1780    0.4653 </r>
       <r>    9.0391   -0.0002 </r>
       <r>   12.3867    0.0000 </r>
       <r>   12.6315    0.0000 </r>
       <r>   13.6065    0.0000 </r>
       <r>   14.4382    0.0000 </r>
       <r>   15.1248    0.0000 </r>
      </set>
      <set comment="kpoint 12">
       <r>    1.6341    1.0000 </r>
       <r>    1.8583    1.0000 </r>
       <r>    2.1101    1.0000 </r>
       <r>    2.1720    1.0000 </r>
       <r>    2.2493    1.0000 </r>
       <r>    2.3158    1.0000 </r>
       <r>    2.4199    1.0000 </r>
       <r>    2.4603    1.0000 </r>
       <r>    2.6793    1.0000 </r>
       <r>    3.2006    1.0000 </r>
       <r>    3.4566    1.0000 </r>
       <r>    3.5723    1.0000 </r>
       <r>    3.5752    1.0000 </r>
       <r>    3.8317    1.0000 </r>
       <r>    3.8889    1.0000 </r>
       <r>    4.0833    1.0000 </r>
       <r>    4.1250    1.0000 </r>
       <r>    4.3415    1.0000 </r>
       <r>    4.5753    1.0000 </r>
       <r>    4.8110    1.0000 </r>
       <r>    4.8573    1.0000 </r>
       <r>    4.9954    1.0000 </r>
       <r>    5.0483    1.0000 </r>
       <r>    5.0908    1.0000 </r>
       <r>    5.1785    1.0000 </r>
       <r>    5.2506    1.0000 </r>
       <r>    5.4292    1.0000 </r>
       <r>    5.7430    1.0000 </r>
       <r>    6.0221    1.0000 </r>
       <r>    6.0839    1.0000 </r>
       <r>    6.1768    1.0000 </r>
       <r>    6.5306    1.0000 </r>
       <r>    6.6985    1.0000 </r>
       <r>    8.6433   -0.0234 </r>
       <r>    9.5764    0.0000 </r>
       <r>   12.1055    0.0000 </r>
       <r>   12.3135    0.0000 </r>
       <r>   13.1450    0.0000 </r>
       <r>   13.4130    0.0000 </r>
       <r>   15.1124    0.0000 </r>
      </set>
      <set comment="kpoint 13">
       <r>    1.6386    1.0000 </r>
       <r>    1.8001    1.0000 </r>
       <r>    2.0330    1.0000 </r>
       <r>    2.1555    1.0000 </r>
       <r>    2.1992    1.0000 </r>
       <r>    2.2849    1.0000 </r>
       <r>    2.3823    1.0000 </r>
       <r>    2.4076    1.0000 </r>
       <r>    2.5782    1.0000 </r>
       <r>    3.2029    1.0000 </r>
       <r>    3.3848    1.0000 </r>
       <r>    3.5376    1.0000 </r>
       <r>    3.5436    1.0000 </r>
       <r>    3.8812    1.0000 </r>
       <r>    3.9869    1.0000 </r>
       <r>    4.0946    1.0000 </r>
       <r>    4.1720    1.0000 </r>
       <r>    4.4629    1.0000 </r>
       <r>    4.6153    1.0000 </r>
       <r>    4.8538    1.0000 </r>
       <r>    4.8943    1.0000 </r>
       <r>    5.0972    1.0000 </r>
       <r>    5.1388    1.0000 </r>
       <r>    5.1795    1.0000 </r>
       <r>    5.2250    1.0000 </r>
       <r>    5.4141    1.0000 </r>
       <r>    5.6338    1.0000 </r>
       <r>    5.7634    1.0000 </r>
       <r>    6.1596    1.0000 </r>
       <r>    6.2376    1.0000 </r>
       <r>    6.8444    1.0000 </r>
       <r>    7.1759    1.0000 </r>
       <r>    7.5003    1.0037 </r>
       <r>    9.1126    0.0000 </r>
       <r>    9.9674    0.0000 </r>
       <r>   11.3194    0.0000 </r>
       <r>   11.5030    0.0000 </r>
       <r>   12.3916    0.0000 </r>
       <r>   13.6902    0.0000 </r>
       <r>   14.3601    0.0000 </r>
      </set>
      <set comment="kpoint 14">
       <r>    1.6343    1.0000 </r>
       <r>    1.7606    1.0000 </r>
       <r>    1.9868    1.0000 </r>
       <r>    2.1422    1.0000 </r>
       <r>    2.1675    1.0000 </r>
       <r>    2.2712    1.0000 </r>
       <r>    2.3288    1.0000 </r>
       <r>    2.4158    1.0000 </r>
       <r>    2.5003    1.0000 </r>
       <r>    3.2237    1.0000 </r>
       <r>    3.3177    1.0000 </r>
       <r>    3.5180    1.0000 </r>
       <r>    3.5240    1.0000 </r>
       <r>    3.8761    1.0000 </r>
       <r>    4.0750    1.0000 </r>
       <r>    4.1017    1.0000 </r>
       <r>    4.2086    1.0000 </r>
       <r>    4.5404    1.0000 </r>
       <r>    4.6373    1.0000 </r>
       <r>    4.8730    1.0000 </r>
       <r>    4.9097    1.0000 </r>
       <r>    5.1637    1.0000 </r>
       <r>    5.1949    1.0000 </r>
       <r>    5.2403    1.0000 </r>
       <r>    5.2647    1.0000 </r>
       <r>    5.4974    1.0000 </r>
       <r>    5.7553    1.0000 </r>
       <r>    5.7683    1.0000 </r>
       <r>    6.2539    1.0000 </r>
       <r>    6.3392    1.0000 </r>
       <r>    7.4499    1.0019 </r>
       <r>    7.9139    0.9994 </r>
       <r>    8.3866    0.0281 </r>
       <r>    9.4881    0.0000 </r>
       <r>    9.6119    0.0000 </r>
       <r>   10.3352    0.0000 </r>
       <r>   11.4547    0.0000 </r>
       <r>   11.8185    0.0000 </r>
       <r>   13.3096    0.0000 </r>
       <r>   14.1647    0.0000 </r>
      </set>
      <set comment="kpoint 15">
       <r>    1.6319    1.0000 </r>
       <r>    1.7467    1.0000 </r>
       <r>    1.9714    1.0000 </r>
       <r>    2.1369    1.0000 </r>
       <r>    2.1568    1.0000 </r>
       <r>    2.2708    1.0000 </r>
       <r>    2.3066    1.0000 </r>
       <r>    2.4460    1.0000 </r>
       <r>    2.4467    1.0000 </r>
       <r>    3.2620    1.0000 </r>
       <r>    3.2634    1.0000 </r>
       <r>    3.5116    1.0000 </r>
       <r>    3.5173    1.0000 </r>
       <r>    3.8743    1.0000 </r>
       <r>    4.0682    1.0000 </r>
       <r>    4.1538    1.0000 </r>
       <r>    4.2076    1.0000 </r>
       <r>    4.5680    1.0000 </r>
       <r>    4.6432    1.0000 </r>
       <r>    4.8793    1.0000 </r>
       <r>    4.9129    1.0000 </r>
       <r>    5.1871    1.0000 </r>
       <r>    5.2138    1.0000 </r>
       <r>    5.2620    1.0000 </r>
       <r>    5.2796    1.0000 </r>
       <r>    5.5231    1.0000 </r>
       <r>    5.7691    1.0000 </r>
       <r>    5.7956    1.0000 </r>
       <r>    6.2870    1.0000 </r>
       <r>    6.3746    1.0000 </r>
       <r>    7.7064    1.0262 </r>
       <r>    8.6880   -0.0168 </r>
       <r>    8.8410   -0.0033 </r>
       <r>    9.2477    0.0000 </r>
       <r>    9.4126    0.0000 </r>
       <r>    9.6718    0.0000 </r>
       <r>   11.2869    0.0000 </r>
       <r>   12.3989    0.0000 </r>
       <r>   12.4154    0.0000 </r>
       <r>   14.1648    0.0000 </r>
      </set>
      <set comment="kpoint 16">
       <r>   -0.4281    1.0000 </r>
       <r>    0.8288    1.0000 </r>
       <r>    1.1593    1.0000 </r>
       <r>    1.7676    1.0000 </r>
       <r>    2.0927    1.0000 </r>
       <r>    2.1004    1.0000 </r>
       <r>    3.3170    1.0000 </r>
       <r>    3.3397    1.0000 </r>
       <r>    3.4425    1.0000 </r>
       <r>    3.4958    1.0000 </r>
       <r>    3.5320    1.0000 </r>
       <r>    3.5452    1.0000 </r>
       <r>    3.5583    1.0000 </r>
       <r>    3.5654    1.0000 </r>
       <r>    3.6352    1.0000 </r>
[...]
       <r>    4.5427    1.0000 </r>
       <r>    4.6411    1.0000 </r>
       <r>    4.9109    1.0000 </r>
       <r>    5.0334    1.0000 </r>
       <r>    5.0890    1.0000 </r>
       <r>    5.1962    1.0000 </r>
       <r>    5.3428    1.0000 </r>
       <r>    5.7363    1.0000 </r>
       <r>    5.8486    1.0000 </r>
       <r>   10.2757    0.0000 </r>
       <r>   10.5352    0.0000 </r>
       <r>   10.8577    0.0000 </r>
       <r>   10.9404    0.0000 </r>
       <r>   11.8662    0.0000 </r>
       <r>   12.2374    0.0000 </r>
       <r>   12.4135    0.0000 </r>
       <r>   12.5227    0.0000 </r>
       <r>   12.8070    0.0000 </r>
       <r>   12.9285    0.0000 </r>
      </set>
      <set comment="kpoint 369">
       <r>    2.4163    1.0000 </r>
       <r>    2.4954    1.0000 </r>
       <r>    2.5942    1.0000 </r>
       <r>    2.6472    1.0000 </r>
       <r>    2.7046    1.0000 </r>
       <r>    2.8653    1.0000 </r>
       <r>    2.9492    1.0000 </r>
       <r>    2.9558    1.0000 </r>
       <r>    3.0322    1.0000 </r>
       <r>    3.0702    1.0000 </r>
       <r>    3.0743    1.0000 </r>
       <r>    3.1806    1.0000 </r>
       <r>    3.4641    1.0000 </r>
       <r>    3.5910    1.0000 </r>
       <r>    3.6529    1.0000 </r>
       <r>    3.6741    1.0000 </r>
       <r>    3.8385    1.0000 </r>
       <r>    3.9566    1.0000 </r>
       <r>    4.2355    1.0000 </r>
       <r>    4.3563    1.0000 </r>
       <r>    4.4272    1.0000 </r>
       <r>    4.5274    1.0000 </r>
       <r>    4.6401    1.0000 </r>
       <r>    4.8931    1.0000 </r>
       <r>    4.9880    1.0000 </r>
       <r>    5.1209    1.0000 </r>
       <r>    5.1985    1.0000 </r>
       <r>    5.3626    1.0000 </r>
       <r>    5.7074    1.0000 </r>
       <r>    5.9104    1.0000 </r>
       <r>    9.7495    0.0000 </r>
       <r>    9.9885    0.0000 </r>
       <r>   11.0031    0.0000 </r>
       <r>   11.3228    0.0000 </r>
       <r>   11.7347    0.0000 </r>
       <r>   11.9723    0.0000 </r>
       <r>   12.2746    0.0000 </r>
       <r>   12.7530    0.0000 </r>
       <r>   13.0778    0.0000 </r>
       <r>   13.6828    0.0000 </r>
      </set>
      <set comment="kpoint 370">
       <r>    2.5207    1.0000 </r>
       <r>    2.5511    1.0000 </r>
       <r>    2.6246    1.0000 </r>
       <r>    2.6676    1.0000 </r>
       <r>    2.6810    1.0000 </r>
       <r>    2.7420    1.0000 </r>
       <r>    3.0317    1.0000 </r>
       <r>    3.0419    1.0000 </r>
       <r>    3.0584    1.0000 </r>
       <r>    3.0660    1.0000 </r>
       <r>    3.0876    1.0000 </r>
       <r>    3.1612    1.0000 </r>
       <r>    3.5731    1.0000 </r>
       <r>    3.5877    1.0000 </r>
       <r>    3.6233    1.0000 </r>
       <r>    3.6840    1.0000 </r>
       <r>    3.7379    1.0000 </r>
       <r>    3.7938    1.0000 </r>
       <r>    4.3150    1.0000 </r>
       <r>    4.3501    1.0000 </r>
       <r>    4.3921    1.0000 </r>
       <r>    4.6013    1.0000 </r>
       <r>    4.6267    1.0000 </r>
       <r>    4.8409    1.0000 </r>
       <r>    5.0329    1.0000 </r>
       <r>    5.0831    1.0000 </r>
       <r>    5.1778    1.0000 </r>
       <r>    5.3267    1.0000 </r>
       <r>    5.7432    1.0000 </r>
       <r>    5.8199    1.0000 </r>
       <r>   10.3577    0.0000 </r>
       <r>   10.6507    0.0000 </r>
       <r>   11.0502    0.0000 </r>
       <r>   11.6381    0.0000 </r>
       <r>   11.7007    0.0000 </r>
       <r>   11.9356    0.0000 </r>
       <r>   12.2197    0.0000 </r>
       <r>   12.5791    0.0000 </r>
       <r>   13.1064    0.0000 </r>
       <r>   13.2700    0.0000 </r>
      </set>
     </set>
    </set>
   </array>
  </eigenvalues>
  <separator name="orbital magnetization" >
   <v name="MAGDIPOLOUT">      0.00000000      0.00000000      0.00000000</v>
  </separator>
  <dos>
   <i name="efermi">      8.16571377 </i>
   <total>
    <array>
     <dimension dim="1">gridpoints</dimension>
     <dimension dim="2">spin</dimension>
     <field>energy</field>
     <field>total</field>
     <field>integrated</field>
     <set>
      <set comment="spin 1">
       <r>    -3.5408     0.0000     0.0000 </r>
       <r>    -3.4455     0.0000     0.0000 </r>
       <r>    -3.3503     0.0000     0.0000 </r>
       <r>    -3.2551     0.0000     0.0000 </r>
       <r>    -3.1598     0.0000     0.0000 </r>
       <r>    -3.0646     0.0000     0.0000 </r>
       <r>    -2.9694     0.0000     0.0000 </r>
       <r>    -2.8741     0.0000     0.0000 </r>
       <r>    -2.7789     0.0000     0.0000 </r>
       <r>    -2.6836     0.0000     0.0000 </r>
       <r>    -2.5884     0.0000     0.0000 </r>
       <r>    -2.4932     0.0000     0.0000 </r>
       <r>    -2.3979     0.0000     0.0000 </r>
       <r>    -2.3027     0.0000     0.0000 </r>
       <r>    -2.2075     0.0000     0.0000 </r>
       <r>    -2.1122     0.0000     0.0000 </r>
       <r>    -2.0170     0.0000     0.0000 </r>
       <r>    -1.9218     0.0000     0.0000 </r>
       <r>    -1.8265     0.0000     0.0000 </r>
       <r>    -1.7313     0.0000     0.0000 </r>
       <r>    -1.6361     0.0000     0.0000 </r>
       <r>    -1.5408     0.0000     0.0000 </r>
       <r>    -1.4456     0.0000     0.0000 </r>
       <r>    -1.3504    -0.0001     0.0000 </r>
       <r>    -1.2551    -0.0002     0.0000 </r>
       <r>    -1.1599    -0.0009    -0.0001 </r>
       <r>    -1.0647    -0.0026    -0.0004 </r>
       <r>    -0.9694    -0.0057    -0.0009 </r>
       <r>    -0.8742    -0.0085    -0.0017 </r>
       <r>    -0.7790    -0.0050    -0.0022 </r>
       <r>    -0.6837     0.0147    -0.0008 </r>
       <r>    -0.5885     0.0577     0.0047 </r>
       <r>    -0.4933     0.1195     0.0161 </r>
       <r>    -0.3980     0.1836     0.0336 </r>
       <r>    -0.3028     0.2319     0.0557 </r>
       <r>    -0.2076     0.2578     0.0802 </r>
       <r>    -0.1123     0.2667     0.1056 </r>
       <r>    -0.0171     0.2683     0.1312 </r>
       <r>     0.0781     0.2685     0.1567 </r>
       <r>     0.1734     0.2691     0.1824 </r>
       <r>     0.2686     0.2711     0.2082 </r>
       <r>     0.3638     0.2788     0.2347 </r>
       <r>     0.4591     0.3004     0.2633 </r>
       <r>     0.5543     0.3436     0.2961 </r>
       <r>     0.6495     0.4089     0.3350 </r>
       <r>     0.7448     0.4842     0.3811 </r>
       <r>     0.8400     0.5536     0.4338 </r>
       <r>     0.9352     0.6133     0.4923 </r>
       <r>     1.0305     0.6729     0.5563 </r>
       <r>     1.1257     0.7410     0.6269 </r>
       <r>     1.2209     0.8237     0.7054 </r>
       <r>     1.3162     0.9401     0.7949 </r>
       <r>     1.4114     1.1365     0.9031 </r>
       <r>     1.5066     1.4695     1.0431 </r>
       <r>     1.6019     1.9612     1.2298 </r>
       <r>     1.6971     2.5814     1.4757 </r>
       <r>     1.7923     3.3190     1.7917 </r>
       <r>     1.8876     4.2837     2.1997 </r>
       <r>     1.9828     5.6969     2.7422 </r>
       <r>     2.0780     7.7351     3.4789 </r>
       <r>     2.1733    10.3417     4.4637 </r>
       <r>     2.2685    13.1489     5.7160 </r>
       <r>     2.3637    15.5665     7.1984 </r>
       <r>     2.4590    17.0148     8.8188 </r>
       <r>     2.5542    17.1967    10.4565 </r>
       <r>     2.6494    16.2642    12.0054 </r>
       <r>     2.7447    14.7790    13.4129 </r>
       <r>     2.8399    13.4764    14.6963 </r>
       <r>     2.9351    12.9204    15.9267 </r>
       <r>     3.0304    13.2159    17.1853 </r>
       <r>     3.1256    14.0030    18.5189 </r>
       <r>     3.2208    14.7952    19.9279 </r>
       <r>     3.3161    15.4093    21.3953 </r>
       <r>     3.4113    16.1005    22.9287 </r>
       <r>     3.5065    17.2729    24.5736 </r>
       <r>     3.6018    18.9974    26.3828 </r>
       <r>     3.6970    20.7477    28.3587 </r>
       <r>     3.7922    21.6401    30.4196 </r>
       <r>     3.8875    21.0845    32.4275 </r>
       <r>     3.9827    19.3331    34.2687 </r>
       <r>     4.0779    17.3671    35.9226 </r>
       <r>     4.1732    16.1604    37.4616 </r>
       <r>     4.2684    16.0021    38.9856 </r>
       <r>     4.3636    16.4680    40.5539 </r>
       <r>     4.4589    16.9149    42.1647 </r>
       <r>     4.5541    16.9615    43.7800 </r>
       <r>     4.6493    16.6311    45.3639 </r>
       <r>     4.7446    16.2244    46.9090 </r>
       <r>     4.8398    16.0746    48.4398 </r>
       <r>     4.9350    16.2641    49.9887 </r>
       <r>     5.0303    16.4656    51.5568 </r>
       <r>     5.1255    16.1245    53.0924 </r>
       <r>     5.2207    14.9178    54.5131 </r>
       <r>     5.3160    13.0751    55.7582 </r>
       <r>     5.4112    11.2264    56.8274 </r>
       <r>     5.5064     9.9141    57.7715 </r>
       <r>     5.6017     9.2237    58.6499 </r>
       <r>     5.6969     8.8336    59.4912 </r>
       <r>     5.7921     8.3613    60.2875 </r>
       <r>     5.8874     7.6415    61.0152 </r>
       <r>     5.9826     6.7073    61.6540 </r>
       <r>     6.0778     5.6186    62.1890 </r>
       <r>     6.1731     4.4328    62.6112 </r>
       <r>     6.2683     3.2983    62.9253 </r>
       <r>     6.3635     2.4171    63.1555 </r>
       <r>     6.4588     1.8783    63.3344 </r>
       <r>     6.5540     1.6057    63.4873 </r>
       <r>     6.6492     1.4735    63.6276 </r>
       <r>     6.7445     1.4132    63.7622 </r>
       <r>     6.8397     1.4101    63.8965 </r>
       <r>     6.9349     1.4553    64.0351 </r>
       <r>     7.0302     1.5269    64.1805 </r>
       <r>     7.1254     1.5925    64.3321 </r>
       <r>     7.2206     1.6171    64.4861 </r>
       <r>     7.3159     1.5813    64.6367 </r>
       <r>     7.4111     1.5090    64.7804 </r>
       <r>     7.5063     1.4677    64.9202 </r>
       <r>     7.6016     1.5178    65.0648 </r>
       <r>     7.6968     1.6466    65.2216 </r>
       <r>     7.7920     1.7634    65.3895 </r>
       <r>     7.8873     1.7782    65.5589 </r>
       <r>     7.9825     1.6830    65.7191 </r>
       <r>     8.0777     1.5579    65.8675 </r>
       <r>     8.1730     1.5073    66.0111 </r>
       <r>     8.2682     1.5791    66.1614 </r>
       <r>     8.3635     1.7180    66.3251 </r>
       <r>     8.4587     1.8039    66.4968 </r>
       <r>     8.5539     1.7635    66.6648 </r>
       <r>     8.6492     1.6424    66.8212 </r>
       <r>     8.7444     1.5498    66.9688 </r>
       <r>     8.8396     1.5459    67.1160 </r>
       <r>     8.9349     1.6042    67.2688 </r>
       <r>     9.0301     1.6664    67.4275 </r>
       <r>     9.1253     1.6963    67.5890 </r>
       <r>     9.2206     1.6859    67.7496 </r>
       <r>     9.3158     1.6467    67.9064 </r>
       <r>     9.4110     1.6048    68.0592 </r>
       <r>     9.5063     1.5840    68.2101 </r>
       <r>     9.6015     1.5857    68.3611 </r>
       <r>     9.6967     1.5954    68.5130 </r>
       <r>     9.7920     1.6088    68.6662 </r>
       <r>     9.8872     1.6317    68.8216 </r>
       <r>     9.9824     1.6513    68.9789 </r>
       <r>    10.0777     1.6339    69.1345 </r>
       <r>    10.1729     1.5679    69.2838 </r>
       <r>    10.2681     1.4883    69.4255 </r>
       <r>    10.3634     1.4399    69.5627 </r>
       <r>    10.4586     1.4310    69.6990 </r>
       <r>    10.5538     1.4335    69.8355 </r>
       <r>    10.6491     1.4154    69.9703 </r>
       <r>    10.7443     1.3651    70.1003 </r>
       <r>    10.8395     1.2945    70.2236 </r>
       <r>    10.9348     1.2322    70.3409 </r>
       <r>    11.0300     1.2143    70.4565 </r>
       <r>    11.1252     1.2791    70.5783 </r>
       <r>    11.2205     1.4495    70.7164 </r>
       <r>    11.3157     1.6982    70.8781 </r>
       <r>    11.4109     1.9409    71.0629 </r>
       <r>    11.5062     2.0965    71.2626 </r>
       <r>    11.6014     2.1527    71.4676 </r>
       <r>    11.6966     2.1521    71.6726 </r>
       <r>    11.7919     2.1261    71.8750 </r>
       <r>    11.8871     2.0717    72.0723 </r>
       <r>    11.9823     1.9856    72.2614 </r>
       <r>    12.0776     1.8914    72.4416 </r>
       <r>    12.1728     1.8291    72.6157 </r>
       <r>    12.2680     1.8277    72.7898 </r>
       <r>    12.3633     1.8797    72.9688 </r>
       <r>    12.4585     1.9369    73.1533 </r>
       <r>    12.5537     1.9469    73.3387 </r>
       <r>    12.6490     1.9028    73.5199 </r>
       <r>    12.7442     1.8434    73.6955 </r>
       <r>    12.8394     1.8057    73.8674 </r>
       <r>    12.9347     1.7950    74.0384 </r>
       <r>    13.0299     1.7966    74.2094 </r>
       <r>    13.1251     1.7968    74.3806 </r>
       <r>    13.2204     1.7908    74.5511 </r>
       <r>    13.3156     1.7846    74.7211 </r>
       <r>    13.4108     1.7897    74.8915 </r>
       <r>    13.5061     1.8057    75.0635 </r>
       <r>    13.6013     1.8116    75.2360 </r>
       <r>    13.6965     1.7824    75.4057 </r>
       <r>    13.7918     1.7194    75.5695 </r>
       <r>    13.8870     1.6580    75.7274 </r>
       <r>    13.9822     1.6462    75.8842 </r>
       <r>    14.0775     1.7078    76.0468 </r>
       <r>    14.1727     1.8139    76.2195 </r>
       <r>    14.2679     1.8877    76.3993 </r>
       <r>    14.3632     1.8558    76.5761 </r>
       <r>    14.4584     1.7092    76.7388 </r>
       <r>    14.5536     1.5089    76.8825 </r>
       <r>    14.6489     1.3305    77.0092 </r>
       <r>    14.7441     1.2155    77.1250 </r>
       <r>    14.8393     1.1701    77.2364 </r>
       <r>    14.9346     1.1784    77.3487 </r>
       <r>    15.0298     1.2054    77.4634 </r>
       <r>    15.1250     1.2069    77.5784 </r>
       <r>    15.2203     1.1603    77.6889 </r>
       <r>    15.3155     1.0802    77.7918 </r>
       <r>    15.4107     0.9950    77.8865 </r>
       <r>    15.5060     0.9163    77.9738 </r>
       <r>    15.6012     0.8417    78.0539 </r>
       <r>    15.6964     0.7794    78.1282 </r>
       <r>    15.7917     0.7487    78.1995 </r>
       <r>    15.8869     0.7580    78.2717 </r>
       <r>    15.9821     0.7903    78.3469 </r>
       <r>    16.0774     0.8120    78.4242 </r>
       <r>    16.1726     0.7927    78.4997 </r>
       <r>    16.2678     0.7245    78.5687 </r>
       <r>    16.3631     0.6303    78.6288 </r>
       <r>    16.4583     0.5506    78.6812 </r>
       <r>    16.5535     0.5145    78.7302 </r>
       <r>    16.6488     0.5197    78.7797 </r>
       <r>    16.7440     0.5368    78.8308 </r>
       <r>    16.8392     0.5352    78.8818 </r>
       <r>    16.9345     0.5065    78.9300 </r>
       <r>    17.0297     0.4668    78.9745 </r>
       <r>    17.1249     0.4392    79.0163 </r>
       <r>    17.2202     0.4340    79.0576 </r>
       <r>    17.3154     0.4434    79.0998 </r>
       <r>    17.4106     0.4512    79.1428 </r>
       <r>    17.5059     0.4487    79.1855 </r>
       <r>    17.6011     0.4373    79.2272 </r>
       <r>    17.6963     0.4186    79.2670 </r>
       <r>    17.7916     0.3882    79.3040 </r>
       <r>    17.8868     0.3438    79.3368 </r>
       <r>    17.9820     0.2944    79.3648 </r>
       <r>    18.0773     0.2546    79.3890 </r>
       <r>    18.1725     0.2321    79.4111 </r>
       <r>    18.2677     0.2264    79.4327 </r>
       <r>    18.3630     0.2372    79.4553 </r>
       <r>    18.4582     0.2689    79.4809 </r>
       <r>    18.5534     0.3209    79.5115 </r>
       <r>    18.6487     0.3746    79.5471 </r>
       <r>    18.7439     0.3951    79.5848 </r>
       <r>    18.8391     0.3545    79.6185 </r>
       <r>    18.9344     0.2584    79.6431 </r>
       <r>    19.0296     0.1502    79.6574 </r>
       <r>    19.1248     0.0820    79.6652 </r>
       <r>    19.2201     0.0770    79.6726 </r>
       <r>    19.3153     0.1164    79.6837 </r>
       <r>    19.4105     0.1611    79.6990 </r>
       <r>    19.5058     0.1862    79.7167 </r>
       <r>    19.6010     0.1971    79.7355 </r>
       <r>    19.6963     0.2152    79.7560 </r>
       <r>    19.7915     0.2482    79.7796 </r>
       <r>    19.8867     0.2744    79.8058 </r>
       <r>    19.9820     0.2600    79.8305 </r>
       <r>    20.0772     0.1948    79.8491 </r>
       <r>    20.1724     0.1057    79.8591 </r>
       <r>    20.2677     0.0342    79.8624 </r>
       <r>    20.3629     0.0046    79.8628 </r>
       <r>    20.4581     0.0149    79.8643 </r>
       <r>    20.5534     0.0489    79.8689 </r>
       <r>    20.6486     0.0904    79.8775 </r>
       <r>    20.7438     0.1296    79.8899 </r>
       <r>    20.8391     0.1610    79.9052 </r>
       <r>    20.9343     0.1793    79.9223 </r>
       <r>    21.0295     0.1778    79.9392 </r>
       <r>    21.1248     0.1529    79.9538 </r>
       <r>    21.2200     0.1097    79.9642 </r>
       <r>    21.3152     0.0614    79.9701 </r>
       <r>    21.4105     0.0236    79.9723 </r>
       <r>    21.5057     0.0066    79.9729 </r>
       <r>    21.6009     0.0118    79.9740 </r>
       <r>    21.6962     0.0322    79.9771 </r>
       <r>    21.7914     0.0546    79.9823 </r>
       <r>    21.8866     0.0658    79.9886 </r>
       <r>    21.9819     0.0597    79.9943 </r>
       <r>    22.0771     0.0410    79.9982 </r>
       <r>    22.1723     0.0202    80.0001 </r>
       <r>    22.2676     0.0055    80.0006 </r>
       <r>    22.3628    -0.0012    80.0005 </r>
       <r>    22.4580    -0.0025    80.0003 </r>
       <r>    22.5533    -0.0017    80.0001 </r>
       <r>    22.6485    -0.0008    80.0000 </r>
       <r>    22.7437    -0.0003    80.0000 </r>
       <r>    22.8390    -0.0001    80.0000 </r>
       <r>    22.9342     0.0000    80.0000 </r>
       <r>    23.0294     0.0000    80.0000 </r>
       <r>    23.1247     0.0000    80.0000 </r>
       <r>    23.2199     0.0000    80.0000 </r>
       <r>    23.3151     0.0000    80.0000 </r>
       <r>    23.4104     0.0000    80.0000 </r>
       <r>    23.5056     0.0000    80.0000 </r>
       <r>    23.6008     0.0000    80.0000 </r>
       <r>    23.6961     0.0000    80.0000 </r>
       <r>    23.7913     0.0000    80.0000 </r>
       <r>    23.8865     0.0000    80.0000 </r>
       <r>    23.9818     0.0000    80.0000 </r>
       <r>    24.0770     0.0000    80.0000 </r>
       <r>    24.1722     0.0000    80.0000 </r>
       <r>    24.2675     0.0000    80.0000 </r>
       <r>    24.3627     0.0000    80.0000 </r>
       <r>    24.4579     0.0000    80.0000 </r>
       <r>    24.5532     0.0000    80.0000 </r>
       <r>    24.6484     0.0000    80.0000 </r>
       <r>    24.7436     0.0000    80.0000 </r>
       <r>    24.8389     0.0000    80.0000 </r>
       <r>    24.9341     0.0000    80.0000 </r>
       <r>    25.0293     0.0000    80.0000 </r>
      </set>
     </set>
    </array>
   </total>
  </dos>
 </calculation>
 <structure name="finalpos" >
  <crystal>
   <varray name="basis" >
    <v>       2.06868148       0.00000000       2.06868148 </v>
    <v>       0.00000000      -2.06868148      -2.06868148 </v>
    <v>       8.32255271       8.32255271      -8.32255271 </v>
   </varray>
   <i name="volume">    106.84767148 </i>
   <varray name="rec_basis" >
    <v>       0.32226646      -0.16113323       0.16113323 </v>
    <v>       0.16113323      -0.32226646      -0.16113323 </v>
    <v>       0.04005181       0.04005181      -0.04005181 </v>
   </varray>
  </crystal>
  <varray name="positions" >
   <v>       0.66666667       0.33333333       0.33418113 </v>
   <v>       0.00000000       0.00000000       0.49983011 </v>
   <v>       0.33333333       0.66666667       0.66683656 </v>
   <v>       0.66666667       0.33333333       0.83248554 </v>
   <v>       0.00000000       0.00000000       0.99835246 </v>
   <v>       0.33333333       0.66666667       0.16831420 </v>
  </varray>
 </structure>
</modeling>
