<?xml version="1.0" encoding="ISO-8859-1"?>
<modeling>
 <generator>
  <i name="program" type="string">vasp </i>
  <i name="version" type="string">5.3.5  </i>
  <i name="subversion" type="string">31Mar14 (build Jun 20 2014 13:15:13) complex                          parallel </i>
  <i name="platform" type="string">LinuxIFC </i>
  <i name="date" type="string">2025 11 21 </i>
  <i name="time" type="string">13:38:50 </i>
 </generator>
 <incar>
  <i type="string" name="PREC">accurate</i>
  <i type="int" name="IALGO">    68</i>
  <i type="logical" name="ADDGRID"> T  </i>
  <i type="int" name="NELM">   100</i>
  <i type="int" name="NELMIN">     4</i>
  <i type="int" name="IBRION">     2</i>
  <i name="EDIFF">      0.00000100</i>
  <i name="EDIFFG">     -0.02000000</i>
  <i type="int" name="NSW">    30</i>
  <i type="int" name="ISIF">     3</i>
  <i name="ENCUT">    500.00000000</i>
  <i type="logical" name="LREAL"> F  </i>
  <i type="int" name="ISMEAR">     1</i>
  <i name="SIGMA">      0.30000000</i>
  <i type="logical" name="LWAVE"> F  </i>
  <i type="logical" name="LCHARG"> F  </i>
  <i type="int" name="NELM">   100</i>
 </incar>
 <kpoints>
  <generation param="Auto">
   <i name="subdivisionlength">     70.00000000 </i>
   <v type="int" name="divisions">      19       16       13 </v>
   <v name="usershift">      0.00000000       0.00000000       0.00000000 </v>
   <v name="genvec1">      0.05263158       0.00000000       0.00000000 </v>
   <v name="genvec2">      0.00000000       0.06250000       0.00000000 </v>
   <v name="genvec3">      0.00000000       0.00000000       0.07692308 </v>
   <v name="shift">      0.00000000       0.00000000       0.00000000 </v>
  </generation>
  <varray name="kpointlist" >
   <v>       0.00000000       0.00000000       0.00000000 </v>
   <v>       0.05263158       0.00000000       0.00000000 </v>
   <v>       0.10526316       0.00000000       0.00000000 </v>
   <v>       0.15789474       0.00000000       0.00000000 </v>
   <v>       0.21052632       0.00000000       0.00000000 </v>
   <v>       0.26315789       0.00000000       0.00000000 </v>
   <v>       0.31578947       0.00000000       0.00000000 </v>
   <v>       0.36842105       0.00000000       0.00000000 </v>
   <v>       0.42105263       0.00000000       0.00000000 </v>
   <v>       0.47368421       0.00000000       0.00000000 </v>
   <v>       0.00000000       0.06250000       0.00000000 </v>
   <v>       0.05263158       0.06250000       0.00000000 </v>
   <v>       0.10526316       0.06250000       0.00000000 </v>
   <v>       0.15789474       0.06250000       0.00000000 </v>
   <v>       0.21052632       0.06250000       0.00000000 </v>
   <v>       0.26315789       0.06250000       0.00000000 </v>
   <v>       0.31578947       0.06250000       0.00000000 </v>
   <v>       0.36842105       0.06250000       0.00000000 </v>
   <v>       0.42105263       0.06250000       0.00000000 </v>
   <v>       0.47368421       0.06250000       0.00000000 </v>
   <v>      -0.47368421       0.06250000       0.00000000 </v>
   <v>      -0.42105263       0.06250000       0.00000000 </v>
   <v>      -0.36842105       0.06250000       0.00000000 </v>
   <v>      -0.31578947       0.06250000       0.00000000 </v>
   <v>      -0.26315789       0.06250000       0.00000000 </v>
   <v>      -0.21052632       0.06250000       0.00000000 </v>
   <v>      -0.15789474       0.06250000       0.00000000 </v>
   <v>      -0.10526316       0.06250000       0.00000000 </v>
   <v>      -0.05263158       0.06250000       0.00000000 </v>
   <v>       0.00000000       0.12500000       0.00000000 </v>
   <v>       0.05263158       0.12500000       0.00000000 </v>
   <v>       0.10526316       0.12500000       0.00000000 </v>
   <v>       0.15789474       0.12500000       0.00000000 </v>
   <v>       0.21052632       0.12500000       0.00000000 </v>
   <v>       0.26315789       0.12500000       0.00000000 </v>
   <v>       0.31578947       0.12500000       0.00000000 </v>
   <v>       0.36842105       0.12500000       0.00000000 </v>
   <v>       0.42105263       0.12500000       0.00000000 </v>
   <v>       0.47368421       0.12500000       0.00000000 </v>
   <v>      -0.47368421       0.12500000       0.00000000 </v>
   <v>      -0.42105263       0.12500000       0.00000000 </v>
   <v>      -0.36842105       0.12500000       0.00000000 </v>
   <v>      -0.31578947       0.12500000       0.00000000 </v>
   <v>      -0.26315789       0.12500000       0.00000000 </v>
   <v>      -0.21052632       0.12500000       0.00000000 </v>
   <v>      -0.15789474       0.12500000       0.00000000 </v>
   <v>      -0.10526316       0.12500000       0.00000000 </v>
   <v>      -0.05263158       0.12500000       0.00000000 </v>
   <v>       0.00000000       0.18750000       0.00000000 </v>
   <v>       0.05263158       0.18750000       0.00000000 </v>
   <v>       0.10526316       0.18750000       0.00000000 </v>
   <v>       0.15789474       0.18750000       0.00000000 </v>
   <v>       0.21052632       0.18750000       0.00000000 </v>
   <v>       0.26315789       0.18750000       0.00000000 </v>
   <v>       0.31578947       0.18750000       0.00000000 </v>
   <v>       0.36842105       0.18750000       0.00000000 </v>
   <v>       0.42105263       0.18750000       0.00000000 </v>
   <v>       0.47368421       0.18750000       0.00000000 </v>
   <v>      -0.47368421       0.18750000       0.00000000 </v>
   <v>      -0.42105263       0.18750000       0.00000000 </v>
   <v>      -0.36842105       0.18750000       0.00000000 </v>
   <v>      -0.31578947       0.18750000       0.00000000 </v>
   <v>      -0.26315789       0.18750000       0.00000000 </v>
   <v>      -0.21052632       0.18750000       0.00000000 </v>
   <v>      -0.15789474       0.18750000       0.00000000 </v>
   <v>      -0.10526316       0.18750000       0.00000000 </v>
   <v>      -0.05263158       0.18750000       0.00000000 </v>
   <v>       0.00000000       0.25000000       0.00000000 </v>
   <v>       0.05263158       0.25000000       0.00000000 </v>
   <v>       0.10526316       0.25000000       0.00000000 </v>
   <v>       0.15789474       0.25000000       0.00000000 </v>
   <v>       0.21052632       0.25000000       0.00000000 </v>
   <v>       0.26315789       0.25000000       0.00000000 </v>
   <v>       0.31578947       0.25000000       0.00000000 </v>
   <v>       0.36842105       0.25000000       0.00000000 </v>
   <v>       0.42105263       0.25000000       0.00000000 </v>
   <v>       0.47368421       0.25000000       0.00000000 </v>
   <v>      -0.47368421       0.25000000       0.00000000 </v>
   <v>      -0.42105263       0.25000000       0.00000000 </v>
   <v>      -0.36842105       0.25000000       0.00000000 </v>
   <v>      -0.31578947       0.25000000       0.00000000 </v>
   <v>      -0.26315789       0.25000000       0.00000000 </v>
   <v>      -0.21052632       0.25000000       0.00000000 </v>
   <v>      -0.15789474       0.25000000       0.00000000 </v>
   <v>      -0.10526316       0.25000000       0.00000000 </v>
   <v>      -0.05263158       0.25000000       0.00000000 </v>
   <v>       0.00000000       0.31250000       0.00000000 </v>
   <v>       0.05263158       0.31250000       0.00000000 </v>
   <v>       0.10526316       0.31250000       0.00000000 </v>
   <v>       0.15789474       0.31250000       0.00000000 </v>
   <v>       0.21052632       0.31250000       0.00000000 </v>
   <v>       0.26315789       0.31250000       0.00000000 </v>
   <v>       0.31578947       0.31250000       0.00000000 </v>
   <v>       0.36842105       0.31250000       0.00000000 </v>
   <v>       0.42105263       0.31250000       0.00000000 </v>
   <v>       0.47368421       0.31250000       0.00000000 </v>
   <v>      -0.47368421       0.31250000       0.00000000 </v>
   <v>      -0.42105263       0.31250000       0.00000000 </v>
   <v>      -0.36842105       0.31250000       0.00000000 </v>
   <v>      -0.31578947       0.31250000       0.00000000 </v>
   <v>      -0.26315789       0.31250000       0.00000000 </v>
   <v>      -0.21052632       0.31250000       0.00000000 </v>
   <v>      -0.15789474       0.31250000       0.00000000 </v>
   <v>      -0.10526316       0.31250000       0.00000000 </v>
   <v>      -0.05263158       0.31250000       0.00000000 </v>
   <v>       0.00000000       0.37500000       0.00000000 </v>
   <v>       0.05263158       0.37500000       0.00000000 </v>
   <v>       0.10526316       0.37500000       0.00000000 </v>
   <v>       0.15789474       0.37500000       0.00000000 </v>
   <v>       0.21052632       0.37500000       0.00000000 </v>
   <v>       0.26315789       0.37500000       0.00000000 </v>
   <v>       0.31578947       0.37500000       0.00000000 </v>
   <v>       0.36842105       0.37500000       0.00000000 </v>
   <v>       0.42105263       0.37500000       0.00000000 </v>
   <v>       0.47368421       0.37500000       0.00000000 </v>
   <v>      -0.47368421       0.37500000       0.00000000 </v>
   <v>      -0.42105263       0.37500000       0.00000000 </v>
   <v>      -0.36842105       0.37500000       0.00000000 </v>
   <v>      -0.31578947       0.37500000       0.00000000 </v>
   <v>      -0.26315789       0.37500000       0.00000000 </v>
   <v>      -0.21052632       0.37500000       0.00000000 </v>
   <v>      -0.15789474       0.37500000       0.00000000 </v>
   <v>      -0.10526316       0.37500000       0.00000000 </v>
   <v>      -0.05263158       0.37500000       0.00000000 </v>
   <v>       0.00000000       0.43750000       0.00000000 </v>
   <v>       0.05263158       0.43750000       0.00000000 </v>
   <v>       0.10526316       0.43750000       0.00000000 </v>
   <v>       0.15789474       0.43750000       0.00000000 </v>
   <v>       0.21052632       0.43750000       0.00000000 </v>
   <v>       0.26315789       0.43750000       0.00000000 </v>
   <v>       0.31578947       0.43750000       0.00000000 </v>
   <v>       0.36842105       0.43750000       0.00000000 </v>
   <v>       0.42105263       0.43750000       0.00000000 </v>
   <v>       0.47368421       0.43750000       0.00000000 </v>
   <v>      -0.47368421       0.43750000       0.00000000 </v>
   <v>      -0.42105263       0.43750000       0.00000000 </v>
   <v>      -0.36842105       0.43750000       0.00000000 </v>
   <v>      -0.31578947       0.43750000       0.00000000 </v>
   <v>      -0.26315789       0.43750000       0.00000000 </v>
   <v>      -0.21052632       0.43750000       0.00000000 </v>
   <v>      -0.15789474       0.43750000       0.00000000 </v>
   <v>      -0.10526316       0.43750000       0.00000000 </v>
   <v>      -0.05263158       0.43750000       0.00000000 </v>
   <v>       0.00000000       0.50000000       0.00000000 </v>
   <v>       0.05263158       0.50000000       0.00000000 </v>
   <v>       0.10526316       0.50000000       0.00000000 </v>
   <v>       0.15789474       0.50000000       0.00000000 </v>
   <v>       0.21052632       0.50000000       0.00000000 </v>
   <v>       0.26315789       0.50000000       0.00000000 </v>
   <v>       0.31578947       0.50000000       0.00000000 </v>
   <v>       0.36842105       0.50000000       0.00000000 </v>
   <v>       0.42105263       0.50000000       0.00000000 </v>
   <v>       0.47368421       0.50000000       0.00000000 </v>
   <v>       0.00000000       0.00000000       0.07692308 </v>
   <v>       0.05263158       0.00000000       0.07692308 </v>
   <v>       0.10526316       0.00000000       0.07692308 </v>
   <v>       0.15789474       0.00000000       0.07692308 </v>
   <v>       0.21052632       0.00000000       0.07692308 </v>
   <v>       0.26315789       0.00000000       0.07692308 </v>
   <v>       0.31578947       0.00000000       0.07692308 </v>
   <v>       0.36842105       0.00000000       0.07692308 </v>
   <v>       0.42105263       0.00000000       0.07692308 </v>
   <v>       0.47368421       0.00000000       0.07692308 </v>
   <v>      -0.47368421       0.00000000       0.07692308 </v>
   <v>      -0.42105263       0.00000000       0.07692308 </v>
   <v>      -0.36842105       0.00000000       0.07692308 </v>
   <v>      -0.31578947       0.00000000       0.07692308 </v>
   <v>      -0.26315789       0.00000000       0.07692308 </v>
   <v>      -0.21052632       0.00000000       0.07692308 </v>
   <v>      -0.15789474       0.00000000       0.07692308 </v>
   <v>      -0.10526316       0.00000000       0.07692308 </v>
   <v>      -0.05263158       0.00000000       0.07692308 </v>
   <v>       0.00000000       0.06250000       0.07692308 </v>
   <v>       0.05263158       0.06250000       0.07692308 </v>
   <v>       0.10526316       0.06250000       0.07692308 </v>
   <v>       0.15789474       0.06250000       0.07692308 </v>
   <v>       0.21052632       0.06250000       0.07692308 </v>
   <v>       0.26315789       0.06250000       0.07692308 </v>
   <v>       0.31578947       0.06250000       0.07692308 </v>
   <v>       0.36842105       0.06250000       0.07692308 </v>
   <v>       0.42105263       0.06250000       0.07692308 </v>
   <v>       0.47368421       0.06250000       0.07692308 </v>
   <v>      -0.47368421       0.06250000       0.07692308 </v>
   <v>      -0.42105263       0.06250000       0.07692308 </v>
   <v>      -0.36842105       0.06250000       0.07692308 </v>
   <v>      -0.31578947       0.06250000       0.07692308 </v>
   <v>      -0.26315789       0.06250000       0.07692308 </v>
   <v>      -0.21052632       0.06250000       0.07692308 </v>
   <v>      -0.15789474       0.06250000       0.07692308 </v>
   <v>      -0.10526316       0.06250000       0.07692308 </v>
   <v>      -0.05263158       0.06250000       0.07692308 </v>
   <v>       0.00000000       0.12500000       0.07692308 </v>
   <v>       0.05263158       0.12500000       0.07692308 </v>
   <v>       0.10526316       0.12500000       0.07692308 </v>
   <v>       0.15789474       0.12500000       0.07692308 </v>
   <v>       0.21052632       0.12500000       0.07692308 </v>
   <v>       0.26315789       0.12500000       0.07692308 </v>
   <v>       0.31578947       0.12500000       0.07692308 </v>
   <v>       0.36842105       0.12500000       0.07692308 </v>
   <v>       0.42105263       0.12500000       0.07692308 </v>
   <v>       0.47368421       0.12500000       0.07692308 </v>
   <v>      -0.47368421       0.12500000       0.07692308 </v>
   <v>      -0.42105263       0.12500000       0.07692308 </v>
   <v>      -0.36842105       0.12500000       0.07692308 </v>
   <v>      -0.31578947       0.12500000       0.07692308 </v>
   <v>      -0.26315789       0.12500000       0.07692308 </v>
   <v>      -0.21052632       0.12500000       0.07692308 </v>
   <v>      -0.15789474       0.12500000       0.07692308 </v>
   <v>      -0.10526316       0.12500000       0.07692308 </v>
   <v>      -0.05263158       0.12500000       0.07692308 </v>
   <v>       0.00000000       0.18750000       0.07692308 </v>
   <v>       0.05263158       0.18750000       0.07692308 </v>
   <v>       0.10526316       0.18750000       0.07692308 </v>
   <v>       0.15789474       0.18750000       0.07692308 </v>
   <v>       0.21052632       0.18750000       0.07692308 </v>
   <v>       0.26315789       0.18750000       0.07692308 </v>
   <v>       0.31578947       0.18750000       0.07692308 </v>
   <v>       0.36842105       0.18750000       0.07692308 </v>
   <v>       0.42105263       0.18750000       0.07692308 </v>
   <v>       0.47368421       0.18750000       0.07692308 </v>
   <v>      -0.47368421       0.18750000       0.07692308 </v>
   <v>      -0.42105263       0.18750000       0.07692308 </v>
   <v>      -0.36842105       0.18750000       0.07692308 </v>
   <v>      -0.31578947       0.18750000       0.07692308 </v>
   <v>      -0.26315789       0.18750000       0.07692308 </v>
   <v>      -0.21052632       0.18750000       0.07692308 </v>
   <v>      -0.15789474       0.18750000       0.07692308 </v>
   <v>      -0.10526316       0.18750000       0.07692308 </v>
   <v>      -0.05263158       0.18750000       0.07692308 </v>
   <v>       0.00000000       0.25000000       0.07692308 </v>
   <v>       0.05263158       0.25000000       0.07692308 </v>
   <v>       0.10526316       0.25000000       0.07692308 </v>
   <v>       0.15789474       0.25000000       0.07692308 </v>
   <v>       0.21052632       0.25000000       0.07692308 </v>
   <v>       0.26315789       0.25000000       0.07692308 </v>
   <v>       0.31578947       0.25000000       0.07692308 </v>
   <v>       0.36842105       0.25000000       0.07692308 </v>
   <v>       0.42105263       0.25000000       0.07692308 </v>
   <v>       0.47368421       0.25000000       0.07692308 </v>
   <v>      -0.47368421       0.25000000       0.07692308 </v>
   <v>      -0.42105263       0.25000000       0.07692308 </v>
   <v>      -0.36842105       0.25000000       0.07692308 </v>
   <v>      -0.31578947       0.25000000       0.07692308 </v>
   <v>      -0.26315789       0.25000000       0.07692308 </v>
   <v>      -0.21052632       0.25000000       0.07692308 </v>
   <v>      -0.15789474       0.25000000       0.07692308 </v>
   <v>      -0.10526316       0.25000000       0.07692308 </v>
   <v>      -0.05263158       0.25000000       0.07692308 </v>
   <v>       0.00000000       0.31250000       0.07692308 </v>
   <v>       0.05263158       0.31250000       0.07692308 </v>
   <v>       0.10526316       0.31250000       0.07692308 </v>
   <v>       0.15789474       0.31250000       0.07692308 </v>
   <v>       0.21052632       0.31250000       0.07692308 </v>
   <v>       0.26315789       0.31250000       0.07692308 </v>
   <v>       0.31578947       0.31250000       0.07692308 </v>
   <v>       0.36842105       0.31250000       0.07692308 </v>
   <v>       0.42105263       0.31250000       0.07692308 </v>
   <v>       0.47368421       0.31250000       0.07692308 </v>
   <v>      -0.47368421       0.31250000       0.07692308 </v>
   <v>      -0.42105263       0.31250000       0.07692308 </v>
   <v>      -0.36842105       0.31250000       0.07692308 </v>
   <v>      -0.31578947       0.31250000       0.07692308 </v>
   <v>      -0.26315789       0.31250000       0.07692308 </v>
   <v>      -0.21052632       0.31250000       0.07692308 </v>
   <v>      -0.15789474       0.31250000       0.07692308 </v>
   <v>      -0.10526316       0.31250000       0.07692308 </v>
   <v>      -0.05263158       0.31250000       0.07692308 </v>
   <v>       0.00000000       0.37500000       0.07692308 </v>
   <v>       0.05263158       0.37500000       0.07692308 </v>
   <v>       0.10526316       0.37500000       0.07692308 </v>
   <v>       0.15789474       0.37500000       0.07692308 </v>
   <v>       0.21052632       0.37500000       0.07692308 </v>
   <v>       0.26315789       0.37500000       0.07692308 </v>
   <v>       0.31578947       0.37500000       0.07692308 </v>
   <v>       0.36842105       0.37500000       0.07692308 </v>
   <v>       0.42105263       0.37500000       0.07692308 </v>
   <v>       0.47368421       0.37500000       0.07692308 </v>
   <v>      -0.47368421       0.37500000       0.07692308 </v>
   <v>      -0.42105263       0.37500000       0.07692308 </v>
   <v>      -0.36842105       0.37500000       0.07692308 </v>
   <v>      -0.31578947       0.37500000       0.07692308 </v>
   <v>      -0.26315789       0.37500000       0.07692308 </v>
   <v>      -0.21052632       0.37500000       0.07692308 </v>
   <v>      -0.15789474       0.37500000       0.07692308 </v>
   <v>      -0.10526316       0.37500000       0.07692308 </v>
   <v>      -0.05263158       0.37500000       0.07692308 </v>
   <v>       0.00000000       0.43750000       0.07692308 </v>
   <v>       0.05263158       0.43750000       0.07692308 </v>
   <v>       0.10526316       0.43750000       0.07692308 </v>
   <v>       0.15789474       0.43750000       0.07692308 </v>
   <v>       0.21052632       0.43750000       0.07692308 </v>
   <v>       0.26315789       0.43750000       0.07692308 </v>
   <v>       0.31578947       0.43750000       0.07692308 </v>
   <v>       0.36842105       0.43750000       0.07692308 </v>
   <v>       0.42105263       0.43750000       0.07692308 </v>
   <v>       0.47368421       0.43750000       0.07692308 </v>
   <v>      -0.47368421       0.43750000       0.07692308 </v>
   <v>      -0.42105263       0.43750000       0.07692308 </v>
   <v>      -0.36842105       0.43750000       0.07692308 </v>
   <v>      -0.31578947       0.43750000       0.07692308 </v>
   <v>      -0.26315789       0.43750000       0.07692308 </v>
   <v>      -0.21052632       0.43750000       0.07692308 </v>
   <v>      -0.15789474       0.43750000       0.07692308 </v>
   <v>      -0.10526316       0.43750000       0.07692308 </v>
   <v>      -0.05263158       0.43750000       0.07692308 </v>
   <v>       0.00000000       0.50000000       0.07692308 </v>
   <v>       0.05263158       0.50000000       0.07692308 </v>
   <v>       0.10526316       0.50000000       0.07692308 </v>
   <v>       0.15789474       0.50000000       0.07692308 </v>
   <v>       0.21052632       0.50000000       0.07692308 </v>
   <v>       0.26315789       0.50000000       0.07692308 </v>
   <v>       0.31578947       0.50000000       0.07692308 </v>
   <v>       0.36842105       0.50000000       0.07692308 </v>
   <v>       0.42105263       0.50000000       0.07692308 </v>
   <v>       0.47368421       0.50000000       0.07692308 </v>
   <v>      -0.47368421       0.50000000       0.07692308 </v>
   <v>      -0.42105263       0.50000000       0.07692308 </v>
   <v>      -0.36842105       0.50000000       0.07692308 </v>
   <v>      -0.31578947       0.50000000       0.07692308 </v>
   <v>      -0.26315789       0.50000000       0.07692308 </v>
   <v>      -0.21052632       0.50000000       0.07692308 </v>
   <v>      -0.15789474       0.50000000       0.07692308 </v>
   <v>      -0.10526316       0.50000000       0.07692308 </v>
   <v>      -0.05263158       0.50000000       0.07692308 </v>
   <v>       0.00000000      -0.43750000       0.07692308 </v>
   <v>       0.05263158      -0.43750000       0.07692308 </v>
   <v>       0.10526316      -0.43750000       0.07692308 </v>
   <v>       0.15789474      -0.43750000       0.07692308 </v>
   <v>       0.21052632      -0.43750000       0.07692308 </v>
   <v>       0.26315789      -0.43750000       0.07692308 </v>
   <v>       0.31578947      -0.43750000       0.07692308 </v>
   <v>       0.36842105      -0.43750000       0.07692308 </v>
   <v>       0.42105263      -0.43750000       0.07692308 </v>
   <v>       0.47368421      -0.43750000       0.07692308 </v>
   <v>      -0.47368421      -0.43750000       0.07692308 </v>
   <v>      -0.42105263      -0.43750000       0.07692308 </v>
   <v>      -0.36842105      -0.43750000       0.07692308 </v>
   <v>      -0.31578947      -0.43750000       0.07692308 </v>
   <v>      -0.26315789      -0.43750000       0.07692308 </v>
   <v>      -0.21052632      -0.43750000       0.07692308 </v>
   <v>      -0.15789474      -0.43750000       0.07692308 </v>
   <v>      -0.10526316      -0.43750000       0.07692308 </v>
   <v>      -0.05263158      -0.43750000       0.07692308 </v>
   <v>       0.00000000      -0.37500000       0.07692308 </v>
   <v>       0.05263158      -0.37500000       0.07692308 </v>
   <v>       0.10526316      -0.37500000       0.07692308 </v>
   <v>       0.15789474      -0.37500000       0.07692308 </v>
   <v>       0.21052632      -0.37500000       0.07692308 </v>
   <v>       0.26315789      -0.37500000       0.07692308 </v>
   <v>       0.31578947      -0.37500000       0.07692308 </v>
   <v>       0.36842105      -0.37500000       0.07692308 </v>
   <v>       0.42105263      -0.37500000       0.07692308 </v>
   <v>       0.47368421      -0.37500000       0.07692308 </v>
   <v>      -0.47368421      -0.37500000       0.07692308 </v>
   <v>      -0.42105263      -0.37500000       0.07692308 </v>
   <v>      -0.36842105      -0.37500000       0.07692308 </v>
   <v>      -0.31578947      -0.37500000       0.07692308 </v>
   <v>      -0.26315789      -0.37500000       0.07692308 </v>
   <v>      -0.21052632      -0.37500000       0.07692308 </v>
   <v>      -0.15789474      -0.37500000       0.07692308 </v>
   <v>      -0.10526316      -0.37500000       0.07692308 </v>
   <v>      -0.05263158      -0.37500000       0.07692308 </v>
   <v>       0.00000000      -0.31250000       0.07692308 </v>
   <v>       0.05263158      -0.31250000       0.07692308 </v>
   <v>       0.10526316      -0.31250000       0.07692308 </v>
   <v>       0.15789474      -0.31250000       0.07692308 </v>
   <v>       0.21052632      -0.31250000       0.07692308 </v>
   <v>       0.26315789      -0.31250000       0.07692308 </v>
   <v>       0.31578947      -0.31250000       0.07692308 </v>
   <v>       0.36842105      -0.31250000       0.07692308 </v>
   <v>       0.42105263      -0.31250000       0.07692308 </v>
   <v>       0.47368421      -0.31250000       0.07692308 </v>
   <v>      -0.47368421      -0.31250000       0.07692308 </v>
   <v>      -0.42105263      -0.31250000       0.07692308 </v>
   <v>      -0.36842105      -0.31250000       0.07692308 </v>
   <v>      -0.31578947      -0.31250000       0.07692308 </v>
   <v>      -0.26315789      -0.31250000       0.07692308 </v>
   <v>      -0.21052632      -0.31250000       0.07692308 </v>
   <v>      -0.15789474      -0.31250000       0.07692308 </v>
   <v>      -0.10526316      -0.31250000       0.07692308 </v>
   <v>      -0.05263158      -0.31250000       0.07692308 </v>
   <v>       0.00000000      -0.25000000       0.07692308 </v>
   <v>       0.05263158      -0.25000000       0.07692308 </v>
   <v>       0.10526316      -0.25000000       0.07692308 </v>
   <v>       0.15789474      -0.25000000       0.07692308 </v>
   <v>       0.21052632      -0.25000000       0.07692308 </v>
   <v>       0.26315789      -0.25000000       0.07692308 </v>
   <v>       0.31578947      -0.25000000       0.07692308 </v>
   <v>       0.36842105      -0.25000000       0.07692308 </v>
   <v>       0.42105263      -0.25000000       0.07692308 </v>
   <v>       0.47368421      -0.25000000       0.07692308 </v>
   <v>      -0.47368421      -0.25000000       0.07692308 </v>
   <v>      -0.42105263      -0.25000000       0.07692308 </v>
   <v>      -0.36842105      -0.25000000       0.07692308 </v>
   <v>      -0.31578947      -0.25000000       0.07692308 </v>
   <v>      -0.26315789      -0.25000000       0.07692308 </v>
   <v>      -0.21052632      -0.25000000       0.07692308 </v>
   <v>      -0.15789474      -0.25000000       0.07692308 </v>
   <v>      -0.10526316      -0.25000000       0.07692308 </v>
   <v>      -0.05263158      -0.25000000       0.07692308 </v>
   <v>       0.00000000      -0.18750000       0.07692308 </v>
   <v>       0.05263158      -0.18750000       0.07692308 </v>
   <v>       0.10526316      -0.18750000       0.07692308 </v>
   <v>       0.15789474      -0.18750000       0.07692308 </v>
   <v>       0.21052632      -0.18750000       0.07692308 </v>
   <v>       0.26315789      -0.18750000       0.07692308 </v>
   <v>       0.31578947      -0.18750000       0.07692308 </v>
   <v>       0.36842105      -0.18750000       0.07692308 </v>
   <v>       0.42105263      -0.18750000       0.07692308 </v>
   <v>       0.47368421      -0.18750000       0.07692308 </v>
   <v>      -0.47368421      -0.18750000       0.07692308 </v>
   <v>      -0.42105263      -0.18750000       0.07692308 </v>
   <v>      -0.36842105      -0.18750000       0.07692308 </v>
   <v>      -0.31578947      -0.18750000       0.07692308 </v>
   <v>      -0.26315789      -0.18750000       0.07692308 </v>
   <v>      -0.21052632      -0.18750000       0.07692308 </v>
   <v>      -0.15789474      -0.18750000       0.07692308 </v>
   <v>      -0.10526316      -0.18750000       0.07692308 </v>
   <v>      -0.05263158      -0.18750000       0.07692308 </v>
   <v>       0.00000000      -0.12500000       0.07692308 </v>
   <v>       0.05263158      -0.12500000       0.07692308 </v>
   <v>       0.10526316      -0.12500000       0.07692308 </v>
   <v>       0.15789474      -0.12500000       0.07692308 </v>
   <v>       0.21052632      -0.12500000       0.07692308 </v>
   <v>       0.26315789      -0.12500000       0.07692308 </v>
   <v>       0.31578947      -0.12500000       0.07692308 </v>
   <v>       0.36842105      -0.12500000       0.07692308 </v>
   <v>       0.42105263      -0.12500000       0.07692308 </v>
   <v>       0.47368421      -0.12500000       0.07692308 </v>
   <v>      -0.47368421      -0.12500000       0.07692308 </v>
   <v>      -0.42105263      -0.12500000       0.07692308 </v>
   <v>      -0.36842105      -0.12500000       0.07692308 </v>
   <v>      -0.31578947      -0.12500000       0.07692308 </v>
   <v>      -0.26315789      -0.12500000       0.07692308 </v>
   <v>      -0.21052632      -0.12500000       0.07692308 </v>
   <v>      -0.15789474      -0.12500000       0.07692308 </v>
   <v>      -0.10526316      -0.12500000       0.07692308 </v>
   <v>      -0.05263158      -0.12500000       0.07692308 </v>
   <v>       0.00000000      -0.06250000       0.07692308 </v>
   <v>       0.05263158      -0.06250000       0.07692308 </v>
   <v>       0.10526316      -0.06250000       0.07692308 </v>
   <v>       0.15789474      -0.06250000       0.07692308 </v>
   <v>       0.21052632      -0.06250000       0.07692308 </v>
   <v>       0.26315789      -0.06250000       0.07692308 </v>
   <v>       0.31578947      -0.06250000       0.07692308 </v>
   <v>       0.36842105      -0.06250000       0.07692308 </v>
   <v>       0.42105263      -0.06250000       0.07692308 </v>
   <v>       0.47368421      -0.06250000       0.07692308 </v>
   <v>      -0.47368421      -0.06250000       0.07692308 </v>
   <v>      -0.42105263      -0.06250000       0.07692308 </v>
   <v>      -0.36842105      -0.06250000       0.07692308 </v>
   <v>      -0.31578947      -0.06250000       0.07692308 </v>
   <v>      -0.26315789      -0.06250000       0.07692308 </v>
   <v>      -0.21052632      -0.06250000       0.07692308 </v>
   <v>      -0.15789474      -0.06250000       0.07692308 </v>
   <v>      -0.10526316      -0.06250000       0.07692308 </v>
   <v>      -0.05263158      -0.06250000       0.07692308 </v>
   <v>       0.00000000       0.00000000       0.15384615 </v>
   <v>       0.05263158       0.00000000       0.15384615 </v>
   <v>       0.10526316       0.00000000       0.15384615 </v>
   <v>       0.15789474       0.00000000       0.15384615 </v>
   <v>       0.21052632       0.00000000       0.15384615 </v>
   <v>       0.26315789       0.00000000       0.15384615 </v>
   <v>       0.31578947       0.00000000       0.15384615 </v>
   <v>       0.36842105       0.00000000       0.15384615 </v>
   <v>       0.42105263       0.00000000       0.15384615 </v>
   <v>       0.47368421       0.00000000       0.15384615 </v>
   <v>      -0.47368421       0.00000000       0.15384615 </v>
   <v>      -0.42105263       0.00000000       0.15384615 </v>
   <v>      -0.36842105       0.00000000       0.15384615 </v>
   <v>      -0.31578947       0.00000000       0.15384615 </v>
   <v>      -0.26315789       0.00000000       0.15384615 </v>
   <v>      -0.21052632       0.00000000       0.15384615 </v>
   <v>      -0.15789474       0.00000000       0.15384615 </v>
   <v>      -0.10526316       0.00000000       0.15384615 </v>
   <v>      -0.05263158       0.00000000       0.15384615 </v>
   <v>       0.00000000       0.06250000       0.15384615 </v>
   <v>       0.05263158       0.06250000       0.15384615 </v>
   <v>       0.10526316       0.06250000       0.15384615 </v>
   <v>       0.15789474       0.06250000       0.15384615 </v>
   <v>       0.21052632       0.06250000       0.15384615 </v>
   <v>       0.26315789       0.06250000       0.15384615 </v>
   <v>       0.31578947       0.06250000       0.15384615 </v>
   <v>       0.36842105       0.06250000       0.15384615 </v>
   <v>       0.42105263       0.06250000       0.15384615 </v>
   <v>       0.47368421       0.06250000       0.15384615 </v>
   <v>      -0.47368421       0.06250000       0.15384615 </v>
   <v>      -0.42105263       0.06250000       0.15384615 </v>
   <v>      -0.36842105       0.06250000       0.15384615 </v>
   <v>      -0.31578947       0.06250000       0.15384615 </v>
   <v>      -0.26315789       0.06250000       0.15384615 </v>
   <v>      -0.21052632       0.06250000       0.15384615 </v>
   <v>      -0.15789474       0.06250000       0.15384615 </v>
   <v>      -0.10526316       0.06250000       0.15384615 </v>
   <v>      -0.05263158       0.06250000       0.15384615 </v>
   <v>       0.00000000       0.12500000       0.15384615 </v>
   <v>       0.05263158       0.12500000       0.15384615 </v>
   <v>       0.10526316       0.12500000       0.15384615 </v>
   <v>       0.15789474       0.12500000       0.15384615 </v>
   <v>       0.21052632       0.12500000       0.15384615 </v>
   <v>       0.26315789       0.12500000       0.15384615 </v>
   <v>       0.31578947       0.12500000       0.15384615 </v>
   <v>       0.36842105       0.12500000       0.15384615 </v>
   <v>       0.42105263       0.12500000       0.15384615 </v>
   <v>       0.47368421       0.12500000       0.15384615 </v>
   <v>      -0.47368421       0.12500000       0.15384615 </v>
   <v>      -0.42105263       0.12500000       0.15384615 </v>
   <v>      -0.36842105       0.12500000       0.15384615 </v>
   <v>      -0.31578947       0.12500000       0.15384615 </v>
   <v>      -0.26315789       0.12500000       0.15384615 </v>
   <v>      -0.21052632       0.12500000       0.15384615 </v>
   <v>      -0.15789474       0.12500000       0.15384615 </v>
   <v>      -0.10526316       0.12500000       0.15384615 </v>
   <v>      -0.05263158       0.12500000       0.15384615 </v>
   <v>       0.00000000       0.18750000       0.15384615 </v>
   <v>       0.05263158       0.18750000       0.15384615 </v>
   <v>       0.10526316       0.18750000       0.15384615 </v>
   <v>       0.15789474       0.18750000       0.15384615 </v>
   <v>       0.21052632       0.18750000       0.15384615 </v>
   <v>       0.26315789       0.18750000       0.15384615 </v>
   <v>       0.31578947       0.18750000       0.15384615 </v>
   <v>       0.36842105       0.18750000       0.15384615 </v>
   <v>       0.42105263       0.18750000       0.15384615 </v>
   <v>       0.47368421       0.18750000       0.15384615 </v>
   <v>      -0.47368421       0.18750000       0.15384615 </v>
   <v>      -0.42105263       0.18750000       0.15384615 </v>
   <v>      -0.36842105       0.18750000       0.15384615 </v>
   <v>      -0.31578947       0.18750000       0.15384615 </v>
   <v>      -0.26315789       0.18750000       0.15384615 </v>
   <v>      -0.21052632       0.18750000       0.15384615 </v>
   <v>      -0.15789474       0.18750000       0.15384615 </v>
   <v>      -0.10526316       0.18750000       0.15384615 </v>
   <v>      -0.05263158       0.18750000       0.15384615 </v>
   <v>       0.00000000       0.25000000       0.15384615 </v>
   <v>       0.05263158       0.25000000       0.15384615 </v>
   <v>       0.10526316       0.25000000       0.15384615 </v>
   <v>       0.15789474       0.25000000       0.15384615 </v>
   <v>       0.21052632       0.25000000       0.15384615 </v>
   <v>       0.26315789       0.25000000       0.15384615 </v>
   <v>       0.31578947       0.25000000       0.15384615 </v>
   <v>       0.36842105       0.25000000       0.15384615 </v>
   <v>       0.42105263       0.25000000       0.15384615 </v>
   <v>       0.47368421       0.25000000       0.15384615 </v>
   <v>      -0.47368421       0.25000000       0.15384615 </v>
   <v>      -0.42105263       0.25000000       0.15384615 </v>
   <v>      -0.36842105       0.25000000       0.15384615 </v>
   <v>      -0.31578947       0.25000000       0.15384615 </v>
   <v>      -0.26315789       0.25000000       0.15384615 </v>
   <v>      -0.21052632       0.25000000       0.15384615 </v>
   <v>      -0.15789474       0.25000000       0.15384615 </v>
   <v>      -0.10526316       0.25000000       0.15384615 </v>
   <v>      -0.05263158       0.25000000       0.15384615 </v>
   <v>       0.00000000       0.31250000       0.15384615 </v>
   <v>       0.05263158       0.31250000       0.15384615 </v>
   <v>       0.10526316       0.31250000       0.15384615 </v>
   <v>       0.15789474       0.31250000       0.15384615 </v>
   <v>       0.21052632       0.31250000       0.15384615 </v>
   <v>       0.26315789       0.31250000       0.15384615 </v>
   <v>       0.31578947       0.31250000       0.15384615 </v>
   <v>       0.36842105       0.31250000       0.15384615 </v>
   <v>       0.42105263       0.31250000       0.15384615 </v>
   <v>       0.47368421       0.31250000       0.15384615 </v>
   <v>      -0.47368421       0.31250000       0.15384615 </v>
   <v>      -0.42105263       0.31250000       0.15384615 </v>
   <v>      -0.36842105       0.31250000       0.15384615 </v>
   <v>      -0.31578947       0.31250000       0.15384615 </v>
   <v>      -0.26315789       0.31250000       0.15384615 </v>
   <v>      -0.21052632       0.31250000       0.15384615 </v>
   <v>      -0.15789474       0.31250000       0.15384615 </v>
   <v>      -0.10526316       0.31250000       0.15384615 </v>
   <v>      -0.05263158       0.31250000       0.15384615 </v>
   <v>       0.00000000       0.37500000       0.15384615 </v>
   <v>       0.05263158       0.37500000       0.15384615 </v>
   <v>       0.10526316       0.37500000       0.15384615 </v>
   <v>       0.15789474       0.37500000       0.15384615 </v>
   <v>       0.21052632       0.37500000       0.15384615 </v>
   <v>       0.26315789       0.37500000       0.15384615 </v>
   <v>       0.31578947       0.37500000       0.15384615 </v>
   <v>       0.36842105       0.37500000       0.15384615 </v>
   <v>       0.42105263       0.37500000       0.15384615 </v>
   <v>       0.47368421       0.37500000       0.15384615 </v>
   <v>      -0.47368421       0.37500000       0.15384615 </v>
   <v>      -0.42105263       0.37500000       0.15384615 </v>
   <v>      -0.36842105       0.37500000       0.15384615 </v>
   <v>      -0.31578947       0.37500000       0.15384615 </v>
   <v>      -0.26315789       0.37500000       0.15384615 </v>
   <v>      -0.21052632       0.37500000       0.15384615 </v>
   <v>      -0.15789474       0.37500000       0.15384615 </v>
   <v>      -0.10526316       0.37500000       0.15384615 </v>
   <v>      -0.05263158       0.37500000       0.15384615 </v>
   <v>       0.00000000       0.43750000       0.15384615 </v>
   <v>       0.05263158       0.43750000       0.15384615 </v>
   <v>       0.10526316       0.43750000       0.15384615 </v>
   <v>       0.15789474       0.43750000       0.15384615 </v>
   <v>       0.21052632       0.43750000       0.15384615 </v>
   <v>       0.26315789       0.43750000       0.15384615 </v>
   <v>       0.31578947       0.43750000       0.15384615 </v>
   <v>       0.36842105       0.43750000       0.15384615 </v>
   <v>       0.42105263       0.43750000       0.15384615 </v>
   <v>       0.47368421       0.43750000       0.15384615 </v>
   <v>      -0.47368421       0.43750000       0.15384615 </v>
   <v>      -0.42105263       0.43750000       0.15384615 </v>
   <v>      -0.36842105       0.43750000       0.15384615 </v>
   <v>      -0.31578947       0.43750000       0.15384615 </v>
   <v>      -0.26315789       0.43750000       0.15384615 </v>
   <v>      -0.21052632       0.43750000       0.15384615 </v>
   <v>      -0.15789474       0.43750000       0.15384615 </v>
   <v>      -0.10526316       0.43750000       0.15384615 </v>
   <v>      -0.05263158       0.43750000       0.15384615 </v>
   <v>       0.00000000       0.50000000       0.15384615 </v>
   <v>       0.05263158       0.50000000       0.15384615 </v>
   <v>       0.10526316       0.50000000       0.15384615 </v>
   <v>       0.15789474       0.50000000       0.15384615 </v>
   <v>       0.21052632       0.50000000       0.15384615 </v>
   <v>       0.26315789       0.50000000       0.15384615 </v>
   <v>       0.31578947       0.50000000       0.15384615 </v>
   <v>       0.36842105       0.50000000       0.15384615 </v>
   <v>       0.42105263       0.50000000       0.15384615 </v>
   <v>       0.47368421       0.50000000       0.15384615 </v>
   <v>      -0.47368421       0.50000000       0.15384615 </v>
   <v>      -0.42105263       0.50000000       0.15384615 </v>
   <v>      -0.36842105       0.50000000       0.15384615 </v>
   <v>      -0.31578947       0.50000000       0.15384615 </v>
   <v>      -0.26315789       0.50000000       0.15384615 </v>
   <v>      -0.21052632       0.50000000       0.15384615 </v>
   <v>      -0.15789474       0.50000000       0.15384615 </v>
   <v>      -0.10526316       0.50000000       0.15384615 </v>
   <v>      -0.05263158       0.50000000       0.15384615 </v>
   <v>       0.00000000      -0.43750000       0.15384615 </v>
   <v>       0.05263158      -0.43750000       0.15384615 </v>
   <v>       0.10526316      -0.43750000       0.15384615 </v>
   <v>       0.15789474      -0.43750000       0.15384615 </v>
   <v>       0.21052632      -0.43750000       0.15384615 </v>
   <v>       0.26315789      -0.43750000       0.15384615 </v>
   <v>       0.31578947      -0.43750000       0.15384615 </v>
   <v>       0.36842105      -0.43750000       0.15384615 </v>
   <v>       0.42105263      -0.43750000       0.15384615 </v>
   <v>       0.47368421      -0.43750000       0.15384615 </v>
   <v>      -0.47368421      -0.43750000       0.15384615 </v>
   <v>      -0.42105263      -0.43750000       0.15384615 </v>
   <v>      -0.36842105      -0.43750000       0.15384615 </v>
   <v>      -0.31578947      -0.43750000       0.15384615 </v>
   <v>      -0.26315789      -0.43750000       0.15384615 </v>
   <v>      -0.21052632      -0.43750000       0.15384615 </v>
   <v>      -0.15789474      -0.43750000       0.15384615 </v>
   <v>      -0.10526316      -0.43750000       0.15384615 </v>
   <v>      -0.05263158      -0.43750000       0.15384615 </v>
   <v>       0.00000000      -0.37500000       0.15384615 </v>
   <v>       0.05263158      -0.37500000       0.15384615 </v>
   <v>       0.10526316      -0.37500000       0.15384615 </v>
   <v>       0.15789474      -0.37500000       0.15384615 </v>
   <v>       0.21052632      -0.37500000       0.15384615 </v>
   <v>       0.26315789      -0.37500000       0.15384615 </v>
   <v>       0.31578947      -0.37500000       0.15384615 </v>
   <v>       0.36842105      -0.37500000       0.15384615 </v>
   <v>       0.42105263      -0.37500000       0.15384615 </v>
   <v>       0.47368421      -0.37500000       0.15384615 </v>
   <v>      -0.47368421      -0.37500000       0.15384615 </v>
   <v>      -0.42105263      -0.37500000       0.15384615 </v>
   <v>      -0.36842105      -0.37500000       0.15384615 </v>
   <v>      -0.31578947      -0.37500000       0.15384615 </v>
   <v>      -0.26315789      -0.37500000       0.15384615 </v>
   <v>      -0.21052632      -0.37500000       0.15384615 </v>
   <v>      -0.15789474      -0.37500000       0.15384615 </v>
   <v>      -0.10526316      -0.37500000       0.15384615 </v>
   <v>      -0.05263158      -0.37500000       0.15384615 </v>
   <v>       0.00000000      -0.31250000       0.15384615 </v>
   <v>       0.05263158      -0.31250000       0.15384615 </v>
   <v>       0.10526316      -0.31250000       0.15384615 </v>
   <v>       0.15789474      -0.31250000       0.15384615 </v>
   <v>       0.21052632      -0.31250000       0.15384615 </v>
   <v>       0.26315789      -0.31250000       0.15384615 </v>
   <v>       0.31578947      -0.31250000       0.15384615 </v>
   <v>       0.36842105      -0.31250000       0.15384615 </v>
   <v>       0.42105263      -0.31250000       0.15384615 </v>
   <v>       0.47368421      -0.31250000       0.15384615 </v>
   <v>      -0.47368421      -0.31250000       0.15384615 </v>
   <v>      -0.42105263      -0.31250000       0.15384615 </v>
   <v>      -0.36842105      -0.31250000       0.15384615 </v>
   <v>      -0.31578947      -0.31250000       0.15384615 </v>
   <v>      -0.26315789      -0.31250000       0.15384615 </v>
   <v>      -0.21052632      -0.31250000       0.15384615 </v>
   <v>      -0.15789474      -0.31250000       0.15384615 </v>
   <v>      -0.10526316      -0.31250000       0.15384615 </v>
   <v>      -0.05263158      -0.31250000       0.15384615 </v>
   <v>       0.00000000      -0.25000000       0.15384615 </v>
   <v>       0.05263158      -0.25000000       0.15384615 </v>
   <v>       0.10526316      -0.25000000       0.15384615 </v>
   <v>       0.15789474      -0.25000000       0.15384615 </v>
   <v>       0.21052632      -0.25000000       0.15384615 </v>
   <v>       0.26315789      -0.25000000       0.15384615 </v>
   <v>       0.31578947      -0.25000000       0.15384615 </v>
   <v>       0.36842105      -0.25000000       0.15384615 </v>
   <v>       0.42105263      -0.25000000       0.15384615 </v>
   <v>       0.47368421      -0.25000000       0.15384615 </v>
   <v>      -0.47368421      -0.25000000       0.15384615 </v>
   <v>      -0.42105263      -0.25000000       0.15384615 </v>
   <v>      -0.36842105      -0.25000000       0.15384615 </v>
   <v>      -0.31578947      -0.25000000       0.15384615 </v>
   <v>      -0.26315789      -0.25000000       0.15384615 </v>
   <v>      -0.21052632      -0.25000000       0.15384615 </v>
   <v>      -0.15789474      -0.25000000       0.15384615 </v>
   <v>      -0.10526316      -0.25000000       0.15384615 </v>
   <v>      -0.05263158      -0.25000000       0.15384615 </v>
   <v>       0.00000000      -0.18750000       0.15384615 </v>
   <v>       0.05263158      -0.18750000       0.15384615 </v>
   <v>       0.10526316      -0.18750000       0.15384615 </v>
   <v>       0.15789474      -0.18750000       0.15384615 </v>
   <v>       0.21052632      -0.18750000       0.15384615 </v>
   <v>       0.26315789      -0.18750000       0.15384615 </v>
   <v>       0.31578947      -0.18750000       0.15384615 </v>
   <v>       0.36842105      -0.18750000       0.15384615 </v>
   <v>       0.42105263      -0.18750000       0.15384615 </v>
   <v>       0.47368421      -0.18750000       0.15384615 </v>
   <v>      -0.47368421      -0.18750000       0.15384615 </v>
   <v>      -0.42105263      -0.18750000       0.15384615 </v>
   <v>      -0.36842105      -0.18750000       0.15384615 </v>
   <v>      -0.31578947      -0.18750000       0.15384615 </v>
   <v>      -0.26315789      -0.18750000       0.15384615 </v>
   <v>      -0.21052632      -0.18750000       0.15384615 </v>
   <v>      -0.15789474      -0.18750000       0.15384615 </v>
   <v>      -0.10526316      -0.18750000       0.15384615 </v>
   <v>      -0.05263158      -0.18750000       0.15384615 </v>
   <v>       0.00000000      -0.12500000       0.15384615 </v>
   <v>       0.05263158      -0.12500000       0.15384615 </v>
   <v>       0.10526316      -0.12500000       0.15384615 </v>
   <v>       0.15789474      -0.12500000       0.15384615 </v>
   <v>       0.21052632      -0.12500000       0.15384615 </v>
   <v>       0.26315789      -0.12500000       0.15384615 </v>
   <v>       0.31578947      -0.12500000       0.15384615 </v>
   <v>       0.36842105      -0.12500000       0.15384615 </v>
   <v>       0.42105263      -0.12500000       0.15384615 </v>
   <v>       0.47368421      -0.12500000       0.15384615 </v>
   <v>      -0.47368421      -0.12500000       0.15384615 </v>
   <v>      -0.42105263      -0.12500000       0.15384615 </v>
   <v>      -0.36842105      -0.12500000       0.15384615 </v>
   <v>      -0.31578947      -0.12500000       0.15384615 </v>
   <v>      -0.26315789      -0.12500000       0.15384615 </v>
   <v>      -0.21052632      -0.12500000       0.15384615 </v>
   <v>      -0.15789474      -0.12500000       0.15384615 </v>
   <v>      -0.10526316      -0.12500000       0.15384615 </v>
   <v>      -0.05263158      -0.12500000       0.15384615 </v>
   <v>       0.00000000      -0.06250000       0.15384615 </v>
   <v>       0.05263158      -0.06250000       0.15384615 </v>
   <v>       0.10526316      -0.06250000       0.15384615 </v>
   <v>       0.15789474      -0.06250000       0.15384615 </v>
   <v>       0.21052632      -0.06250000       0.15384615 </v>
   <v>       0.26315789      -0.06250000       0.15384615 </v>
   <v>       0.31578947      -0.06250000       0.15384615 </v>
   <v>       0.36842105      -0.06250000       0.15384615 </v>
   <v>       0.42105263      -0.06250000       0.15384615 </v>
   <v>       0.47368421      -0.06250000       0.15384615 </v>
   <v>      -0.47368421      -0.06250000       0.15384615 </v>
   <v>      -0.42105263      -0.06250000       0.15384615 </v>
   <v>      -0.36842105      -0.06250000       0.15384615 </v>
   <v>      -0.31578947      -0.06250000       0.15384615 </v>
   <v>      -0.26315789      -0.06250000       0.15384615 </v>
   <v>      -0.21052632      -0.06250000       0.15384615 </v>
   <v>      -0.15789474      -0.06250000       0.15384615 </v>
   <v>      -0.10526316      -0.06250000       0.15384615 </v>
   <v>      -0.05263158      -0.06250000       0.15384615 </v>
   <v>       0.00000000       0.00000000       0.23076923 </v>
   <v>       0.05263158       0.00000000       0.23076923 </v>
   <v>       0.10526316       0.00000000       0.23076923 </v>
   <v>       0.15789474       0.00000000       0.23076923 </v>
   <v>       0.21052632       0.00000000       0.23076923 </v>
   <v>       0.26315789       0.00000000       0.23076923 </v>
   <v>       0.31578947       0.00000000       0.23076923 </v>
   <v>       0.36842105       0.00000000       0.23076923 </v>
   <v>       0.42105263       0.00000000       0.23076923 </v>
   <v>       0.47368421       0.00000000       0.23076923 </v>
   <v>      -0.47368421       0.00000000       0.23076923 </v>
   <v>      -0.42105263       0.00000000       0.23076923 </v>
   <v>      -0.36842105       0.00000000       0.23076923 </v>
   <v>      -0.31578947       0.00000000       0.23076923 </v>
   <v>      -0.26315789       0.00000000       0.23076923 </v>
   <v>      -0.21052632       0.00000000       0.23076923 </v>
   <v>      -0.15789474       0.00000000       0.23076923 </v>
   <v>      -0.10526316       0.00000000       0.23076923 </v>
   <v>      -0.05263158       0.00000000       0.23076923 </v>
   <v>       0.00000000       0.06250000       0.23076923 </v>
   <v>       0.05263158       0.06250000       0.23076923 </v>
   <v>       0.10526316       0.06250000       0.23076923 </v>
   <v>       0.15789474       0.06250000       0.23076923 </v>
   <v>       0.21052632       0.06250000       0.23076923 </v>
   <v>       0.26315789       0.06250000       0.23076923 </v>
   <v>       0.31578947       0.06250000       0.23076923 </v>
   <v>       0.36842105       0.06250000       0.23076923 </v>
   <v>       0.42105263       0.06250000       0.23076923 </v>
   <v>       0.47368421       0.06250000       0.23076923 </v>
   <v>      -0.47368421       0.06250000       0.23076923 </v>
   <v>      -0.42105263       0.06250000       0.23076923 </v>
   <v>      -0.36842105       0.06250000       0.23076923 </v>
   <v>      -0.31578947       0.06250000       0.23076923 </v>
   <v>      -0.26315789       0.06250000       0.23076923 </v>
   <v>      -0.21052632       0.06250000       0.23076923 </v>
   <v>      -0.15789474       0.06250000       0.23076923 </v>
   <v>      -0.10526316       0.06250000       0.23076923 </v>
   <v>      -0.05263158       0.06250000       0.23076923 </v>
   <v>       0.00000000       0.12500000       0.23076923 </v>
   <v>       0.05263158       0.12500000       0.23076923 </v>
   <v>       0.10526316       0.12500000       0.23076923 </v>
   <v>       0.15789474       0.12500000       0.23076923 </v>
   <v>       0.21052632       0.12500000       0.23076923 </v>
   <v>       0.26315789       0.12500000       0.23076923 </v>
   <v>       0.31578947       0.12500000       0.23076923 </v>
   <v>       0.36842105       0.12500000       0.23076923 </v>
   <v>       0.42105263       0.12500000       0.23076923 </v>
   <v>       0.47368421       0.12500000       0.23076923 </v>
   <v>      -0.47368421       0.12500000       0.23076923 </v>
   <v>      -0.42105263       0.12500000       0.23076923 </v>
   <v>      -0.36842105       0.12500000       0.23076923 </v>
   <v>      -0.31578947       0.12500000       0.23076923 </v>
   <v>      -0.26315789       0.12500000       0.23076923 </v>
   <v>      -0.21052632       0.12500000       0.23076923 </v>
   <v>      -0.15789474       0.12500000       0.23076923 </v>
   <v>      -0.10526316       0.12500000       0.23076923 </v>
   <v>      -0.05263158       0.12500000       0.23076923 </v>
   <v>       0.00000000       0.18750000       0.23076923 </v>
   <v>       0.05263158       0.18750000       0.23076923 </v>
   <v>       0.10526316       0.18750000       0.23076923 </v>
   <v>       0.15789474       0.18750000       0.23076923 </v>
   <v>       0.21052632       0.18750000       0.23076923 </v>
   <v>       0.26315789       0.18750000       0.23076923 </v>
   <v>       0.31578947       0.18750000       0.23076923 </v>
   <v>       0.36842105       0.18750000       0.23076923 </v>
   <v>       0.42105263       0.18750000       0.23076923 </v>
   <v>       0.47368421       0.18750000       0.23076923 </v>
   <v>      -0.47368421       0.18750000       0.23076923 </v>
   <v>      -0.42105263       0.18750000       0.23076923 </v>
   <v>      -0.36842105       0.18750000       0.23076923 </v>
   <v>      -0.31578947       0.18750000       0.23076923 </v>
   <v>      -0.26315789       0.18750000       0.23076923 </v>
   <v>      -0.21052632       0.18750000       0.23076923 </v>
   <v>      -0.15789474       0.18750000       0.23076923 </v>
   <v>      -0.10526316       0.18750000       0.23076923 </v>
   <v>      -0.05263158       0.18750000       0.23076923 </v>
   <v>       0.00000000       0.25000000       0.23076923 </v>
   <v>       0.05263158       0.25000000       0.23076923 </v>
   <v>       0.10526316       0.25000000       0.23076923 </v>
   <v>       0.15789474       0.25000000       0.23076923 </v>
   <v>       0.21052632       0.25000000       0.23076923 </v>
   <v>       0.26315789       0.25000000       0.23076923 </v>
   <v>       0.31578947       0.25000000       0.23076923 </v>
   <v>       0.36842105       0.25000000       0.23076923 </v>
   <v>       0.42105263       0.25000000       0.23076923 </v>
   <v>       0.47368421       0.25000000       0.23076923 </v>
   <v>      -0.47368421       0.25000000       0.23076923 </v>
   <v>      -0.42105263       0.25000000       0.23076923 </v>
   <v>      -0.36842105       0.25000000       0.23076923 </v>
   <v>      -0.31578947       0.25000000       0.23076923 </v>
   <v>      -0.26315789       0.25000000       0.23076923 </v>
   <v>      -0.21052632       0.25000000       0.23076923 </v>
   <v>      -0.15789474       0.25000000       0.23076923 </v>
   <v>      -0.10526316       0.25000000       0.23076923 </v>
   <v>      -0.05263158       0.25000000       0.23076923 </v>
   <v>       0.00000000       0.31250000       0.23076923 </v>
   <v>       0.05263158       0.31250000       0.23076923 </v>
   <v>       0.10526316       0.31250000       0.23076923 </v>
   <v>       0.15789474       0.31250000       0.23076923 </v>
   <v>       0.21052632       0.31250000       0.23076923 </v>
   <v>       0.26315789       0.31250000       0.23076923 </v>
   <v>       0.31578947       0.31250000       0.23076923 </v>
   <v>       0.36842105       0.31250000       0.23076923 </v>
   <v>       0.42105263       0.31250000       0.23076923 </v>
   <v>       0.47368421       0.31250000       0.23076923 </v>
   <v>      -0.47368421       0.31250000       0.23076923 </v>
   <v>      -0.42105263       0.31250000       0.23076923 </v>
   <v>      -0.36842105       0.31250000       0.23076923 </v>
   <v>      -0.31578947       0.31250000       0.23076923 </v>
   <v>      -0.26315789       0.31250000       0.23076923 </v>
   <v>      -0.21052632       0.31250000       0.23076923 </v>
   <v>      -0.15789474       0.31250000       0.23076923 </v>
   <v>      -0.10526316       0.31250000       0.23076923 </v>
   <v>      -0.05263158       0.31250000       0.23076923 </v>
   <v>       0.00000000       0.37500000       0.23076923 </v>
   <v>       0.05263158       0.37500000       0.23076923 </v>
   <v>       0.10526316       0.37500000       0.23076923 </v>
   <v>       0.15789474       0.37500000       0.23076923 </v>
   <v>       0.21052632       0.37500000       0.23076923 </v>
   <v>       0.26315789       0.37500000       0.23076923 </v>
   <v>       0.31578947       0.37500000       0.23076923 </v>
   <v>       0.36842105       0.37500000       0.23076923 </v>
   <v>       0.42105263       0.37500000       0.23076923 </v>
   <v>       0.47368421       0.37500000       0.23076923 </v>
   <v>      -0.47368421       0.37500000       0.23076923 </v>
   <v>      -0.42105263       0.37500000       0.23076923 </v>
   <v>      -0.36842105       0.37500000       0.23076923 </v>
   <v>      -0.31578947       0.37500000       0.23076923 </v>
   <v>      -0.26315789       0.37500000       0.23076923 </v>
   <v>      -0.21052632       0.37500000       0.23076923 </v>
   <v>      -0.15789474       0.37500000       0.23076923 </v>
   <v>      -0.10526316       0.37500000       0.23076923 </v>
   <v>      -0.05263158       0.37500000       0.23076923 </v>
   <v>       0.00000000       0.43750000       0.23076923 </v>
   <v>       0.05263158       0.43750000       0.23076923 </v>
   <v>       0.10526316       0.43750000       0.23076923 </v>
   <v>       0.15789474       0.43750000       0.23076923 </v>
   <v>       0.21052632       0.43750000       0.23076923 </v>
   <v>       0.26315789       0.43750000       0.23076923 </v>
   <v>       0.31578947       0.43750000       0.23076923 </v>
   <v>       0.36842105       0.43750000       0.23076923 </v>
   <v>       0.42105263       0.43750000       0.23076923 </v>
   <v>       0.47368421       0.43750000       0.23076923 </v>
   <v>      -0.47368421       0.43750000       0.23076923 </v>
   <v>      -0.42105263       0.43750000       0.23076923 </v>
   <v>      -0.36842105       0.43750000       0.23076923 </v>
   <v>      -0.31578947       0.43750000       0.23076923 </v>
   <v>      -0.26315789       0.43750000       0.23076923 </v>
   <v>      -0.21052632       0.43750000       0.23076923 </v>
   <v>      -0.15789474       0.43750000       0.23076923 </v>
   <v>      -0.10526316       0.43750000       0.23076923 </v>
   <v>      -0.05263158       0.43750000       0.23076923 </v>
   <v>       0.00000000       0.50000000       0.23076923 </v>
   <v>       0.05263158       0.50000000       0.23076923 </v>
   <v>       0.10526316       0.50000000       0.23076923 </v>
   <v>       0.15789474       0.50000000       0.23076923 </v>
   <v>       0.21052632       0.50000000       0.23076923 </v>
   <v>       0.26315789       0.50000000       0.23076923 </v>
   <v>       0.31578947       0.50000000       0.23076923 </v>
   <v>       0.36842105       0.50000000       0.23076923 </v>
   <v>       0.42105263       0.50000000       0.23076923 </v>
   <v>       0.47368421       0.50000000       0.23076923 </v>
   <v>      -0.47368421       0.50000000       0.23076923 </v>
   <v>      -0.42105263       0.50000000       0.23076923 </v>
   <v>      -0.36842105       0.50000000       0.23076923 </v>
   <v>      -0.31578947       0.50000000       0.23076923 </v>
   <v>      -0.26315789       0.50000000       0.23076923 </v>
   <v>      -0.21052632       0.50000000       0.23076923 </v>
   <v>      -0.15789474       0.50000000       0.23076923 </v>
   <v>      -0.10526316       0.50000000       0.23076923 </v>
   <v>      -0.05263158       0.50000000       0.23076923 </v>
   <v>       0.00000000      -0.43750000       0.23076923 </v>
   <v>       0.05263158      -0.43750000       0.23076923 </v>
   <v>       0.10526316      -0.43750000       0.23076923 </v>
   <v>       0.15789474      -0.43750000       0.23076923 </v>
   <v>       0.21052632      -0.43750000       0.23076923 </v>
   <v>       0.26315789      -0.43750000       0.23076923 </v>
   <v>       0.31578947      -0.43750000       0.23076923 </v>
   <v>       0.36842105      -0.43750000       0.23076923 </v>
   <v>       0.42105263      -0.43750000       0.23076923 </v>
   <v>       0.47368421      -0.43750000       0.23076923 </v>
   <v>      -0.47368421      -0.43750000       0.23076923 </v>
   <v>      -0.42105263      -0.43750000       0.23076923 </v>
   <v>      -0.36842105      -0.43750000       0.23076923 </v>
   <v>      -0.31578947      -0.43750000       0.23076923 </v>
   <v>      -0.26315789      -0.43750000       0.23076923 </v>
   <v>      -0.21052632      -0.43750000       0.23076923 </v>
   <v>      -0.15789474      -0.43750000       0.23076923 </v>
   <v>      -0.10526316      -0.43750000       0.23076923 </v>
   <v>      -0.05263158      -0.43750000       0.23076923 </v>
   <v>       0.00000000      -0.37500000       0.23076923 </v>
   <v>       0.05263158      -0.37500000       0.23076923 </v>
   <v>       0.10526316      -0.37500000       0.23076923 </v>
   <v>       0.15789474      -0.37500000       0.23076923 </v>
   <v>       0.21052632      -0.37500000       0.23076923 </v>
   <v>       0.26315789      -0.37500000       0.23076923 </v>
   <v>       0.31578947      -0.37500000       0.23076923 </v>
   <v>       0.36842105      -0.37500000       0.23076923 </v>
   <v>       0.42105263      -0.37500000       0.23076923 </v>
   <v>       0.47368421      -0.37500000       0.23076923 </v>
   <v>      -0.47368421      -0.37500000       0.23076923 </v>
   <v>      -0.42105263      -0.37500000       0.23076923 </v>
   <v>      -0.36842105      -0.37500000       0.23076923 </v>
   <v>      -0.31578947      -0.37500000       0.23076923 </v>
   <v>      -0.26315789      -0.37500000       0.23076923 </v>
   <v>      -0.21052632      -0.37500000       0.23076923 </v>
   <v>      -0.15789474      -0.37500000       0.23076923 </v>
   <v>      -0.10526316      -0.37500000       0.23076923 </v>
   <v>      -0.05263158      -0.37500000       0.23076923 </v>
   <v>       0.00000000      -0.31250000       0.23076923 </v>
   <v>       0.05263158      -0.31250000       0.23076923 </v>
   <v>       0.10526316      -0.31250000       0.23076923 </v>
   <v>       0.15789474      -0.31250000       0.23076923 </v>
   <v>       0.21052632      -0.31250000       0.23076923 </v>
   <v>       0.26315789      -0.31250000       0.23076923 </v>
   <v>       0.31578947      -0.31250000       0.23076923 </v>
   <v>       0.36842105      -0.31250000       0.23076923 </v>
   <v>       0.42105263      -0.31250000       0.23076923 </v>
   <v>       0.47368421      -0.31250000       0.23076923 </v>
   <v>      -0.47368421      -0.31250000       0.23076923 </v>
   <v>      -0.42105263      -0.31250000       0.23076923 </v>
   <v>      -0.36842105      -0.31250000       0.23076923 </v>
   <v>      -0.31578947      -0.31250000       0.23076923 </v>
   <v>      -0.26315789      -0.31250000       0.23076923 </v>
   <v>      -0.21052632      -0.31250000       0.23076923 </v>
   <v>      -0.15789474      -0.31250000       0.23076923 </v>
   <v>      -0.10526316      -0.31250000       0.23076923 </v>
   <v>      -0.05263158      -0.31250000       0.23076923 </v>
   <v>       0.00000000      -0.25000000       0.23076923 </v>
   <v>       0.05263158      -0.25000000       0.23076923 </v>
   <v>       0.10526316      -0.25000000       0.23076923 </v>
   <v>       0.15789474      -0.25000000       0.23076923 </v>
   <v>       0.21052632      -0.25000000       0.23076923 </v>
   <v>       0.26315789      -0.25000000       0.23076923 </v>
   <v>       0.31578947      -0.25000000       0.23076923 </v>
   <v>       0.36842105      -0.25000000       0.23076923 </v>
   <v>       0.42105263      -0.25000000       0.23076923 </v>
   <v>       0.47368421      -0.25000000       0.23076923 </v>
   <v>      -0.47368421      -0.25000000       0.23076923 </v>
   <v>      -0.42105263      -0.25000000       0.23076923 </v>
   <v>      -0.36842105      -0.25000000       0.23076923 </v>
   <v>      -0.31578947      -0.25000000       0.23076923 </v>
   <v>      -0.26315789      -0.25000000       0.23076923 </v>
   <v>      -0.21052632      -0.25000000       0.23076923 </v>
   <v>      -0.15789474      -0.25000000       0.23076923 </v>
   <v>      -0.10526316      -0.25000000       0.23076923 </v>
   <v>      -0.05263158      -0.25000000       0.23076923 </v>
   <v>       0.00000000      -0.18750000       0.23076923 </v>
   <v>       0.05263158      -0.18750000       0.23076923 </v>
   <v>       0.10526316      -0.18750000       0.23076923 </v>
   <v>       0.15789474      -0.18750000       0.23076923 </v>
   <v>       0.21052632      -0.18750000       0.23076923 </v>
   <v>       0.26315789      -0.18750000       0.23076923 </v>
   <v>       0.31578947      -0.18750000       0.23076923 </v>
   <v>       0.36842105      -0.18750000       0.23076923 </v>
   <v>       0.42105263      -0.18750000       0.23076923 </v>
   <v>       0.47368421      -0.18750000       0.23076923 </v>
   <v>      -0.47368421      -0.18750000       0.23076923 </v>
   <v>      -0.42105263      -0.18750000       0.23076923 </v>
   <v>      -0.36842105      -0.18750000       0.23076923 </v>
   <v>      -0.31578947      -0.18750000       0.23076923 </v>
   <v>      -0.26315789      -0.18750000       0.23076923 </v>
   <v>      -0.21052632      -0.18750000       0.23076923 </v>
   <v>      -0.15789474      -0.18750000       0.23076923 </v>
   <v>      -0.10526316      -0.18750000       0.23076923 </v>
   <v>      -0.05263158      -0.18750000       0.23076923 </v>
   <v>       0.00000000      -0.12500000       0.23076923 </v>
   <v>       0.05263158      -0.12500000       0.23076923 </v>
   <v>       0.10526316      -0.12500000       0.23076923 </v>
   <v>       0.15789474      -0.12500000       0.23076923 </v>
   <v>       0.21052632      -0.12500000       0.23076923 </v>
   <v>       0.26315789      -0.12500000       0.23076923 </v>
   <v>       0.31578947      -0.12500000       0.23076923 </v>
   <v>       0.36842105      -0.12500000       0.23076923 </v>
   <v>       0.42105263      -0.12500000       0.23076923 </v>
   <v>       0.47368421      -0.12500000       0.23076923 </v>
   <v>      -0.47368421      -0.12500000       0.23076923 </v>
   <v>      -0.42105263      -0.12500000       0.23076923 </v>
   <v>      -0.36842105      -0.12500000       0.23076923 </v>
   <v>      -0.31578947      -0.12500000       0.23076923 </v>
   <v>      -0.26315789      -0.12500000       0.23076923 </v>
   <v>      -0.21052632      -0.12500000       0.23076923 </v>
   <v>      -0.15789474      -0.12500000       0.23076923 </v>
   <v>      -0.10526316      -0.12500000       0.23076923 </v>
   <v>      -0.05263158      -0.12500000       0.23076923 </v>
   <v>       0.00000000      -0.06250000       0.23076923 </v>
   <v>       0.05263158      -0.06250000       0.23076923 </v>
   <v>       0.10526316      -0.06250000       0.23076923 </v>
   <v>       0.15789474      -0.06250000       0.23076923 </v>
   <v>       0.21052632      -0.06250000       0.23076923 </v>
   <v>       0.26315789      -0.06250000       0.23076923 </v>
   <v>       0.31578947      -0.06250000       0.23076923 </v>
   <v>       0.36842105      -0.06250000       0.23076923 </v>
   <v>       0.42105263      -0.06250000       0.23076923 </v>
   <v>       0.47368421      -0.06250000       0.23076923 </v>
   <v>      -0.47368421      -0.06250000       0.23076923 </v>
   <v>      -0.42105263      -0.06250000       0.23076923 </v>
   <v>      -0.36842105      -0.06250000       0.23076923 </v>
   <v>      -0.31578947      -0.06250000       0.23076923 </v>
   <v>      -0.26315789      -0.06250000       0.23076923 </v>
   <v>      -0.21052632      -0.06250000       0.23076923 </v>
   <v>      -0.15789474      -0.06250000       0.23076923 </v>
   <v>      -0.10526316      -0.06250000       0.23076923 </v>
   <v>      -0.05263158      -0.06250000       0.23076923 </v>
   <v>       0.00000000       0.00000000       0.30769231 </v>
   <v>       0.05263158       0.00000000       0.30769231 </v>
   <v>       0.10526316       0.00000000       0.30769231 </v>
   <v>       0.15789474       0.00000000       0.30769231 </v>
   <v>       0.21052632       0.00000000       0.30769231 </v>
   <v>       0.26315789       0.00000000       0.30769231 </v>
   <v>       0.31578947       0.00000000       0.30769231 </v>
   <v>       0.36842105       0.00000000       0.30769231 </v>
   <v>       0.42105263       0.00000000       0.30769231 </v>
   <v>       0.47368421       0.00000000       0.30769231 </v>
   <v>      -0.47368421       0.00000000       0.30769231 </v>
   <v>      -0.42105263       0.00000000       0.30769231 </v>
   <v>      -0.36842105       0.00000000       0.30769231 </v>
   <v>      -0.31578947       0.00000000       0.30769231 </v>
   <v>      -0.26315789       0.00000000       0.30769231 </v>
   <v>      -0.21052632       0.00000000       0.30769231 </v>
   <v>      -0.15789474       0.00000000       0.30769231 </v>
   <v>      -0.10526316       0.00000000       0.30769231 </v>
   <v>      -0.05263158       0.00000000       0.30769231 </v>
   <v>       0.00000000       0.06250000       0.30769231 </v>
   <v>       0.05263158       0.06250000       0.30769231 </v>
   <v>       0.10526316       0.06250000       0.30769231 </v>
   <v>       0.15789474       0.06250000       0.30769231 </v>
   <v>       0.21052632       0.06250000       0.30769231 </v>
   <v>       0.26315789       0.06250000       0.30769231 </v>
   <v>       0.31578947       0.06250000       0.30769231 </v>
   <v>       0.36842105       0.06250000       0.30769231 </v>
   <v>       0.42105263       0.06250000       0.30769231 </v>
   <v>       0.47368421       0.06250000       0.30769231 </v>
   <v>      -0.47368421       0.06250000       0.30769231 </v>
   <v>      -0.42105263       0.06250000       0.30769231 </v>
   <v>      -0.36842105       0.06250000       0.30769231 </v>
   <v>      -0.31578947       0.06250000       0.30769231 </v>
   <v>      -0.26315789       0.06250000       0.30769231 </v>
   <v>      -0.21052632       0.06250000       0.30769231 </v>
   <v>      -0.15789474       0.06250000       0.30769231 </v>
   <v>      -0.10526316       0.06250000       0.30769231 </v>
   <v>      -0.05263158       0.06250000       0.30769231 </v>
   <v>       0.00000000       0.12500000       0.30769231 </v>
   <v>       0.05263158       0.12500000       0.30769231 </v>
   <v>       0.10526316       0.12500000       0.30769231 </v>
   <v>       0.15789474       0.12500000       0.30769231 </v>
   <v>       0.21052632       0.12500000       0.30769231 </v>
   <v>       0.26315789       0.12500000       0.30769231 </v>
   <v>       0.31578947       0.12500000       0.30769231 </v>
   <v>       0.36842105       0.12500000       0.30769231 </v>
   <v>       0.42105263       0.12500000       0.30769231 </v>
   <v>       0.47368421       0.12500000       0.30769231 </v>
   <v>      -0.47368421       0.12500000       0.30769231 </v>
   <v>      -0.42105263       0.12500000       0.30769231 </v>
   <v>      -0.36842105       0.12500000       0.30769231 </v>
   <v>      -0.31578947       0.12500000       0.30769231 </v>
   <v>      -0.26315789       0.12500000       0.30769231 </v>
   <v>      -0.21052632       0.12500000       0.30769231 </v>
   <v>      -0.15789474       0.12500000       0.30769231 </v>
   <v>      -0.10526316       0.12500000       0.30769231 </v>
   <v>      -0.05263158       0.12500000       0.30769231 </v>
   <v>       0.00000000       0.18750000       0.30769231 </v>
   <v>       0.05263158       0.18750000       0.30769231 </v>
   <v>       0.10526316       0.18750000       0.30769231 </v>
   <v>       0.15789474       0.18750000       0.30769231 </v>
   <v>       0.21052632       0.18750000       0.30769231 </v>
   <v>       0.26315789       0.18750000       0.30769231 </v>
   <v>       0.31578947       0.18750000       0.30769231 </v>
   <v>       0.36842105       0.18750000       0.30769231 </v>
   <v>       0.42105263       0.18750000       0.30769231 </v>
   <v>       0.47368421       0.18750000       0.30769231 </v>
   <v>      -0.47368421       0.18750000       0.30769231 </v>
   <v>      -0.42105263       0.18750000       0.30769231 </v>
   <v>      -0.36842105       0.18750000       0.30769231 </v>
   <v>      -0.31578947       0.18750000       0.30769231 </v>
   <v>      -0.26315789       0.18750000       0.30769231 </v>
   <v>      -0.21052632       0.18750000       0.30769231 </v>
   <v>      -0.15789474       0.18750000       0.30769231 </v>
   <v>      -0.10526316       0.18750000       0.30769231 </v>
   <v>      -0.05263158       0.18750000       0.30769231 </v>
   <v>       0.00000000       0.25000000       0.30769231 </v>
   <v>       0.05263158       0.25000000       0.30769231 </v>
   <v>       0.10526316       0.25000000       0.30769231 </v>
   <v>       0.15789474       0.25000000       0.30769231 </v>
   <v>       0.21052632       0.25000000       0.30769231 </v>
   <v>       0.26315789       0.25000000       0.30769231 </v>
   <v>       0.31578947       0.25000000       0.30769231 </v>
   <v>       0.36842105       0.25000000       0.30769231 </v>
   <v>       0.42105263       0.25000000       0.30769231 </v>
   <v>       0.47368421       0.25000000       0.30769231 </v>
   <v>      -0.47368421       0.25000000       0.30769231 </v>
   <v>      -0.42105263       0.25000000       0.30769231 </v>
   <v>      -0.36842105       0.25000000       0.30769231 </v>
   <v>      -0.31578947       0.25000000       0.30769231 </v>
   <v>      -0.26315789       0.25000000       0.30769231 </v>
   <v>      -0.21052632       0.25000000       0.30769231 </v>
   <v>      -0.15789474       0.25000000       0.30769231 </v>
   <v>      -0.10526316       0.25000000       0.30769231 </v>
   <v>      -0.05263158       0.25000000       0.30769231 </v>
   <v>       0.00000000       0.31250000       0.30769231 </v>
   <v>       0.05263158       0.31250000       0.30769231 </v>
   <v>       0.10526316       0.31250000       0.30769231 </v>
   <v>       0.15789474       0.31250000       0.30769231 </v>
   <v>       0.21052632       0.31250000       0.30769231 </v>
   <v>       0.26315789       0.31250000       0.30769231 </v>
   <v>       0.31578947       0.31250000       0.30769231 </v>
   <v>       0.36842105       0.31250000       0.30769231 </v>
   <v>       0.42105263       0.31250000       0.30769231 </v>
   <v>       0.47368421       0.31250000       0.30769231 </v>
   <v>      -0.47368421       0.31250000       0.30769231 </v>
   <v>      -0.42105263       0.31250000       0.30769231 </v>
   <v>      -0.36842105       0.31250000       0.30769231 </v>
   <v>      -0.31578947       0.31250000       0.30769231 </v>
   <v>      -0.26315789       0.31250000       0.30769231 </v>
   <v>      -0.21052632       0.31250000       0.30769231 </v>
   <v>      -0.15789474       0.31250000       0.30769231 </v>
   <v>      -0.10526316       0.31250000       0.30769231 </v>
   <v>      -0.05263158       0.31250000       0.30769231 </v>
   <v>       0.00000000       0.37500000       0.30769231 </v>
   <v>       0.05263158       0.37500000       0.30769231 </v>
   <v>       0.10526316       0.37500000       0.30769231 </v>
   <v>       0.15789474       0.37500000       0.30769231 </v>
   <v>       0.21052632       0.37500000       0.30769231 </v>
   <v>       0.26315789       0.37500000       0.30769231 </v>
   <v>       0.31578947       0.37500000       0.30769231 </v>
   <v>       0.36842105       0.37500000       0.30769231 </v>
   <v>       0.42105263       0.37500000       0.30769231 </v>
   <v>       0.47368421       0.37500000       0.30769231 </v>
   <v>      -0.47368421       0.37500000       0.30769231 </v>
   <v>      -0.42105263       0.37500000       0.30769231 </v>
   <v>      -0.36842105       0.37500000       0.30769231 </v>
   <v>      -0.31578947       0.37500000       0.30769231 </v>
   <v>      -0.26315789       0.37500000       0.30769231 </v>
   <v>      -0.21052632       0.37500000       0.30769231 </v>
   <v>      -0.15789474       0.37500000       0.30769231 </v>
   <v>      -0.10526316       0.37500000       0.30769231 </v>
   <v>      -0.05263158       0.37500000       0.30769231 </v>
   <v>       0.00000000       0.43750000       0.30769231 </v>
   <v>       0.05263158       0.43750000       0.30769231 </v>
   <v>       0.10526316       0.43750000       0.30769231 </v>
   <v>       0.15789474       0.43750000       0.30769231 </v>
   <v>       0.21052632       0.43750000       0.30769231 </v>
   <v>       0.26315789       0.43750000       0.30769231 </v>
   <v>       0.31578947       0.43750000       0.30769231 </v>
   <v>       0.36842105       0.43750000       0.30769231 </v>
   <v>       0.42105263       0.43750000       0.30769231 </v>
   <v>       0.47368421       0.43750000       0.30769231 </v>
   <v>      -0.47368421       0.43750000       0.30769231 </v>
   <v>      -0.42105263       0.43750000       0.30769231 </v>
   <v>      -0.36842105       0.43750000       0.30769231 </v>
   <v>      -0.31578947       0.43750000       0.30769231 </v>
   <v>      -0.26315789       0.43750000       0.30769231 </v>
   <v>      -0.21052632       0.43750000       0.30769231 </v>
   <v>      -0.15789474       0.43750000       0.30769231 </v>
   <v>      -0.10526316       0.43750000       0.30769231 </v>
   <v>      -0.05263158       0.43750000       0.30769231 </v>
   <v>       0.00000000       0.50000000       0.30769231 </v>
   <v>       0.05263158       0.50000000       0.30769231 </v>
   <v>       0.10526316       0.50000000       0.30769231 </v>
   <v>       0.15789474       0.50000000       0.30769231 </v>
   <v>       0.21052632       0.50000000       0.30769231 </v>
   <v>       0.26315789       0.50000000       0.30769231 </v>
   <v>       0.31578947       0.50000000       0.30769231 </v>
   <v>       0.36842105       0.50000000       0.30769231 </v>
   <v>       0.42105263       0.50000000       0.30769231 </v>
   <v>       0.47368421       0.50000000       0.30769231 </v>
   <v>      -0.47368421       0.50000000       0.30769231 </v>
   <v>      -0.42105263       0.50000000       0.30769231 </v>
   <v>      -0.36842105       0.50000000       0.30769231 </v>
   <v>      -0.31578947       0.50000000       0.30769231 </v>
   <v>      -0.26315789       0.50000000       0.30769231 </v>
   <v>      -0.21052632       0.50000000       0.30769231 </v>
   <v>      -0.15789474       0.50000000       0.30769231 </v>
   <v>      -0.10526316       0.50000000       0.30769231 </v>
   <v>      -0.05263158       0.50000000       0.30769231 </v>
   <v>       0.00000000      -0.43750000       0.30769231 </v>
   <v>       0.05263158      -0.43750000       0.30769231 </v>
   <v>       0.10526316      -0.43750000       0.30769231 </v>
   <v>       0.15789474      -0.43750000       0.30769231 </v>
   <v>       0.21052632      -0.43750000       0.30769231 </v>
   <v>       0.26315789      -0.43750000       0.30769231 </v>
[...]
       <r>    4.4755    1.0000 </r>
       <r>    4.5744    1.0000 </r>
       <r>    4.5857    1.0000 </r>
       <r>    4.6844    1.0000 </r>
       <r>    4.7957    1.0000 </r>
       <r>    4.9353    1.0000 </r>
       <r>    5.2837    1.0000 </r>
       <r>    5.4349    1.0000 </r>
       <r>    5.4943    1.0000 </r>
       <r>    5.6041    1.0000 </r>
       <r>    5.6825    1.0000 </r>
       <r>    8.3642   -0.0003 </r>
       <r>   11.1060    0.0000 </r>
       <r>   11.8107    0.0000 </r>
       <r>   12.1627    0.0000 </r>
       <r>   12.6119    0.0000 </r>
       <r>   12.8273    0.0000 </r>
       <r>   13.6356    0.0000 </r>
       <r>   15.4194    0.0000 </r>
      </set>
      <set comment="kpoint 1976">
       <r>    0.8898    1.0000 </r>
       <r>    1.9977    1.0000 </r>
       <r>    2.2945    1.0000 </r>
       <r>    2.5482    1.0000 </r>
       <r>    2.6525    1.0000 </r>
       <r>    2.6608    1.0000 </r>
       <r>    2.6676    1.0000 </r>
       <r>    2.9435    1.0000 </r>
       <r>    2.9553    1.0000 </r>
       <r>    2.9676    1.0000 </r>
       <r>    2.9799    1.0000 </r>
       <r>    3.3451    1.0000 </r>
       <r>    3.5022    1.0000 </r>
       <r>    3.5274    1.0000 </r>
       <r>    3.5577    1.0000 </r>
       <r>    3.7462    1.0000 </r>
       <r>    3.7898    1.0000 </r>
       <r>    3.8868    1.0000 </r>
       <r>    4.1357    1.0000 </r>
       <r>    4.2688    1.0000 </r>
       <r>    4.3800    1.0000 </r>
       <r>    4.5183    1.0000 </r>
       <r>    4.5332    1.0000 </r>
       <r>    4.6362    1.0000 </r>
       <r>    4.7211    1.0000 </r>
       <r>    4.8804    1.0000 </r>
       <r>    4.9115    1.0000 </r>
       <r>    5.2162    1.0000 </r>
       <r>    5.4351    1.0000 </r>
       <r>    5.5595    1.0000 </r>
       <r>    5.6184    1.0000 </r>
       <r>    5.7598    1.0000 </r>
       <r>    8.5207   -0.0330 </r>
       <r>   11.7804    0.0000 </r>
       <r>   12.1461    0.0000 </r>
       <r>   12.2596    0.0000 </r>
       <r>   13.1434    0.0000 </r>
       <r>   13.2852    0.0000 </r>
       <r>   13.6251    0.0000 </r>
       <r>   15.5943    0.0000 </r>
      </set>
      <set comment="kpoint 1977">
       <r>    0.8187    1.0000 </r>
       <r>    1.9206    1.0000 </r>
       <r>    2.3292    1.0000 </r>
       <r>    2.4775    1.0000 </r>
       <r>    2.6330    1.0000 </r>
       <r>    2.6466    1.0000 </r>
       <r>    2.6588    1.0000 </r>
       <r>    2.8986    1.0000 </r>
       <r>    2.9598    1.0000 </r>
       <r>    3.0281    1.0000 </r>
       <r>    3.0331    1.0000 </r>
       <r>    3.2945    1.0000 </r>
       <r>    3.4366    1.0000 </r>
       <r>    3.4657    1.0000 </r>
       <r>    3.5771    1.0000 </r>
       <r>    3.7504    1.0000 </r>
       <r>    3.8023    1.0000 </r>
       <r>    3.9228    1.0000 </r>
       <r>    4.1440    1.0000 </r>
       <r>    4.2502    1.0000 </r>
       <r>    4.3278    1.0000 </r>
       <r>    4.4202    1.0000 </r>
       <r>    4.5562    1.0000 </r>
       <r>    4.6713    1.0000 </r>
       <r>    4.7239    1.0000 </r>
       <r>    4.8381    1.0000 </r>
       <r>    5.0757    1.0000 </r>
       <r>    5.2089    1.0000 </r>
       <r>    5.3532    1.0000 </r>
       <r>    5.6131    1.0000 </r>
       <r>    5.6760    1.0000 </r>
       <r>    5.8144    1.0000 </r>
       <r>    8.7639   -0.0044 </r>
       <r>   11.4657    0.0000 </r>
       <r>   12.4351    0.0000 </r>
       <r>   12.9673    0.0000 </r>
       <r>   13.4684    0.0000 </r>
       <r>   13.8795    0.0000 </r>
       <r>   14.3478    0.0000 </r>
       <r>   15.1579    0.0000 </r>
      </set>
     </set>
    </set>
   </array>
  </eigenvalues>
  <separator name="orbital magnetization" >
   <v name="MAGDIPOLOUT">      0.00000000      0.00000000      0.00000000</v>
  </separator>
  <dos>
   <i name="efermi">      8.11119931 </i>
   <total>
    <array>
     <dimension dim="1">gridpoints</dimension>
     <dimension dim="2">spin</dimension>
     <field>energy</field>
     <field>total</field>
     <field>integrated</field>
     <set>
      <set comment="spin 1">
       <r>    -3.0783     0.0000     0.0000 </r>
       <r>    -2.9997     0.0000     0.0000 </r>
       <r>    -2.9211     0.0000     0.0000 </r>
       <r>    -2.8425     0.0000     0.0000 </r>
       <r>    -2.7639     0.0000     0.0000 </r>
       <r>    -2.6853     0.0000     0.0000 </r>
       <r>    -2.6067     0.0000     0.0000 </r>
       <r>    -2.5281     0.0000     0.0000 </r>
       <r>    -2.4495     0.0000     0.0000 </r>
       <r>    -2.3709     0.0000     0.0000 </r>
       <r>    -2.2923     0.0000     0.0000 </r>
       <r>    -2.2137     0.0000     0.0000 </r>
       <r>    -2.1351     0.0000     0.0000 </r>
       <r>    -2.0565     0.0000     0.0000 </r>
       <r>    -1.9779     0.0000     0.0000 </r>
       <r>    -1.8993     0.0000     0.0000 </r>
       <r>    -1.8207     0.0000     0.0000 </r>
       <r>    -1.7421     0.0000     0.0000 </r>
       <r>    -1.6635     0.0000     0.0000 </r>
       <r>    -1.5849     0.0000     0.0000 </r>
       <r>    -1.5063     0.0000     0.0000 </r>
       <r>    -1.4277     0.0000     0.0000 </r>
       <r>    -1.3491     0.0000     0.0000 </r>
       <r>    -1.2705     0.0000     0.0000 </r>
       <r>    -1.1919     0.0000     0.0000 </r>
       <r>    -1.1133     0.0000     0.0000 </r>
       <r>    -1.0347     0.0000     0.0000 </r>
       <r>    -0.9561     0.0000     0.0000 </r>
       <r>    -0.8775     0.0000     0.0000 </r>
       <r>    -0.7989    -0.0001     0.0000 </r>
       <r>    -0.7203    -0.0004     0.0000 </r>
       <r>    -0.6417    -0.0012    -0.0001 </r>
       <r>    -0.5631    -0.0028    -0.0004 </r>
       <r>    -0.4845    -0.0053    -0.0008 </r>
       <r>    -0.4059    -0.0082    -0.0014 </r>
       <r>    -0.3273    -0.0090    -0.0021 </r>
       <r>    -0.2487    -0.0031    -0.0024 </r>
       <r>    -0.1701     0.0153    -0.0012 </r>
       <r>    -0.0915     0.0505     0.0028 </r>
       <r>    -0.0129     0.1026     0.0109 </r>
       <r>     0.0657     0.1666     0.0239 </r>
       <r>     0.1443     0.2347     0.0424 </r>
       <r>     0.2229     0.3001     0.0660 </r>
       <r>     0.3015     0.3594     0.0942 </r>
       <r>     0.3801     0.4130     0.1267 </r>
       <r>     0.4587     0.4641     0.1632 </r>
       <r>     0.5373     0.5163     0.2037 </r>
       <r>     0.6159     0.5727     0.2488 </r>
       <r>     0.6945     0.6344     0.2986 </r>
       <r>     0.7731     0.6996     0.3536 </r>
       <r>     0.8517     0.7641     0.4137 </r>
       <r>     0.9303     0.8227     0.4783 </r>
       <r>     1.0089     0.8724     0.5469 </r>
       <r>     1.0875     0.9148     0.6188 </r>
       <r>     1.1661     0.9568     0.6940 </r>
       <r>     1.2447     1.0100     0.7734 </r>
       <r>     1.3233     1.0885     0.8589 </r>
       <r>     1.4019     1.2061     0.9537 </r>
       <r>     1.4805     1.3736     1.0617 </r>
       <r>     1.5591     1.6028     1.1877 </r>
       <r>     1.6377     1.9185     1.3385 </r>
       <r>     1.7163     2.3749     1.5252 </r>
       <r>     1.7949     3.0624     1.7659 </r>
       <r>     1.8735     4.0893     2.0873 </r>
       <r>     1.9521     5.5384     2.5226 </r>
       <r>     2.0307     7.4162     3.1055 </r>
       <r>     2.1093     9.6217     3.8617 </r>
       <r>     2.1879    11.9476     4.8008 </r>
       <r>     2.2665    14.1108     5.9099 </r>
       <r>     2.3451    15.8100     7.1526 </r>
       <r>     2.4237    16.8054     8.4735 </r>
       <r>     2.5023    16.9971     9.8094 </r>
       <r>     2.5809    16.4633    11.1034 </r>
       <r>     2.6595    15.4424    12.3172 </r>
       <r>     2.7381    14.2748    13.4392 </r>
       <r>     2.8167    13.3205    14.4861 </r>
       <r>     2.8953    12.8565    15.4967 </r>
       <r>     2.9739    12.9744    16.5164 </r>
       <r>     3.0525    13.5406    17.5807 </r>
       <r>     3.1311    14.2713    18.7024 </r>
       <r>     3.2097    14.9041    19.8739 </r>
       <r>     3.2883    15.3661    21.0816 </r>
       <r>     3.3669    15.8275    22.3257 </r>
       <r>     3.4455    16.5914    23.6297 </r>
       <r>     3.5241    17.8636    25.0338 </r>
       <r>     3.6027    19.5334    26.5691 </r>
       <r>     3.6813    21.1241    28.2295 </r>
       <r>     3.7598    22.0005    29.9587 </r>
       <r>     3.8384    21.7395    31.6674 </r>
       <r>     3.9170    20.4070    33.2714 </r>
       <r>     3.9956    18.5302    34.7278 </r>
       <r>     4.0742    16.7909    36.0476 </r>
       <r>     4.1528    15.6809    37.2801 </r>
       <r>     4.2314    15.3420    38.4860 </r>
       <r>     4.3100    15.6193    39.7136 </r>
       <r>     4.3886    16.2070    40.9875 </r>
       <r>     4.4672    16.7754    42.3060 </r>
       <r>     4.5458    17.0549    43.6465 </r>
       <r>     4.6244    16.8983    44.9747 </r>
       <r>     4.7030    16.3150    46.2571 </r>
       <r>     4.7816    15.4620    47.4724 </r>
       <r>     4.8602    14.5868    48.6189 </r>
       <r>     4.9388    13.9447    49.7149 </r>
       <r>     5.0174    13.7157    50.7929 </r>
       <r>     5.0960    13.9397    51.8886 </r>
       <r>     5.1746    14.4961    53.0280 </r>
       <r>     5.2532    15.1507    54.2188 </r>
       <r>     5.3318    15.6537    55.4492 </r>
       <r>     5.4104    15.8251    56.6930 </r>
       <r>     5.4890    15.5611    57.9161 </r>
       <r>     5.5676    14.7797    59.0778 </r>
       <r>     5.6462    13.4031    60.1313 </r>
       <r>     5.7248    11.4316    61.0298 </r>
       <r>     5.8034     9.0411    61.7404 </r>
       <r>     5.8820     6.5779    62.2574 </r>
       <r>     5.9606     4.4247    62.6052 </r>
       <r>     6.0392     2.8389    62.8283 </r>
       <r>     6.1178     1.8772    62.9759 </r>
       <r>     6.1964     1.4319    63.0884 </r>
       <r>     6.2750     1.3209    63.1922 </r>
       <r>     6.3536     1.3680    63.2998 </r>
       <r>     6.4322     1.4470    63.4135 </r>
       <r>     6.5108     1.4931    63.5309 </r>
       <r>     6.5894     1.4951    63.6484 </r>
       <r>     6.6680     1.4747    63.7643 </r>
       <r>     6.7466     1.4616    63.8792 </r>
       <r>     6.8252     1.4726    63.9949 </r>
       <r>     6.9038     1.5025    64.1130 </r>
       <r>     6.9824     1.5317    64.2334 </r>
       <r>     7.0610     1.5427    64.3547 </r>
       <r>     7.1396     1.5326    64.4751 </r>
       <r>     7.2182     1.5120    64.5940 </r>
       <r>     7.2968     1.4944    64.7114 </r>
       <r>     7.3754     1.4892    64.8285 </r>
       <r>     7.4540     1.5006    64.9464 </r>
       <r>     7.5326     1.5292    65.0666 </r>
       <r>     7.6112     1.5703    65.1900 </r>
       <r>     7.6898     1.6123    65.3168 </r>
       <r>     7.7684     1.6402    65.4457 </r>
       <r>     7.8470     1.6452    65.5750 </r>
       <r>     7.9256     1.6305    65.7031 </r>
       <r>     8.0042     1.6087    65.8296 </r>
       <r>     8.0828     1.5936    65.9548 </r>
       <r>     8.1614     1.5919    66.0800 </r>
       <r>     8.2400     1.6030    66.2060 </r>
       <r>     8.3186     1.6212    66.3334 </r>
       <r>     8.3972     1.6390    66.4622 </r>
       <r>     8.4758     1.6488    66.5918 </r>
       <r>     8.5544     1.6454    66.7211 </r>
       <r>     8.6330     1.6293    66.8492 </r>
       <r>     8.7116     1.6071    66.9755 </r>
       <r>     8.7902     1.5881    67.1003 </r>
       <r>     8.8688     1.5787    67.2244 </r>
       <r>     8.9474     1.5810    67.3487 </r>
       <r>     9.0260     1.5921    67.4738 </r>
       <r>     9.1046     1.6069    67.6001 </r>
       <r>     9.1832     1.6197    67.7274 </r>
       <r>     9.2618     1.6271    67.8553 </r>
       <r>     9.3404     1.6282    67.9833 </r>
       <r>     9.4190     1.6227    68.1109 </r>
       <r>     9.4976     1.6101    68.2374 </r>
       <r>     9.5762     1.5922    68.3626 </r>
       <r>     9.6548     1.5755    68.4864 </r>
       <r>     9.7334     1.5694    68.6097 </r>
       <r>     9.8120     1.5775    68.7337 </r>
       <r>     9.8906     1.5926    68.8589 </r>
       <r>     9.9692     1.6000    68.9847 </r>
       <r>    10.0478     1.5891    69.1096 </r>
       <r>    10.1264     1.5614    69.2323 </r>
       <r>    10.2050     1.5284    69.3524 </r>
       <r>    10.2836     1.5004    69.4704 </r>
       <r>    10.3622     1.4785    69.5866 </r>
       <r>    10.4408     1.4565    69.7010 </r>
       <r>    10.5194     1.4288    69.8133 </r>
       <r>    10.5980     1.3959    69.9231 </r>
       <r>    10.6766     1.3653    70.0304 </r>
       <r>    10.7552     1.3464    70.1362 </r>
       <r>    10.8338     1.3455    70.2420 </r>
       <r>    10.9124     1.3619    70.3490 </r>
       <r>    10.9910     1.3893    70.4582 </r>
       <r>    11.0696     1.4220    70.5700 </r>
       <r>    11.1482     1.4611    70.6848 </r>
       <r>    11.2268     1.5160    70.8040 </r>
       <r>    11.3054     1.5976    70.9295 </r>
       <r>    11.3840     1.7063    71.0637 </r>
       <r>    11.4626     1.8271    71.2073 </r>
       <r>    11.5412     1.9369    71.3595 </r>
       <r>    11.6198     2.0176    71.5181 </r>
       <r>    11.6984     2.0623    71.6802 </r>
       <r>    11.7770     2.0711    71.8430 </r>
       <r>    11.8556     2.0462    72.0038 </r>
       <r>    11.9342     1.9934    72.1605 </r>
       <r>    12.0128     1.9269    72.3119 </r>
       <r>    12.0914     1.8670    72.4587 </r>
       <r>    12.1700     1.8300    72.6025 </r>
       <r>    12.2486     1.8183    72.7454 </r>
       <r>    12.3272     1.8213    72.8886 </r>
       <r>    12.4058     1.8240    73.0319 </r>
       <r>    12.4844     1.8175    73.1748 </r>
       <r>    12.5630     1.8037    73.3166 </r>
       <r>    12.6416     1.7927    73.4575 </r>
       <r>    12.7202     1.7956    73.5986 </r>
       <r>    12.7988     1.8164    73.7414 </r>
       <r>    12.8774     1.8470    73.8865 </r>
       <r>    12.9560     1.8699    74.0335 </r>
       <r>    13.0346     1.8694    74.1804 </r>
       <r>    13.1132     1.8442    74.3254 </r>
       <r>    13.1918     1.8096    74.4676 </r>
       <r>    13.2704     1.7873    74.6081 </r>
       <r>    13.3490     1.7890    74.7487 </r>
       <r>    13.4276     1.8089    74.8909 </r>
       <r>    13.5062     1.8300    75.0347 </r>
       <r>    13.5848     1.8390    75.1793 </r>
       <r>    13.6634     1.8360    75.3236 </r>
       <r>    13.7419     1.8333    75.4677 </r>
       <r>    13.8205     1.8444    75.6127 </r>
       <r>    13.8991     1.8747    75.7600 </r>
       <r>    13.9777     1.9184    75.9108 </r>
       <r>    14.0563     1.9638    76.0652 </r>
       <r>    14.1349     2.0006    76.2224 </r>
       <r>    14.2135     2.0233    76.3814 </r>
       <r>    14.2921     2.0300    76.5410 </r>
       <r>    14.3707     2.0176    76.6996 </r>
       <r>    14.4493     1.9825    76.8554 </r>
       <r>    14.5279     1.9255    77.0067 </r>
       <r>    14.6065     1.8568    77.1527 </r>
       <r>    14.6851     1.7942    77.2937 </r>
       <r>    14.7637     1.7558    77.4317 </r>
       <r>    14.8423     1.7489    77.5692 </r>
       <r>    14.9209     1.7655    77.7079 </r>
       <r>    14.9995     1.7862    77.8483 </r>
       <r>    15.0781     1.7927    77.9892 </r>
       <r>    15.1567     1.7785    78.1290 </r>
       <r>    15.2353     1.7486    78.2665 </r>
       <r>    15.3139     1.7085    78.4007 </r>
       <r>    15.3925     1.6540    78.5307 </r>
       <r>    15.4711     1.5738    78.6544 </r>
       <r>    15.5497     1.4634    78.7695 </r>
       <r>    15.6283     1.3357    78.8745 </r>
       <r>    15.7069     1.2163    78.9700 </r>
       <r>    15.7855     1.1268    79.0586 </r>
       <r>    15.8641     1.0732    79.1430 </r>
       <r>    15.9427     1.0453    79.2251 </r>
       <r>    16.0213     1.0259    79.3058 </r>
       <r>    16.0999     0.9989    79.3843 </r>
       <r>    16.1785     0.9544    79.4593 </r>
       <r>    16.2571     0.8912    79.5293 </r>
       <r>    16.3357     0.8155    79.5934 </r>
       <r>    16.4143     0.7360    79.6513 </r>
       <r>    16.4929     0.6583    79.7030 </r>
       <r>    16.5715     0.5837    79.7489 </r>
       <r>    16.6501     0.5129    79.7892 </r>
       <r>    16.7287     0.4483    79.8245 </r>
       <r>    16.8073     0.3933    79.8554 </r>
       <r>    16.8859     0.3487    79.8828 </r>
       <r>    16.9645     0.3119    79.9073 </r>
       <r>    17.0431     0.2784    79.9292 </r>
       <r>    17.1217     0.2440    79.9484 </r>
       <r>    17.2003     0.2066    79.9646 </r>
       <r>    17.2789     0.1663    79.9777 </r>
       <r>    17.3575     0.1253    79.9875 </r>
       <r>    17.4361     0.0863    79.9943 </r>
       <r>    17.5147     0.0525    79.9984 </r>
       <r>    17.5933     0.0262    80.0005 </r>
       <r>    17.6719     0.0086    80.0012 </r>
       <r>    17.7505    -0.0009    80.0011 </r>
       <r>    17.8291    -0.0042    80.0008 </r>
       <r>    17.9077    -0.0042    80.0004 </r>
       <r>    17.9863    -0.0029    80.0002 </r>
       <r>    18.0649    -0.0016    80.0001 </r>
       <r>    18.1435    -0.0007    80.0000 </r>
       <r>    18.2221    -0.0003    80.0000 </r>
       <r>    18.3007    -0.0001    80.0000 </r>
       <r>    18.3793     0.0000    80.0000 </r>
       <r>    18.4579     0.0000    80.0000 </r>
       <r>    18.5365     0.0000    80.0000 </r>
       <r>    18.6151     0.0000    80.0000 </r>
       <r>    18.6937     0.0000    80.0000 </r>
       <r>    18.7723     0.0000    80.0000 </r>
       <r>    18.8509     0.0000    80.0000 </r>
       <r>    18.9295     0.0000    80.0000 </r>
       <r>    19.0081     0.0000    80.0000 </r>
       <r>    19.0867     0.0000    80.0000 </r>
       <r>    19.1653     0.0000    80.0000 </r>
       <r>    19.2439     0.0000    80.0000 </r>
       <r>    19.3225     0.0000    80.0000 </r>
       <r>    19.4011     0.0000    80.0000 </r>
       <r>    19.4797     0.0000    80.0000 </r>
       <r>    19.5583     0.0000    80.0000 </r>
       <r>    19.6369     0.0000    80.0000 </r>
       <r>    19.7155     0.0000    80.0000 </r>
       <r>    19.7941     0.0000    80.0000 </r>
       <r>    19.8727     0.0000    80.0000 </r>
       <r>    19.9513     0.0000    80.0000 </r>
       <r>    20.0299     0.0000    80.0000 </r>
       <r>    20.1085     0.0000    80.0000 </r>
       <r>    20.1871     0.0000    80.0000 </r>
       <r>    20.2657     0.0000    80.0000 </r>
       <r>    20.3443     0.0000    80.0000 </r>
       <r>    20.4229     0.0000    80.0000 </r>
       <r>    20.5015     0.0000    80.0000 </r>
      </set>
     </set>
    </array>
   </total>
  </dos>
 </calculation>
 <structure name="finalpos" >
  <crystal>
   <varray name="basis" >
    <v>       4.16343713       0.00000000       0.00000000 </v>
    <v>      -2.08171857      -4.13558316      -2.07744610 </v>
    <v>       0.00000000       4.12871307      -4.14112319 </v>
   </varray>
   <i name="volume">    107.01340017 </i>
   <varray name="rec_basis" >
    <v>       0.24018617      -0.08055676      -0.08031535 </v>
    <v>       0.00000000      -0.16111352      -0.16063070 </v>
    <v>       0.00000000       0.08082461      -0.16089799 </v>
   </varray>
  </crystal>
  <varray name="positions" >
   <v>       0.66556740       0.33113480       0.33307390 </v>
   <v>       0.99943146       0.99886292       0.49978648 </v>
   <v>       0.33390187       0.66780374       0.66688019 </v>
   <v>       0.66776593       0.33553186       0.83359277 </v>
   <v>       0.00038986       0.00077972       0.99859224 </v>
   <v>       0.33294347       0.66588694       0.16807443 </v>
  </varray>
 </structure>
</modeling>
