<?xml version="1.0" encoding="ISO-8859-1"?>
<modeling>
 <generator>
  <i name="program" type="string">vasp </i>
  <i name="version" type="string">5.3.5  </i>
  <i name="subversion" type="string">31Mar14 (build Jun 20 2014 13:15:13) complex                          parallel </i>
  <i name="platform" type="string">LinuxIFC </i>
  <i name="date" type="string">2025 12 12 </i>
  <i name="time" type="string">11:27:05 </i>
 </generator>
 <incar>
  <i type="string" name="PREC">accurate</i>
  <i type="int" name="IALGO">    38</i>
  <i type="logical" name="ADDGRID"> T  </i>
  <i type="int" name="ISPIN">     2</i>
  <i type="int" name="NELM">   100</i>
  <i type="int" name="NELMIN">     4</i>
  <i name="EDIFF">      0.00000100</i>
  <i name="ENCUT">    500.00000000</i>
  <i type="logical" name="LREAL"> F  </i>
  <i type="int" name="ISMEAR">     0</i>
  <i name="SIGMA">      0.05000000</i>
  <i type="logical" name="LWAVE"> F  </i>
  <i type="logical" name="LCHARG"> F  </i>
  <i type="int" name="NELM">   100</i>
  <i type="logical" name="LDAU"> T  </i>
  <v name="LDAUU">      0.00000000      4.00000000      0.00000000</v>
  <v name="LDAUJ">      0.00000000      0.00000000      0.00000000</v>
 </incar>
 <kpoints>
  <generation param="Auto">
   <i name="subdivisionlength">     20.00000000 </i>
   <v type="int" name="divisions">       5        1        4 </v>
   <v name="usershift">      0.00000000       0.00000000       0.00000000 </v>
   <v name="genvec1">      0.20000000       0.00000000       0.00000000 </v>
   <v name="genvec2">      0.00000000       1.00000000       0.00000000 </v>
   <v name="genvec3">      0.00000000       0.00000000       0.25000000 </v>
   <v name="shift">      0.00000000       0.00000000       0.00000000 </v>
  </generation>
  <varray name="kpointlist" >
   <v>       0.00000000       0.00000000       0.00000000 </v>
   <v>       0.20000000       0.00000000       0.00000000 </v>
   <v>       0.40000000       0.00000000       0.00000000 </v>
   <v>       0.00000000       0.00000000       0.25000000 </v>
   <v>       0.20000000       0.00000000       0.25000000 </v>
   <v>       0.40000000       0.00000000       0.25000000 </v>
   <v>       0.00000000       0.00000000       0.50000000 </v>
   <v>       0.20000000       0.00000000       0.50000000 </v>
   <v>       0.40000000       0.00000000       0.50000000 </v>
  </varray>
  <varray name="weights" >
   <v>       0.05000000 </v>
   <v>       0.10000000 </v>
   <v>       0.10000000 </v>
   <v>       0.10000000 </v>
   <v>       0.20000000 </v>
   <v>       0.20000000 </v>
   <v>       0.05000000 </v>
   <v>       0.10000000 </v>
   <v>       0.10000000 </v>
  </varray>
 </kpoints>
 <parameters>
  <separator name="general" >
   <i type="string" name="SYSTEM">unknown system</i>
   <i type="logical" name="LCOMPAT"> F  </i>
  </separator>
  <separator name="electronic" >
   <i type="string" name="PREC">accura</i>
   <i name="ENMAX">    500.00000000</i>
   <i name="ENAUG">    586.98000000</i>
   <i name="EDIFF">      0.00000100</i>
   <i type="int" name="IALGO">    38</i>
   <i type="int" name="IWAVPR">    10</i>
   <i type="int" name="NBANDS">   132</i>
   <i name="NELECT">    198.00000000</i>
   <i type="int" name="TURBO">     0</i>
   <i type="int" name="IRESTART">     0</i>
   <i type="int" name="NREBOOT">     0</i>
   <i type="int" name="NMIN">     0</i>
   <i name="EREF">      0.00000000</i>
   <separator name="electronic smearing" >
    <i type="int" name="ISMEAR">     0</i>
    <i name="SIGMA">      0.05000000</i>
    <i name="KSPACING">      0.50000000</i>
    <i type="logical" name="KGAMMA"> T  </i>
   </separator>
   <separator name="electronic projectors" >
    <i type="logical" name="LREAL"> F  </i>
    <v name="ROPT">      0.00000000      0.00000000      0.00000000</v>
    <i type="int" name="LMAXPAW">  -100</i>
    <i type="int" name="LMAXMIX">     2</i>
    <i type="logical" name="NLSPLINE"> F  </i>
   </separator>
   <separator name="electronic startup" >
    <i type="int" name="ISTART">     0</i>
    <i type="int" name="ICHARG">     2</i>
    <i type="int" name="INIWAV">     1</i>
   </separator>
   <separator name="electronic spin" >
    <i type="int" name="ISPIN">     2</i>
    <i type="logical" name="LNONCOLLINEAR"> F  </i>
    <v name="MAGMOM">      1.00000000      1.00000000      1.00000000      1.00000000      1.00000000      1.00000000      1.00000000      1.00000000      1.00000000      1.00000000      1.00000000      1.00000000      1.00000000      1.00000000      1.00000000      1.00000000      1.00000000      1.00000000      1.00000000      1.00000000
      1.00000000      1.00000000      1.00000000      1.00000000</v>
    <i name="NUPDOWN">     -1.00000000</i>
    <i type="logical" name="LSORBIT"> F  </i>
    <v name="SAXIS">      0.00000000      0.00000000      1.00000000</v>
    <i type="logical" name="LSPIRAL"> F  </i>
    <v name="QSPIRAL">      0.00000000      0.00000000      0.00000000</v>
    <i type="logical" name="LZEROZ"> F  </i>
   </separator>
   <separator name="electronic exchange-correlation" >
    <i type="logical" name="LASPH"> F  </i>
    <i type="logical" name="LMETAGGA"> F  </i>
   </separator>
   <separator name="electronic convergence" >
    <i type="int" name="NELM">   100</i>
    <i type="int" name="NELMDL">    -5</i>
    <i type="int" name="NELMIN">     4</i>
    <i name="ENINI">    500.00000000</i>
    <separator name="electronic convergence detail" >
     <i type="logical" name="LDIAG"> T  </i>
     <i type="logical" name="LSUBROT"> F  </i>
     <i name="WEIMIN">      0.00000000</i>
     <i name="EBREAK">      0.00000000</i>
     <i name="DEPER">      0.30000000</i>
     <i type="int" name="NRMM">     4</i>
     <i name="TIME">      0.40000000</i>
    </separator>
   </separator>
   <separator name="electronic mixer" >
    <i name="AMIX">      0.40000000</i>
    <i name="BMIX">      1.00000000</i>
    <i name="AMIN">      0.10000000</i>
    <i name="AMIX_MAG">      1.60000000</i>
    <i name="BMIX_MAG">      1.00000000</i>
    <separator name="electronic mixer details" >
     <i type="int" name="IMIX">     4</i>
     <i type="int" name="MAXMIX">   -45</i>
     <i name="WC">    100.00000000</i>
     <i type="int" name="INIMIX">     1</i>
     <i type="int" name="MIXPRE">     1</i>
     <i type="int" name="MREMOVE">     5</i>
    </separator>
   </separator>
   <separator name="electronic dipolcorrection" >
    <i type="logical" name="LDIPOL"> F  </i>
    <i type="logical" name="LMONO"> F  </i>
    <i type="int" name="IDIPOL">     0</i>
    <i name="EPSILON">      1.00000000</i>
    <v name="DIPOL">   -100.00000000   -100.00000000   -100.00000000</v>
    <i name="EFIELD">      0.00000000</i>
   </separator>
  </separator>
  <separator name="grids" >
   <i type="int" name="NGX">    30</i>
   <i type="int" name="NGY">   126</i>
   <i type="int" name="NGZ">    42</i>
   <i type="int" name="NGXF">    60</i>
   <i type="int" name="NGYF">   252</i>
   <i type="int" name="NGZF">    84</i>
   <i type="logical" name="ADDGRID"> T  </i>
  </separator>
  <separator name="ionic" >
   <i type="int" name="NSW">     0</i>
   <i type="int" name="IBRION">    -1</i>
   <i type="int" name="ISIF">     2</i>
   <i name="PSTRESS">      0.00000000</i>
   <i name="EDIFFG">      0.00001000</i>
   <i type="int" name="NFREE">     0</i>
   <i name="POTIM">      0.50000000</i>
   <i name="SMASS">     -3.00000000</i>
   <i name="SCALEE">      1.00000000</i>
  </separator>
  <separator name="ionic md" >
   <i name="TEBEG">      0.00010000</i>
   <i name="TEEND">      0.00010000</i>
   <i type="int" name="NBLOCK">     1</i>
   <i type="int" name="KBLOCK">     1</i>
   <i type="int" name="NPACO">   256</i>
   <i name="APACO">     16.00000000</i>
  </separator>
  <separator name="symmetry" >
   <i type="int" name="ISYM">     2</i>
   <i name="SYMPREC">      0.00001000</i>
  </separator>
  <separator name="dos" >
   <i type="logical" name="LORBIT"> F  </i>
   <v name="RWIGS">     -1.00000000     -1.00000000     -1.00000000</v>
   <i type="int" name="NEDOS">   301</i>
   <i name="EMIN">     10.00000000</i>
   <i name="EMAX">    -10.00000000</i>
   <i name="EFERMI">      0.00000000</i>
  </separator>
  <separator name="writing" >
   <i type="int" name="NWRITE">     2</i>
   <i type="logical" name="LWAVE"> F  </i>
   <i type="logical" name="LCHARG"> F  </i>
   <i type="logical" name="LPARD"> F  </i>
   <i type="logical" name="LVTOT"> F  </i>
   <i type="logical" name="LVHAR"> F  </i>
   <i type="logical" name="LELF"> F  </i>
   <i type="logical" name="LOPTICS"> F  </i>
   <v name="STM">      0.00000000      0.00000000      0.00000000      0.00000000      0.00000000      0.00000000      0.00000000</v>
  </separator>
  <separator name="performance" >
   <i type="int" name="NPAR">     4</i>
   <i type="int" name="NSIM">     4</i>
   <i type="int" name="NBLK">    -1</i>
   <i type="logical" name="LPLANE"> T  </i>
   <i type="logical" name="LSCALAPACK"> T  </i>
   <i type="logical" name="LSCAAWARE"> F  </i>
   <i type="logical" name="LSCALU"> F  </i>
   <i type="logical" name="LASYNC"> F  </i>
   <i type="logical" name="LORBITALREAL"> F  </i>
  </separator>
  <separator name="miscellaneous" >
   <i type="int" name="IDIOT">     3</i>
   <i type="logical" name="LMUSIC"> F  </i>
   <v name="POMASS">     87.62000000     63.54600000     16.00000000</v>
   <v name="DARWINR">      0.00000000      0.00000000      0.00000000</v>
   <v name="DARWINV">      1.00000000      1.00000000      1.00000000</v>
   <i type="logical" name="LCORR"> T  </i>
  </separator>
  <i type="logical" name="GGA_COMPAT"> T  </i>
  <i type="logical" name="LBERRY"> F  </i>
  <i type="int" name="ICORELEVEL">     0</i>
  <i type="logical" name="LDAU"> T  </i>
  <v type="int" name="LDAUTYPE">     2</v>
  <v type="int" name="LDAUL">     2</v>
  <v name="LDAUU">      0.00000000</v>
  <v name="LDAUJ">      0.00000000</v>
  <i type="int" name="LDAUPRINT">     0</i>
  <i type="int" name="I_CONSTRAINED_M">     0</i>
  <separator name="electronic exchange-correlation" >
   <i type="string" name="GGA">--</i>
   <i type="int" name="VOSKOWN">     0</i>
   <i type="logical" name="LHFCALC"> F  </i>
   <i type="string" name="PRECFOCK"></i>
   <i type="logical" name="LSYMGRAD"> F  </i>
   <i type="logical" name="LHFONE"> F  </i>
   <i type="logical" name="LRHFCALC"> F  </i>
   <i type="logical" name="LTHOMAS"> F  </i>
   <i type="logical" name="LMODELHF"> F  </i>
   <i name="ENCUT4O">     -1.00000000</i>
   <i type="int" name="EXXOEP">     0</i>
   <i type="int" name="FOURORBIT">     0</i>
   <i name="AEXX">      0.00000000</i>
   <i name="HFALPHA">      0.00000000</i>
   <i name="MCALPHA">      0.00000000</i>
   <i name="ALDAX">      1.00000000</i>
   <i name="AGGAX">      1.00000000</i>
   <i name="ALDAC">      1.00000000</i>
   <i name="AGGAC">      1.00000000</i>
   <i type="int" name="NKREDX">     1</i>
   <i type="int" name="NKREDY">     1</i>
   <i type="int" name="NKREDZ">     1</i>
   <i type="logical" name="SHIFTRED"> F  </i>
   <i type="logical" name="ODDONLY"> F  </i>
   <i type="logical" name="EVENONLY"> F  </i>
   <i type="int" name="LMAXFOCK">     0</i>
   <i type="int" name="NMAXFOCKAE">     0</i>
   <i type="logical" name="LFOCKAEDFT"> F  </i>
   <i name="HFSCREEN">      0.00000000</i>
   <i name="HFSCREENC">      0.00000000</i>
   <i type="int" name="NBANDSGWLOW">     0</i>
  </separator>
  <separator name="vdW DFT" >
   <i type="logical" name="LUSE_VDW"> F  </i>
   <i name="Zab_VDW">     -0.84910000</i>
   <i name="PARAM1">      0.12340000</i>
   <i name="PARAM2">      1.00000000</i>
   <i name="PARAM3">      0.00000000</i>
  </separator>
  <separator name="model GW" >
   <i type="int" name="MODEL_GW">     0</i>
   <i name="MODEL_EPS0">      9.60000000</i>
   <i name="MODEL_ALPHA">      1.00000000</i>
  </separator>
  <separator name="linear response parameters" >
   <i type="logical" name="LEPSILON"> F  </i>
   <i type="logical" name="LRPA"> F  </i>
   <i type="logical" name="LNABLA"> F  </i>
   <i type="logical" name="LVEL"> F  </i>
   <i type="int" name="KINTER">     0</i>
   <i name="CSHIFT">      0.10000000</i>
   <i name="OMEGAMAX">     -1.00000000</i>
   <i name="DEG_THRESHOLD">      0.00200000</i>
  </separator>
  <separator name="orbital magnetization" >
   <i type="logical" name="NUCIND"> F  </i>
   <v name="MAGPOS">      0.00000000      0.00000000      0.00000000</v>
   <i type="logical" name="LNICSALL"> T  </i>
   <i type="logical" name="ORBITALMAG"> F  </i>
   <i type="logical" name="LMAGBLOCH"> F  </i>
   <i type="logical" name="LCHIMAG"> F  </i>
   <i type="logical" name="LGAUGE"> T  </i>
   <i type="int" name="MAGATOM">     0</i>
   <v name="MAGDIPOL">      0.00000000      0.00000000      0.00000000</v>
   <v name="AVECCONST">      0.00000000      0.00000000      0.00000000</v>
  </separator>
  <separator name="response functions" >
   <i type="logical" name="LADDER"> F  </i>
   <i type="logical" name="LFXC"> F  </i>
   <i type="logical" name="LHARTREE"> T  </i>
   <i type="int" name="IBSE">     0</i>
   <i type="logical" name="LTCTE"> F  </i>
   <i type="logical" name="LTETE"> F  </i>
   <i type="logical" name="LTRIPLET"> F  </i>
   <i type="logical" name="LFXCEPS"> F  </i>
   <i type="logical" name="LFXHEG"> F  </i>
   <i type="logical" name="L2ORDER"> F  </i>
   <i type="logical" name="LUSEW"> F  </i>
   <i name="ENCUTGW">     -2.00000000</i>
   <i name="ENCUTGWSOFT">     -2.00000000</i>
   <i name="ENCUTLF">     -1.00000000</i>
   <i type="int" name="LMAXMP2">    -1</i>
   <i name="SCISSOR">      0.00000000</i>
   <i type="int" name="NOMEGA">     0</i>
   <i type="int" name="NOMEGAR">     0</i>
   <i type="int" name="NBANDSGW">    -1</i>
   <i type="int" name="NBANDSO">    -1</i>
   <i type="int" name="NBANDSV">    -1</i>
   <i type="int" name="NELM">   100</i>
   <i type="int" name="DIM">     3</i>
   <i type="int" name="ANTIRES">     0</i>
   <i name="OMEGAMAX">    -30.00000000</i>
   <i name="OMEGAMIN">    -30.00000000</i>
   <i name="OMEGATL">   -200.00000000</i>
   <i type="int" name="OMEGAGRID">     0</i>
   <i name="CSHIFT">     -0.10000000</i>
   <i type="logical" name="SELFENERGY"> F  </i>
   <i type="logical" name="LSPECTRAL"> F  </i>
   <i type="logical" name="ODDONLYGW"> F  </i>
   <i type="logical" name="EVENONLYGW"> F  </i>
   <i type="int" name="NKREDLFX">     1</i>
   <i type="int" name="NKREDLFY">     1</i>
   <i type="int" name="NKREDLFZ">     1</i>
   <i type="int" name="MAXMEM">  1800</i>
   <i type="int" name="TELESCOPE">     0</i>
   <i type="int" name="TAUPAR">     1</i>
  </separator>
  <separator name="External order field" >
   <i name="OFIELD_KAPPA">      0.00000000</i>
   <v name="OFIELD_K">      0.00000000      0.00000000      0.00000000</v>
   <i name="OFIELD_Q6_NEAR">      0.00000000</i>
   <i name="OFIELD_Q6_FAR">      0.00000000</i>
   <i name="OFIELD_A">      0.00000000</i>
  </separator>
 </parameters>
 <atominfo>
  <atoms>      24 </atoms>
  <types>       3 </types>
  <array name="atoms" >
   <dimension dim="1">ion</dimension>
   <field type="string">element</field>
   <field type="int">atomtype</field>
   <set>
    <rc><c>Sr</c><c>   1</c></rc>
    <rc><c>Sr</c><c>   1</c></rc>
    <rc><c>Sr</c><c>   1</c></rc>
    <rc><c>Sr</c><c>   1</c></rc>
    <rc><c>Sr</c><c>   1</c></rc>
    <rc><c>Sr</c><c>   1</c></rc>
    <rc><c>Cu</c><c>   2</c></rc>
    <rc><c>Cu</c><c>   2</c></rc>
    <rc><c>Cu</c><c>   2</c></rc>
    <rc><c>Cu</c><c>   2</c></rc>
    <rc><c>Cu</c><c>   2</c></rc>
    <rc><c>Cu</c><c>   2</c></rc>
    <rc><c>O </c><c>   3</c></rc>
    <rc><c>O </c><c>   3</c></rc>
    <rc><c>O </c><c>   3</c></rc>
    <rc><c>O </c><c>   3</c></rc>
    <rc><c>O </c><c>   3</c></rc>
    <rc><c>O </c><c>   3</c></rc>
    <rc><c>O </c><c>   3</c></rc>
    <rc><c>O </c><c>   3</c></rc>
    <rc><c>O </c><c>   3</c></rc>
    <rc><c>O </c><c>   3</c></rc>
    <rc><c>O </c><c>   3</c></rc>
    <rc><c>O </c><c>   3</c></rc>
   </set>
  </array>
  <array name="atomtypes" >
   <dimension dim="1">type</dimension>
   <field type="int">atomspertype</field>
   <field type="string">element</field>
   <field>mass</field>
   <field>valence</field>
   <field type="string">pseudopotential</field>
   <set>
    <rc><c>   6</c><c>Sr</c><c>     87.62000000</c><c>     10.00000000</c><c>  PAW_PBE Sr_sv 07Sep2000               </c></rc>
    <rc><c>   6</c><c>Cu</c><c>     63.54600000</c><c>     11.00000000</c><c>  PAW_PBE Cu 22Jun2005                  </c></rc>
    <rc><c>  12</c><c>O </c><c>     16.00000000</c><c>      6.00000000</c><c>  PAW_PBE O_s 07Sep2000                 </c></rc>
   </set>
  </array>
 </atominfo>
 <structure name="initialpos" >
  <crystal>
   <varray name="basis" >
    <v>       4.00000000       0.00000000       0.00000000 </v>
    <v>       0.00000000      16.97056275       0.00000000 </v>
    <v>       0.00000000       0.00000000       5.65685425 </v>
   </varray>
   <i name="volume">    384.00000000 </i>
   <varray name="rec_basis" >
    <v>       0.25000000       0.00000000       0.00000000 </v>
    <v>       0.00000000       0.05892557       0.00000000 </v>
    <v>       0.00000000       0.00000000       0.17677670 </v>
   </varray>
  </crystal>
  <varray name="positions" >
   <v>       0.00000000       0.00000000       0.00000000 </v>
   <v>       0.00000000       0.16666667       0.50000000 </v>
   <v>       0.00000000       0.33333333       0.00000000 </v>
   <v>       0.00000000       0.50000000       0.50000000 </v>
   <v>       0.00000000       0.66666667       0.00000000 </v>
   <v>       0.00000000       0.83333333       0.50000000 </v>
   <v>       0.50000000       0.00000000       0.50000000 </v>
   <v>       0.50000000       0.16666667       0.00000000 </v>
   <v>       0.50000000       0.33333333       0.50000000 </v>
   <v>       0.50000000       0.50000000       0.00000000 </v>
   <v>       0.50000000       0.66666667       0.50000000 </v>
   <v>       0.50000000       0.83333333       0.00000000 </v>
   <v>       0.50000000       0.08333333       0.25000000 </v>
   <v>       0.50000000       0.25000000       0.75000000 </v>
   <v>       0.00000000       0.16666667       0.00000000 </v>
   <v>       0.00000000       0.33333333       0.50000000 </v>
   <v>       0.50000000       0.25000000       0.25000000 </v>
   <v>       0.50000000       0.41666667       0.75000000 </v>
   <v>       0.50000000       0.58333333       0.75000000 </v>
   <v>       0.50000000       0.75000000       0.25000000 </v>
   <v>       0.00000000       0.66666667       0.50000000 </v>
   <v>       0.00000000       0.83333333       0.00000000 </v>
   <v>       0.50000000       0.75000000       0.75000000 </v>
   <v>       0.50000000       0.91666667       0.25000000 </v>
  </varray>
 </structure>
 <calculation>
  <scstep>
   <time name="dav">    4.37    4.38</time>
   <time name="total">    4.59    4.61</time>
   <energy>
    <i name="alphaZ">    897.98046216 </i>
    <i name="ewald"> -12708.83231563 </i>
    <i name="hartreedc">  -5957.20301112 </i>
    <i name="XCdc">    814.78225697 </i>
    <i name="pawpsdc">  15283.45459452 </i>
    <i name="pawaedc"> -15776.59915687 </i>
    <i name="eentropy">     -0.00554928 </i>
    <i name="bandstr">   1403.69597758 </i>
    <i name="atom">  18592.51092354 </i>
    <i name="e_fr_energy">   2549.78418186 </i>
    <i name="e_wo_entrp">   2549.78973115 </i>
    <i name="e_0_energy">   2549.78695651 </i>
   </energy>
  </scstep>
  <scstep>
   <time name="dav">    4.46    4.46</time>
   <time name="total">    4.46    4.48</time>
   <energy>
    <i name="e_fr_energy">    276.57921967 </i>
    <i name="e_wo_entrp">    276.58506715 </i>
    <i name="e_0_energy">    276.58214341 </i>
   </energy>
  </scstep>
  <scstep>
   <time name="dav">    4.44    4.44</time>
   <time name="total">    4.44    4.46</time>
   <energy>
    <i name="e_fr_energy">   -110.38441690 </i>
    <i name="e_wo_entrp">   -110.36730619 </i>
    <i name="e_0_energy">   -110.37586155 </i>
   </energy>
  </scstep>
  <scstep>
   <time name="dav">    5.72    5.72</time>
   <time name="total">    5.72    5.74</time>
   <energy>
    <i name="e_fr_energy">   -142.43681717 </i>
    <i name="e_wo_entrp">   -142.39839384 </i>
    <i name="e_0_energy">   -142.41760550 </i>
   </energy>
  </scstep>
  <scstep>
   <time name="dav">    7.23    7.23</time>
   <time name="total">    7.61    7.63</time>
   <energy>
    <i name="e_fr_energy">   -144.62849667 </i>
    <i name="e_wo_entrp">   -144.58843281 </i>
    <i name="e_0_energy">   -144.60846474 </i>
   </energy>
  </scstep>
  <scstep>
   <time name="dav">    6.03    6.03</time>
   <time name="total">    6.62    6.64</time>
   <energy>
    <i name="e_fr_energy">   -128.50784315 </i>
    <i name="e_wo_entrp">   -128.47918276 </i>
    <i name="e_0_energy">   -128.49351296 </i>
   </energy>
  </scstep>
  <scstep>
   <time name="dav">    5.87    5.88</time>
   <time name="total">    6.47    6.48</time>
   <energy>
    <i name="e_fr_energy">   -116.41542741 </i>
    <i name="e_wo_entrp">   -116.40160098 </i>
    <i name="e_0_energy">   -116.40851420 </i>
   </energy>
  </scstep>
  <scstep>
   <time name="dav">    6.07    6.07</time>
   <time name="total">    6.66    6.68</time>
   <energy>
    <i name="e_fr_energy">   -115.33349415 </i>
    <i name="e_wo_entrp">   -115.31616649 </i>
    <i name="e_0_energy">   -115.32483032 </i>
   </energy>
  </scstep>
  <scstep>
   <time name="dav">    6.00    6.00</time>
   <time name="total">    6.59    6.61</time>
   <energy>
    <i name="e_fr_energy">   -115.58686070 </i>
    <i name="e_wo_entrp">   -115.57481906 </i>
    <i name="e_0_energy">   -115.58083988 </i>
   </energy>
  </scstep>
  <scstep>
   <time name="dav">    5.75    5.76</time>
   <time name="total">    6.35    6.36</time>
   <energy>
    <i name="e_fr_energy">   -114.36634798 </i>
    <i name="e_wo_entrp">   -114.35432165 </i>
    <i name="e_0_energy">   -114.36033482 </i>
   </energy>
  </scstep>
  <scstep>
   <time name="dav">    6.07    6.07</time>
   <time name="total">    6.66    6.68</time>
   <energy>
    <i name="e_fr_energy">   -113.84320156 </i>
    <i name="e_wo_entrp">   -113.83075025 </i>
    <i name="e_0_energy">   -113.83697590 </i>
   </energy>
  </scstep>
  <scstep>
   <time name="dav">    6.12    6.13</time>
   <time name="total">    6.72    6.73</time>
   <energy>
    <i name="e_fr_energy">   -114.19179996 </i>
    <i name="e_wo_entrp">   -114.18386006 </i>
    <i name="e_0_energy">   -114.18783001 </i>
   </energy>
  </scstep>
  <scstep>
   <time name="dav">    6.20    6.21</time>
   <time name="total">    6.80    6.81</time>
   <energy>
    <i name="e_fr_energy">   -114.64505028 </i>
    <i name="e_wo_entrp">   -114.63670249 </i>
    <i name="e_0_energy">   -114.64087639 </i>
   </energy>
  </scstep>
  <scstep>
   <time name="dav">    5.89    5.90</time>
   <time name="total">    6.49    6.50</time>
   <energy>
    <i name="e_fr_energy">   -114.92236884 </i>
    <i name="e_wo_entrp">   -114.91264429 </i>
    <i name="e_0_energy">   -114.91750657 </i>
   </energy>
  </scstep>
  <scstep>
   <time name="dav">    5.81    5.81</time>
   <time name="total">    6.40    6.42</time>
   <energy>
    <i name="e_fr_energy">   -115.04048007 </i>
    <i name="e_wo_entrp">   -115.03178184 </i>
    <i name="e_0_energy">   -115.03613096 </i>
   </energy>
  </scstep>
  <scstep>
   <time name="dav">    5.87    5.87</time>
   <time name="total">    6.46    6.48</time>
   <energy>
    <i name="e_fr_energy">   -115.10181904 </i>
    <i name="e_wo_entrp">   -115.09284390 </i>
    <i name="e_0_energy">   -115.09733147 </i>
   </energy>
  </scstep>
  <scstep>
   <time name="dav">    5.98    5.98</time>
   <time name="total">    6.57    6.59</time>
   <energy>
    <i name="e_fr_energy">   -115.12296478 </i>
    <i name="e_wo_entrp">   -115.11210165 </i>
    <i name="e_0_energy">   -115.11753321 </i>
   </energy>
  </scstep>
  <scstep>
   <time name="dav">    6.11    6.11</time>
   <time name="total">    6.70    6.71</time>
   <energy>
    <i name="e_fr_energy">   -115.12758181 </i>
    <i name="e_wo_entrp">   -115.11551728 </i>
    <i name="e_0_energy">   -115.12154954 </i>
   </energy>
  </scstep>
  <scstep>
   <time name="dav">    5.50    5.50</time>
   <time name="total">    6.09    6.11</time>
   <energy>
    <i name="e_fr_energy">   -115.13077057 </i>
    <i name="e_wo_entrp">   -115.11762076 </i>
    <i name="e_0_energy">   -115.12419566 </i>
   </energy>
  </scstep>
  <scstep>
   <time name="dav">    5.49    5.50</time>
   <time name="total">    6.09    6.10</time>
   <energy>
    <i name="e_fr_energy">   -115.13232957 </i>
    <i name="e_wo_entrp">   -115.11867784 </i>
    <i name="e_0_energy">   -115.12550370 </i>
   </energy>
  </scstep>
  <scstep>
   <time name="dav">    5.54    5.54</time>
   <time name="total">    6.13    6.14</time>
   <energy>
    <i name="e_fr_energy">   -115.13301489 </i>
    <i name="e_wo_entrp">   -115.11892635 </i>
    <i name="e_0_energy">   -115.12597062 </i>
   </energy>
  </scstep>
  <scstep>
   <time name="dav">    5.30    5.30</time>
   <time name="total">    5.89    5.91</time>
   <energy>
    <i name="e_fr_energy">   -115.13358833 </i>
    <i name="e_wo_entrp">   -115.11883289 </i>
    <i name="e_0_energy">   -115.12621061 </i>
   </energy>
  </scstep>
  <scstep>
   <time name="dav">    5.23    5.23</time>
   <time name="total">    5.82    5.84</time>
   <energy>
    <i name="e_fr_energy">   -115.13391921 </i>
    <i name="e_wo_entrp">   -115.11843705 </i>
    <i name="e_0_energy">   -115.12617813 </i>
   </energy>
  </scstep>
  <scstep>
   <time name="dav">    5.25    5.25</time>
   <time name="total">    5.84    5.86</time>
   <energy>
    <i name="e_fr_energy">   -115.13403304 </i>
    <i name="e_wo_entrp">   -115.11800548 </i>
    <i name="e_0_energy">   -115.12601926 </i>
   </energy>
  </scstep>
  <scstep>
   <time name="dav">    6.15    6.16</time>
   <time name="total">    6.75    6.76</time>
   <energy>
    <i name="e_fr_energy">   -115.13406618 </i>
    <i name="e_wo_entrp">   -115.11784619 </i>
    <i name="e_0_energy">   -115.12595619 </i>
   </energy>
  </scstep>
  <scstep>
   <time name="dav">    5.30    5.30</time>
   <time name="total">    5.89    5.91</time>
   <energy>
    <i name="e_fr_energy">   -115.13408434 </i>
    <i name="e_wo_entrp">   -115.11763012 </i>
    <i name="e_0_energy">   -115.12585723 </i>
   </energy>
  </scstep>
  <scstep>
   <time name="dav">    6.14    6.14</time>
   <time name="total">    6.73    6.75</time>
   <energy>
    <i name="e_fr_energy">   -115.13409178 </i>
    <i name="e_wo_entrp">   -115.11755576 </i>
    <i name="e_0_energy">   -115.12582377 </i>
   </energy>
  </scstep>
  <scstep>
   <time name="dav">    5.20    5.21</time>
   <time name="total">    5.80    5.81</time>
   <energy>
    <i name="e_fr_energy">   -115.13409512 </i>
    <i name="e_wo_entrp">   -115.11748447 </i>
    <i name="e_0_energy">   -115.12578980 </i>
   </energy>
  </scstep>
  <scstep>
   <time name="dav">    5.02    5.03</time>
   <time name="total">    5.62    5.63</time>
   <energy>
    <i name="e_fr_energy">   -115.13409647 </i>
    <i name="e_wo_entrp">   -115.11742037 </i>
    <i name="e_0_energy">   -115.12575842 </i>
   </energy>
  </scstep>
  <scstep>
   <time name="dav">    4.02    4.03</time>
   <time name="total">    4.24    4.25</time>
   <energy>
    <i name="alphaZ">    897.98046216 </i>
    <i name="ewald"> -12708.83231563 </i>
    <i name="hartreedc">  -5959.88342932 </i>
    <i name="XCdc">    814.52821960 </i>
    <i name="pawpsdc">  23202.23783887 </i>
    <i name="pawaedc"> -23749.64616761 </i>
    <i name="eentropy">     -0.01668487 </i>
    <i name="bandstr">  -1204.01294396 </i>
    <i name="atom">  18592.51092354 </i>
    <i name="e_fr_energy">   -115.13409724 </i>
    <i name="e_wo_entrp">   -115.11741236 </i>
    <i name="e_0_energy">   -115.12575480 </i>
   </energy>
  </scstep>
  <structure>
   <crystal>
    <varray name="basis" >
     <v>       4.00000000       0.00000000       0.00000000 </v>
     <v>       0.00000000      16.97056275       0.00000000 </v>
     <v>       0.00000000       0.00000000       5.65685425 </v>
    </varray>
    <i name="volume">    384.00000000 </i>
    <varray name="rec_basis" >
     <v>       0.25000000       0.00000000       0.00000000 </v>
     <v>       0.00000000       0.05892557       0.00000000 </v>
     <v>       0.00000000       0.00000000       0.17677670 </v>
    </varray>
   </crystal>
   <varray name="positions" >
    <v>       0.00000000       0.00000000       0.00000000 </v>
    <v>       0.00000000       0.16666667       0.50000000 </v>
    <v>       0.00000000       0.33333333       0.00000000 </v>
    <v>       0.00000000       0.50000000       0.50000000 </v>
    <v>       0.00000000       0.66666667       0.00000000 </v>
    <v>       0.00000000       0.83333333       0.50000000 </v>
    <v>       0.50000000       0.00000000       0.50000000 </v>
    <v>       0.50000000       0.16666667       0.00000000 </v>
    <v>       0.50000000       0.33333333       0.50000000 </v>
    <v>       0.50000000       0.50000000       0.00000000 </v>
    <v>       0.50000000       0.66666667       0.50000000 </v>
    <v>       0.50000000       0.83333333       0.00000000 </v>
    <v>       0.50000000       0.08333333       0.25000000 </v>
    <v>       0.50000000       0.25000000       0.75000000 </v>
    <v>       0.00000000       0.16666667       0.00000000 </v>
    <v>       0.00000000       0.33333333       0.50000000 </v>
    <v>       0.50000000       0.25000000       0.25000000 </v>
    <v>       0.50000000       0.41666667       0.75000000 </v>
    <v>       0.50000000       0.58333333       0.75000000 </v>
    <v>       0.50000000       0.75000000       0.25000000 </v>
    <v>       0.00000000       0.66666667       0.50000000 </v>
    <v>       0.00000000       0.83333333       0.00000000 </v>
    <v>       0.50000000       0.75000000       0.75000000 </v>
    <v>       0.50000000       0.91666667       0.25000000 </v>
   </varray>
  </structure>
  <varray name="forces" >
   <v>       0.00000000       0.00000000       1.75718338 </v>
   <v>       0.00000000       1.82170145      -0.75855971 </v>
   <v>       0.00000000      -1.82170145      -0.75855971 </v>
   <v>       0.00000000       0.00000000       1.75718338 </v>
   <v>       0.00000000       1.82170145      -0.75855971 </v>
   <v>       0.00000000      -1.82170145      -0.75855971 </v>
   <v>       0.00000000       0.00000000      -1.30893633 </v>
   <v>       0.00000000       0.84911018       0.09177185 </v>
   <v>       0.00000000      -0.84911018       0.09177185 </v>
   <v>       0.00000000       0.00000000      -1.30893633 </v>
   <v>       0.00000000       0.84911018       0.09177185 </v>
   <v>       0.00000000      -0.84911018       0.09177185 </v>
   <v>       0.00000000      -0.52984938       0.29212787 </v>
   <v>       0.00000000      -1.44860237       0.82255904 </v>
   <v>       0.00000000      -0.89837025      -0.67202257 </v>
   <v>       0.00000000       0.89837025      -0.67202257 </v>
   <v>       0.00000000       1.44860237       0.82255904 </v>
   <v>       0.00000000       0.52984938       0.29212787 </v>
   <v>       0.00000000      -0.52984938       0.29212787 </v>
   <v>       0.00000000      -1.44860237       0.82255904 </v>
   <v>       0.00000000      -0.89837025      -0.67202257 </v>
   <v>       0.00000000       0.89837025      -0.67202257 </v>
   <v>       0.00000000       1.44860237       0.82255904 </v>
   <v>       0.00000000       0.52984938       0.29212787 </v>
  </varray>
  <varray name="stress" >
   <v>     -89.69759506       0.00000000       0.00000000 </v>
   <v>       0.00000000     -71.13915387       0.00000000 </v>
   <v>       0.00000000       0.00000000     -98.71287675 </v>
  </varray>
  <energy>
   <i name="e_fr_energy">   -115.13409724 </i>
   <i name="e_wo_entrp">   -115.12575480 </i>
   <i name="e_0_energy">     -0.01668487 </i>
  </energy>
  <time name="totalsc">  190.59  191.14</time>
  <eigenvalues>
   <array>
    <dimension dim="1">band</dimension>
    <dimension dim="2">kpoint</dimension>
    <dimension dim="3">spin</dimension>
    <field>eigene</field>
    <field>occ</field>
    <set>
     <set comment="spin 1">
      <set comment="kpoint 1">
       <r>  -32.0989    1.0000 </r>
       <r>  -32.0989    1.0000 </r>
       <r>  -31.0078    1.0000 </r>
       <r>  -31.0078    1.0000 </r>
       <r>  -30.9947    1.0000 </r>
       <r>  -30.9946    1.0000 </r>
       <r>  -14.8916    1.0000 </r>
       <r>  -14.8235    1.0000 </r>
       <r>  -14.7944    1.0000 </r>
       <r>  -14.7815    1.0000 </r>
       <r>  -14.5915    1.0000 </r>
       <r>  -14.3950    1.0000 </r>
       <r>  -14.1743    1.0000 </r>
       <r>  -14.0394    1.0000 </r>
       <r>  -14.0160    1.0000 </r>
       <r>  -14.0160    1.0000 </r>
       <r>  -13.9596    1.0000 </r>
       <r>  -13.9446    1.0000 </r>
       <r>  -13.8004    1.0000 </r>
       <r>  -13.7191    1.0000 </r>
       <r>  -13.7064    1.0000 </r>
       <r>  -13.5952    1.0000 </r>
       <r>  -13.5850    1.0000 </r>
       <r>  -13.3794    1.0000 </r>
       <r>  -12.9666    1.0000 </r>
       <r>  -12.9598    1.0000 </r>
       <r>  -12.9440    1.0000 </r>
       <r>  -12.9296    1.0000 </r>
       <r>  -12.9291    1.0000 </r>
       <r>  -12.9291    1.0000 </r>
       <r>  -12.8958    1.0000 </r>
       <r>  -12.8952    1.0000 </r>
       <r>  -12.6570    1.0000 </r>
       <r>  -12.6347    1.0000 </r>
       <r>  -12.5776    1.0000 </r>
       <r>  -12.5609    1.0000 </r>
       <r>   -2.6260    1.0000 </r>
       <r>   -2.4728    1.0000 </r>
       <r>   -2.4381    1.0000 </r>
       <r>   -2.2665    1.0000 </r>
       <r>   -1.9797    1.0000 </r>
       <r>   -1.8194    1.0000 </r>
       <r>   -1.7017    1.0000 </r>
       <r>   -1.6877    1.0000 </r>
       <r>   -1.5710    1.0000 </r>
       <r>   -1.5621    1.0000 </r>
       <r>   -1.4311    1.0000 </r>
       <r>   -1.4242    1.0000 </r>
       <r>   -1.4143    1.0000 </r>
       <r>   -1.4140    1.0000 </r>
       <r>   -1.4081    1.0000 </r>
       <r>   -1.0751    1.0000 </r>
       <r>   -1.0634    1.0000 </r>
       <r>   -1.0587    1.0000 </r>
       <r>   -0.9813    1.0000 </r>
       <r>   -0.9560    1.0000 </r>
       <r>   -0.7962    1.0000 </r>
       <r>   -0.7742    1.0000 </r>
       <r>   -0.7366    1.0000 </r>
       <r>   -0.6010    1.0000 </r>
       <r>   -0.5741    1.0000 </r>
       <r>   -0.5638    1.0000 </r>
       <r>   -0.4236    1.0000 </r>
       <r>   -0.3662    1.0000 </r>
       <r>   -0.3456    1.0000 </r>
       <r>   -0.3189    1.0000 </r>
       <r>   -0.2427    1.0000 </r>
       <r>   -0.2391    1.0000 </r>
       <r>   -0.2053    1.0000 </r>
       <r>   -0.1065    1.0000 </r>
       <r>   -0.0838    1.0000 </r>
       <r>    0.0446    1.0000 </r>
       <r>    0.4053    1.0000 </r>
       <r>    0.4479    1.0000 </r>
       <r>    0.5018    1.0000 </r>
       <r>    0.5184    1.0000 </r>
       <r>    0.7217    1.0000 </r>
       <r>    0.8919    1.0000 </r>
       <r>    0.9677    1.0000 </r>
       <r>    0.9796    1.0000 </r>
       <r>    0.9974    1.0000 </r>
       <r>    1.0846    1.0000 </r>
       <r>    1.1342    1.0000 </r>
       <r>    1.1890    1.0000 </r>
       <r>    1.2172    1.0000 </r>
       <r>    1.2211    1.0000 </r>
       <r>    1.2515    1.0000 </r>
       <r>    1.2692    1.0000 </r>
       <r>    1.2931    1.0000 </r>
       <r>    1.4217    1.0000 </r>
       <r>    1.4242    1.0000 </r>
       <r>    1.4853    1.0000 </r>
       <r>    1.7279    1.0000 </r>
       <r>    1.7297    1.0000 </r>
       <r>    1.7537    1.0000 </r>
       <r>    1.8046    1.0000 </r>
       <r>    1.9555    1.0000 </r>
       <r>    2.0056    1.0000 </r>
       <r>    2.0134    1.0000 </r>
       <r>    2.2408    1.0000 </r>
       <r>    2.2840    1.0000 </r>
       <r>    2.3177    1.0000 </r>
       <r>    3.0360    0.0000 </r>
       <r>    3.1842    0.0000 </r>
       <r>    4.7765    0.0000 </r>
       <r>    5.0317    0.0000 </r>
       <r>    5.8656    0.0000 </r>
       <r>    5.9190    0.0000 </r>
       <r>    7.2197    0.0000 </r>
       <r>    7.4714    0.0000 </r>
       <r>    7.6037    0.0000 </r>
       <r>    7.7180    0.0000 </r>
       <r>    7.8048    0.0000 </r>
       <r>    7.8204    0.0000 </r>
       <r>    7.8225    0.0000 </r>
       <r>    7.9415    0.0000 </r>
       <r>    8.2292    0.0000 </r>
       <r>    8.4052    0.0000 </r>
       <r>    8.6342    0.0000 </r>
       <r>    8.7438    0.0000 </r>
       <r>    8.8527    0.0000 </r>
       <r>    8.9012    0.0000 </r>
       <r>    8.9412    0.0000 </r>
       <r>    9.1716    0.0000 </r>
       <r>    9.5296    0.0000 </r>
       <r>    9.5485    0.0000 </r>
       <r>    9.6188    0.0000 </r>
       <r>    9.6978    0.0000 </r>
       <r>    9.7088    0.0000 </r>
       <r>    9.8739    0.0000 </r>
       <r>    9.9109    0.0000 </r>
       <r>   10.0056    0.0000 </r>
      </set>
      <set comment="kpoint 2">
       <r>  -32.0947    1.0000 </r>
       <r>  -32.0947    1.0000 </r>
       <r>  -31.0032    1.0000 </r>
       <r>  -31.0031    1.0000 </r>
       <r>  -30.9904    1.0000 </r>
       <r>  -30.9904    1.0000 </r>
       <r>  -14.8453    1.0000 </r>
       <r>  -14.8200    1.0000 </r>
       <r>  -14.7878    1.0000 </r>
       <r>  -14.6924    1.0000 </r>
       <r>  -14.5244    1.0000 </r>
       <r>  -14.2969    1.0000 </r>
       <r>  -14.1775    1.0000 </r>
       <r>  -14.1626    1.0000 </r>
       <r>  -14.0651    1.0000 </r>
       <r>  -14.0007    1.0000 </r>
       <r>  -13.9701    1.0000 </r>
       <r>  -13.8667    1.0000 </r>
       <r>  -13.7986    1.0000 </r>
       <r>  -13.7440    1.0000 </r>
       <r>  -13.7236    1.0000 </r>
       <r>  -13.6616    1.0000 </r>
       <r>  -13.5837    1.0000 </r>
       <r>  -13.4238    1.0000 </r>
       <r>  -13.0248    1.0000 </r>
       <r>  -13.0190    1.0000 </r>
       <r>  -12.9765    1.0000 </r>
       <r>  -12.9713    1.0000 </r>
       <r>  -12.9002    1.0000 </r>
       <r>  -12.8925    1.0000 </r>
       <r>  -12.7808    1.0000 </r>
       <r>  -12.7665    1.0000 </r>
       <r>  -12.6804    1.0000 </r>
       <r>  -12.6772    1.0000 </r>
       <r>  -12.6759    1.0000 </r>
       <r>  -12.6681    1.0000 </r>
       <r>   -2.6386    1.0000 </r>
       <r>   -2.5093    1.0000 </r>
       <r>   -2.4255    1.0000 </r>
       <r>   -2.2776    1.0000 </r>
       <r>   -1.8969    1.0000 </r>
       <r>   -1.7847    1.0000 </r>
       <r>   -1.7774    1.0000 </r>
       <r>   -1.7773    1.0000 </r>
       <r>   -1.7269    1.0000 </r>
       <r>   -1.7165    1.0000 </r>
       <r>   -1.6769    1.0000 </r>
       <r>   -1.6649    1.0000 </r>
       <r>   -1.6391    1.0000 </r>
       <r>   -1.6022    1.0000 </r>
       <r>   -1.5651    1.0000 </r>
       <r>   -1.5002    1.0000 </r>
       <r>   -1.4843    1.0000 </r>
       <r>   -1.4501    1.0000 </r>
       <r>   -1.3227    1.0000 </r>
       <r>   -1.2135    1.0000 </r>
       <r>   -1.1685    1.0000 </r>
       <r>   -1.1662    1.0000 </r>
       <r>   -1.1468    1.0000 </r>
       <r>   -1.0642    1.0000 </r>
       <r>   -0.7215    1.0000 </r>
       <r>   -0.5668    1.0000 </r>
       <r>   -0.4784    1.0000 </r>
       <r>   -0.4755    1.0000 </r>
       <r>   -0.4494    1.0000 </r>
       <r>   -0.4382    1.0000 </r>
       <r>   -0.2515    1.0000 </r>
       <r>   -0.2091    1.0000 </r>
       <r>   -0.1591    1.0000 </r>
       <r>    0.1529    1.0000 </r>
       <r>    0.3707    1.0000 </r>
       <r>    0.4193    1.0000 </r>
       <r>    0.5533    1.0000 </r>
       <r>    0.5944    1.0000 </r>
       <r>    0.6773    1.0000 </r>
       <r>    0.7450    1.0000 </r>
       <r>    1.0016    1.0000 </r>
       <r>    1.0149    1.0000 </r>
       <r>    1.0248    1.0000 </r>
       <r>    1.0266    1.0000 </r>
       <r>    1.0988    1.0000 </r>
       <r>    1.1205    1.0000 </r>
       <r>    1.2143    1.0000 </r>
       <r>    1.2253    1.0000 </r>
       <r>    1.2610    1.0000 </r>
       <r>    1.2790    1.0000 </r>
       <r>    1.3073    1.0000 </r>
       <r>    1.3267    1.0000 </r>
       <r>    1.4426    1.0000 </r>
       <r>    1.4770    1.0000 </r>
       <r>    1.5945    1.0000 </r>
       <r>    1.7188    1.0000 </r>
       <r>    1.7262    1.0000 </r>
       <r>    1.8589    1.0000 </r>
       <r>    1.8881    1.0000 </r>
       <r>    1.9037    1.0000 </r>
       <r>    2.2230    1.0000 </r>
       <r>    2.3196    1.0000 </r>
       <r>    2.4059    0.9457 </r>
       <r>    2.6324    0.0000 </r>
       <r>    2.6412    0.0000 </r>
       <r>    2.7035    0.0000 </r>
       <r>    3.1039    0.0000 </r>
       <r>    3.3730    0.0000 </r>
       <r>    5.1213    0.0000 </r>
       <r>    5.1771    0.0000 </r>
       <r>    5.2862    0.0000 </r>
       <r>    5.3349    0.0000 </r>
       <r>    7.3645    0.0000 </r>
       <r>    7.4536    0.0000 </r>
       <r>    7.5699    0.0000 </r>
       <r>    7.6575    0.0000 </r>
       <r>    7.9175    0.0000 </r>
       <r>    7.9978    0.0000 </r>
       <r>    8.2145    0.0000 </r>
       <r>    8.2742    0.0000 </r>
       <r>    8.3354    0.0000 </r>
       <r>    8.6450    0.0000 </r>
       <r>    8.7459    0.0000 </r>
       <r>    8.8305    0.0000 </r>
       <r>    8.9061    0.0000 </r>
       <r>    9.1115    0.0000 </r>
       <r>    9.1405    0.0000 </r>
       <r>    9.4119    0.0000 </r>
       <r>    9.4143    0.0000 </r>
       <r>    9.4526    0.0000 </r>
       <r>    9.5629    0.0000 </r>
       <r>    9.6256    0.0000 </r>
       <r>    9.6947    0.0000 </r>
       <r>    9.9650    0.0000 </r>
       <r>    9.9792    0.0000 </r>
       <r>   10.1563    0.0000 </r>
      </set>
      <set comment="kpoint 3">
       <r>  -32.0878    1.0000 </r>
       <r>  -32.0878    1.0000 </r>
       <r>  -30.9955    1.0000 </r>
       <r>  -30.9955    1.0000 </r>
       <r>  -30.9835    1.0000 </r>
       <r>  -30.9834    1.0000 </r>
       <r>  -14.9300    1.0000 </r>
       <r>  -14.8467    1.0000 </r>
       <r>  -14.6824    1.0000 </r>
       <r>  -14.4454    1.0000 </r>
       <r>  -14.4104    1.0000 </r>
       <r>  -14.2912    1.0000 </r>
       <r>  -14.2097    1.0000 </r>
       <r>  -14.2091    1.0000 </r>
       <r>  -14.1295    1.0000 </r>
       <r>  -13.9806    1.0000 </r>
       <r>  -13.9538    1.0000 </r>
       <r>  -13.9226    1.0000 </r>
       <r>  -13.7664    1.0000 </r>
       <r>  -13.6600    1.0000 </r>
       <r>  -13.6137    1.0000 </r>
       <r>  -13.6051    1.0000 </r>
       <r>  -13.5556    1.0000 </r>
       <r>  -13.5316    1.0000 </r>
       <r>  -13.0428    1.0000 </r>
       <r>  -13.0058    1.0000 </r>
       <r>  -12.9974    1.0000 </r>
       <r>  -12.9952    1.0000 </r>
       <r>  -12.9600    1.0000 </r>
       <r>  -12.9584    1.0000 </r>
       <r>  -12.8694    1.0000 </r>
       <r>  -12.8688    1.0000 </r>
       <r>  -12.8637    1.0000 </r>
       <r>  -12.8609    1.0000 </r>
       <r>  -12.5667    1.0000 </r>
       <r>  -12.5652    1.0000 </r>
       <r>   -2.9380    1.0000 </r>
       <r>   -2.9012    1.0000 </r>
       <r>   -2.6520    1.0000 </r>
       <r>   -2.6460    1.0000 </r>
       <r>   -2.3369    1.0000 </r>
       <r>   -2.3205    1.0000 </r>
       <r>   -2.2728    1.0000 </r>
       <r>   -2.2232    1.0000 </r>
       <r>   -1.9457    1.0000 </r>
       <r>   -1.8967    1.0000 </r>
       <r>   -1.8512    1.0000 </r>
       <r>   -1.8409    1.0000 </r>
       <r>   -1.7626    1.0000 </r>
       <r>   -1.6499    1.0000 </r>
       <r>   -1.5749    1.0000 </r>
       <r>   -1.5604    1.0000 </r>
       <r>   -1.5284    1.0000 </r>
       <r>   -1.5101    1.0000 </r>
       <r>   -1.4875    1.0000 </r>
       <r>   -1.4495    1.0000 </r>
       <r>   -1.4477    1.0000 </r>
       <r>   -1.4367    1.0000 </r>
       <r>   -1.2593    1.0000 </r>
       <r>   -1.0712    1.0000 </r>
       <r>   -0.6885    1.0000 </r>
       <r>   -0.5581    1.0000 </r>
       <r>   -0.5537    1.0000 </r>
       <r>   -0.5342    1.0000 </r>
       <r>   -0.5280    1.0000 </r>
       <r>   -0.5094    1.0000 </r>
       <r>   -0.1090    1.0000 </r>
       <r>   -0.0237    1.0000 </r>
       <r>    0.0855    1.0000 </r>
       <r>    0.4146    1.0000 </r>
       <r>    0.4226    1.0000 </r>
       <r>    0.4941    1.0000 </r>
       <r>    0.5614    1.0000 </r>
       <r>    0.6501    1.0000 </r>
       <r>    0.7177    1.0000 </r>
       <r>    0.7635    1.0000 </r>
       <r>    0.9050    1.0000 </r>
       <r>    1.0016    1.0000 </r>
       <r>    1.0943    1.0000 </r>
       <r>    1.0967    1.0000 </r>
       <r>    1.1792    1.0000 </r>
       <r>    1.2114    1.0000 </r>
       <r>    1.2618    1.0000 </r>
       <r>    1.2883    1.0000 </r>
       <r>    1.2910    1.0000 </r>
       <r>    1.3067    1.0000 </r>
       <r>    1.5427    1.0000 </r>
       <r>    1.5741    1.0000 </r>
       <r>    1.6687    1.0000 </r>
       <r>    1.7317    1.0000 </r>
       <r>    1.7855    1.0000 </r>
       <r>    1.9556    1.0000 </r>
       <r>    2.0526    1.0000 </r>
       <r>    2.0993    1.0000 </r>
       <r>    2.1296    1.0000 </r>
       <r>    2.1778    1.0000 </r>
       <r>    2.3493    0.9993 </r>
       <r>    2.3986    0.9648 </r>
       <r>    2.4344    0.7874 </r>
       <r>    2.9085    0.0000 </r>
       <r>    3.3825    0.0000 </r>
       <r>    3.4887    0.0000 </r>
       <r>    3.6038    0.0000 </r>
       <r>    3.8570    0.0000 </r>
       <r>    4.1184    0.0000 </r>
       <r>    4.1637    0.0000 </r>
       <r>    5.5446    0.0000 </r>
       <r>    5.6091    0.0000 </r>
       <r>    6.9985    0.0000 </r>
       <r>    7.0023    0.0000 </r>
       <r>    7.8528    0.0000 </r>
       <r>    8.1241    0.0000 </r>
       <r>    8.1316    0.0000 </r>
       <r>    8.2250    0.0000 </r>
       <r>    8.2822    0.0000 </r>
       <r>    8.6995    0.0000 </r>
       <r>    8.9374    0.0000 </r>
       <r>    8.9411    0.0000 </r>
       <r>    8.9513    0.0000 </r>
       <r>    9.1908    0.0000 </r>
       <r>    9.2075    0.0000 </r>
       <r>    9.3140    0.0000 </r>
       <r>    9.6154    0.0000 </r>
       <r>    9.6304    0.0000 </r>
       <r>    9.6600    0.0000 </r>
       <r>    9.7502    0.0000 </r>
       <r>    9.7648    0.0000 </r>
       <r>    9.8492    0.0000 </r>
       <r>    9.8636    0.0000 </r>
       <r>    9.8707    0.0000 </r>
       <r>   10.0526    0.0000 </r>
       <r>   10.3190    0.0000 </r>
      </set>
      <set comment="kpoint 4">
       <r>  -32.0988    1.0000 </r>
       <r>  -32.0988    1.0000 </r>
       <r>  -31.0058    1.0000 </r>
       <r>  -31.0057    1.0000 </r>
       <r>  -30.9964    1.0000 </r>
       <r>  -30.9964    1.0000 </r>
       <r>  -14.9519    1.0000 </r>
       <r>  -14.8898    1.0000 </r>
       <r>  -14.8897    1.0000 </r>
       <r>  -14.8418    1.0000 </r>
       <r>  -14.5474    1.0000 </r>
       <r>  -14.3669    1.0000 </r>
       <r>  -14.3226    1.0000 </r>
       <r>  -14.0578    1.0000 </r>
       <r>  -14.0159    1.0000 </r>
       <r>  -14.0159    1.0000 </r>
       <r>  -13.9180    1.0000 </r>
       <r>  -13.8345    1.0000 </r>
       <r>  -13.7864    1.0000 </r>
       <r>  -13.7771    1.0000 </r>
       <r>  -13.6324    1.0000 </r>
       <r>  -13.6112    1.0000 </r>
       <r>  -13.4622    1.0000 </r>
       <r>  -13.4321    1.0000 </r>
       <r>  -12.9657    1.0000 </r>
       <r>  -12.9445    1.0000 </r>
       <r>  -12.9245    1.0000 </r>
       <r>  -12.9241    1.0000 </r>
       <r>  -12.9005    1.0000 </r>
       <r>  -12.9003    1.0000 </r>
       <r>  -12.9002    1.0000 </r>
       <r>  -12.8970    1.0000 </r>
       <r>  -12.6166    1.0000 </r>
       <r>  -12.5848    1.0000 </r>
       <r>  -12.5352    1.0000 </r>
       <r>  -12.5196    1.0000 </r>
       <r>   -2.6102    1.0000 </r>
       <r>   -2.4507    1.0000 </r>
       <r>   -2.4230    1.0000 </r>
       <r>   -2.2841    1.0000 </r>
       <r>   -1.8515    1.0000 </r>
       <r>   -1.7408    1.0000 </r>
       <r>   -1.6917    1.0000 </r>
       <r>   -1.6628    1.0000 </r>
       <r>   -1.5640    1.0000 </r>
       <r>   -1.5571    1.0000 </r>
       <r>   -1.4352    1.0000 </r>
       <r>   -1.4060    1.0000 </r>
       <r>   -1.4019    1.0000 </r>
       <r>   -1.3877    1.0000 </r>
       <r>   -1.3837    1.0000 </r>
       <r>   -1.1069    1.0000 </r>
       <r>   -1.0627    1.0000 </r>
       <r>   -1.0593    1.0000 </r>
       <r>   -0.9965    1.0000 </r>
       <r>   -0.9812    1.0000 </r>
       <r>   -0.8177    1.0000 </r>
       <r>   -0.7659    1.0000 </r>
       <r>   -0.7516    1.0000 </r>
       <r>   -0.6726    1.0000 </r>
       <r>   -0.6230    1.0000 </r>
       <r>   -0.6039    1.0000 </r>
       <r>   -0.3778    1.0000 </r>
       <r>   -0.3309    1.0000 </r>
       <r>   -0.3231    1.0000 </r>
       <r>   -0.3055    1.0000 </r>
       <r>   -0.2526    1.0000 </r>
       <r>   -0.2496    1.0000 </r>
       <r>   -0.2115    1.0000 </r>
       <r>   -0.1693    1.0000 </r>
       <r>   -0.1452    1.0000 </r>
       <r>   -0.0544    1.0000 </r>
       <r>    0.2688    1.0000 </r>
       <r>    0.3530    1.0000 </r>
       <r>    0.4233    1.0000 </r>
       <r>    0.5422    1.0000 </r>
       <r>    0.6705    1.0000 </r>
       <r>    0.7191    1.0000 </r>
       <r>    0.7920    1.0000 </r>
       <r>    0.8597    1.0000 </r>
       <r>    0.9619    1.0000 </r>
       <r>    1.0210    1.0000 </r>
       <r>    1.0644    1.0000 </r>
       <r>    1.0885    1.0000 </r>
       <r>    1.1572    1.0000 </r>
       <r>    1.2031    1.0000 </r>
       <r>    1.2605    1.0000 </r>
       <r>    1.3704    1.0000 </r>
       <r>    1.4367    1.0000 </r>
       <r>    1.4843    1.0000 </r>
       <r>    1.4860    1.0000 </r>
       <r>    1.5163    1.0000 </r>
       <r>    1.6068    1.0000 </r>
       <r>    1.7685    1.0000 </r>
       <r>    1.7903    1.0000 </r>
       <r>    1.7908    1.0000 </r>
       <r>    1.9830    1.0000 </r>
       <r>    1.9895    1.0000 </r>
       <r>    2.0812    1.0000 </r>
       <r>    2.2794    1.0000 </r>
       <r>    2.2907    1.0000 </r>
       <r>    2.5511    0.0062 </r>
       <r>    2.6850    0.0000 </r>
       <r>    2.9078    0.0000 </r>
       <r>    5.1469    0.0000 </r>
       <r>    5.3498    0.0000 </r>
       <r>    5.9180    0.0000 </r>
       <r>    5.9609    0.0000 </r>
       <r>    7.1232    0.0000 </r>
       <r>    7.2203    0.0000 </r>
       <r>    7.4037    0.0000 </r>
       <r>    7.5433    0.0000 </r>
       <r>    7.6772    0.0000 </r>
       <r>    7.6950    0.0000 </r>
       <r>    7.7495    0.0000 </r>
       <r>    7.9232    0.0000 </r>
       <r>    8.2447    0.0000 </r>
       <r>    8.2786    0.0000 </r>
       <r>    8.6713    0.0000 </r>
       <r>    8.7501    0.0000 </r>
       <r>    8.7676    0.0000 </r>
       <r>    8.8423    0.0000 </r>
       <r>    9.0420    0.0000 </r>
       <r>    9.2442    0.0000 </r>
       <r>    9.2882    0.0000 </r>
       <r>    9.6260    0.0000 </r>
       <r>    9.7872    0.0000 </r>
       <r>    9.8363    0.0000 </r>
       <r>    9.8478    0.0000 </r>
       <r>    9.9240    0.0000 </r>
       <r>   10.0787    0.0000 </r>
       <r>   10.2125    0.0000 </r>
      </set>
      <set comment="kpoint 5">
       <r>  -32.0946    1.0000 </r>
       <r>  -32.0946    1.0000 </r>
       <r>  -31.0011    1.0000 </r>
       <r>  -31.0011    1.0000 </r>
       <r>  -30.9921    1.0000 </r>
       <r>  -30.9921    1.0000 </r>
       <r>  -14.8639    1.0000 </r>
       <r>  -14.8535    1.0000 </r>
       <r>  -14.8174    1.0000 </r>
       <r>  -14.7734    1.0000 </r>
       <r>  -14.5076    1.0000 </r>
       <r>  -14.3033    1.0000 </r>
       <r>  -14.2489    1.0000 </r>
       <r>  -14.1595    1.0000 </r>
       <r>  -14.1534    1.0000 </r>
       <r>  -14.0431    1.0000 </r>
       <r>  -13.9530    1.0000 </r>
       <r>  -13.8345    1.0000 </r>
       <r>  -13.8112    1.0000 </r>
       <r>  -13.7877    1.0000 </r>
       <r>  -13.7245    1.0000 </r>
       <r>  -13.6081    1.0000 </r>
       <r>  -13.4871    1.0000 </r>
       <r>  -13.4749    1.0000 </r>
       <r>  -13.0078    1.0000 </r>
       <r>  -13.0076    1.0000 </r>
       <r>  -12.9752    1.0000 </r>
       <r>  -12.9733    1.0000 </r>
       <r>  -12.8708    1.0000 </r>
       <r>  -12.8520    1.0000 </r>
       <r>  -12.7454    1.0000 </r>
       <r>  -12.7349    1.0000 </r>
       <r>  -12.6495    1.0000 </r>
       <r>  -12.6351    1.0000 </r>
       <r>  -12.6001    1.0000 </r>
       <r>  -12.5888    1.0000 </r>
       <r>   -2.6334    1.0000 </r>
       <r>   -2.4584    1.0000 </r>
       <r>   -2.4526    1.0000 </r>
       <r>   -2.3018    1.0000 </r>
       <r>   -1.8257    1.0000 </r>
       <r>   -1.7955    1.0000 </r>
       <r>   -1.7819    1.0000 </r>
       <r>   -1.7727    1.0000 </r>
       <r>   -1.7481    1.0000 </r>
       <r>   -1.7165    1.0000 </r>
       <r>   -1.6707    1.0000 </r>
       <r>   -1.6497    1.0000 </r>
       <r>   -1.6429    1.0000 </r>
       <r>   -1.5664    1.0000 </r>
       <r>   -1.5586    1.0000 </r>
       <r>   -1.5170    1.0000 </r>
       <r>   -1.4737    1.0000 </r>
       <r>   -1.4619    1.0000 </r>
       <r>   -1.3646    1.0000 </r>
       <r>   -1.1970    1.0000 </r>
       <r>   -1.1966    1.0000 </r>
       <r>   -1.1871    1.0000 </r>
       <r>   -1.1578    1.0000 </r>
       <r>   -1.1167    1.0000 </r>
       <r>   -0.7287    1.0000 </r>
       <r>   -0.6251    1.0000 </r>
       <r>   -0.4783    1.0000 </r>
       <r>   -0.4699    1.0000 </r>
       <r>   -0.4515    1.0000 </r>
       <r>   -0.4477    1.0000 </r>
       <r>   -0.1966    1.0000 </r>
       <r>   -0.1770    1.0000 </r>
       <r>   -0.0086    1.0000 </r>
       <r>    0.0352    1.0000 </r>
       <r>    0.1071    1.0000 </r>
       <r>    0.2934    1.0000 </r>
       <r>    0.4547    1.0000 </r>
       <r>    0.6690    1.0000 </r>
       <r>    0.7647    1.0000 </r>
       <r>    0.7739    1.0000 </r>
       <r>    0.9539    1.0000 </r>
       <r>    0.9572    1.0000 </r>
       <r>    0.9650    1.0000 </r>
       <r>    0.9742    1.0000 </r>
       <r>    1.0598    1.0000 </r>
       <r>    1.1150    1.0000 </r>
       <r>    1.1458    1.0000 </r>
       <r>    1.2204    1.0000 </r>
       <r>    1.2279    1.0000 </r>
       <r>    1.2543    1.0000 </r>
       <r>    1.2641    1.0000 </r>
       <r>    1.3681    1.0000 </r>
       <r>    1.4053    1.0000 </r>
       <r>    1.4092    1.0000 </r>
       <r>    1.5232    1.0000 </r>
       <r>    1.7210    1.0000 </r>
       <r>    1.8067    1.0000 </r>
       <r>    1.8073    1.0000 </r>
       <r>    1.9297    1.0000 </r>
       <r>    1.9605    1.0000 </r>
       <r>    2.2455    1.0000 </r>
       <r>    2.3240    1.0000 </r>
       <r>    2.3558    0.9987 </r>
       <r>    2.3872    0.9835 </r>
       <r>    2.7381    0.0000 </r>
       <r>    2.8388    0.0000 </r>
       <r>    3.1420    0.0000 </r>
       <r>    3.1524    0.0000 </r>
       <r>    5.4206    0.0000 </r>
       <r>    5.4908    0.0000 </r>
       <r>    5.5200    0.0000 </r>
       <r>    5.5430    0.0000 </r>
       <r>    7.2064    0.0000 </r>
       <r>    7.2354    0.0000 </r>
       <r>    7.4654    0.0000 </r>
       <r>    7.4796    0.0000 </r>
       <r>    7.5352    0.0000 </r>
       <r>    7.6711    0.0000 </r>
       <r>    8.0614    0.0000 </r>
       <r>    8.2392    0.0000 </r>
       <r>    8.4908    0.0000 </r>
       <r>    8.6204    0.0000 </r>
       <r>    8.6304    0.0000 </r>
       <r>    8.8168    0.0000 </r>
       <r>    8.8931    0.0000 </r>
       <r>    9.1255    0.0000 </r>
       <r>    9.4095    0.0000 </r>
       <r>    9.4593    0.0000 </r>
       <r>    9.4730    0.0000 </r>
       <r>    9.4746    0.0000 </r>
       <r>    9.7019    0.0000 </r>
       <r>    9.7848    0.0000 </r>
       <r>    9.9723    0.0000 </r>
       <r>    9.9893    0.0000 </r>
       <r>   10.0576    0.0000 </r>
       <r>   10.1908    0.0000 </r>
      </set>
      <set comment="kpoint 6">
       <r>  -32.0878    1.0000 </r>
       <r>  -32.0878    1.0000 </r>
       <r>  -30.9936    1.0000 </r>
       <r>  -30.9936    1.0000 </r>
       <r>  -30.9851    1.0000 </r>
       <r>  -30.9851    1.0000 </r>
       <r>  -14.8996    1.0000 </r>
       <r>  -14.8436    1.0000 </r>
       <r>  -14.6360    1.0000 </r>
       <r>  -14.5005    1.0000 </r>
       <r>  -14.3721    1.0000 </r>
       <r>  -14.3199    1.0000 </r>
       <r>  -14.2130    1.0000 </r>
       <r>  -14.2127    1.0000 </r>
       <r>  -14.1633    1.0000 </r>
       <r>  -14.1181    1.0000 </r>
       <r>  -14.0192    1.0000 </r>
       <r>  -13.9755    1.0000 </r>
       <r>  -13.8466    1.0000 </r>
       <r>  -13.7619    1.0000 </r>
       <r>  -13.6659    1.0000 </r>
       <r>  -13.6307    1.0000 </r>
       <r>  -13.6044    1.0000 </r>
       <r>  -13.5727    1.0000 </r>
       <r>  -13.0350    1.0000 </r>
       <r>  -13.0148    1.0000 </r>
       <r>  -13.0038    1.0000 </r>
       <r>  -13.0030    1.0000 </r>
       <r>  -12.8457    1.0000 </r>
       <r>  -12.8397    1.0000 </r>
       <r>  -12.7306    1.0000 </r>
       <r>  -12.7196    1.0000 </r>
       <r>  -12.7180    1.0000 </r>
       <r>  -12.7011    1.0000 </r>
       <r>  -12.5936    1.0000 </r>
       <r>  -12.5934    1.0000 </r>
       <r>   -2.9277    1.0000 </r>
       <r>   -2.8553    1.0000 </r>
       <r>   -2.7086    1.0000 </r>
       <r>   -2.6808    1.0000 </r>
       <r>   -2.3506    1.0000 </r>
       <r>   -2.3221    1.0000 </r>
       <r>   -2.2671    1.0000 </r>
       <r>   -2.2340    1.0000 </r>
       <r>   -1.9997    1.0000 </r>
       <r>   -1.9946    1.0000 </r>
       <r>   -1.9459    1.0000 </r>
       <r>   -1.9209    1.0000 </r>
       <r>   -1.6649    1.0000 </r>
       <r>   -1.6353    1.0000 </r>
       <r>   -1.5730    1.0000 </r>
       <r>   -1.5595    1.0000 </r>
       <r>   -1.5268    1.0000 </r>
       <r>   -1.5135    1.0000 </r>
       <r>   -1.5023    1.0000 </r>
       <r>   -1.4592    1.0000 </r>
       <r>   -1.4387    1.0000 </r>
       <r>   -1.4283    1.0000 </r>
       <r>   -1.3000    1.0000 </r>
       <r>   -1.1435    1.0000 </r>
       <r>   -0.6945    1.0000 </r>
       <r>   -0.5921    1.0000 </r>
       <r>   -0.5799    1.0000 </r>
       <r>   -0.5557    1.0000 </r>
       <r>   -0.5390    1.0000 </r>
       <r>   -0.5207    1.0000 </r>
       <r>   -0.0211    1.0000 </r>
       <r>    0.1044    1.0000 </r>
       <r>    0.1254    1.0000 </r>
       <r>    0.2933    1.0000 </r>
       <r>    0.3401    1.0000 </r>
       <r>    0.5216    1.0000 </r>
       <r>    0.5342    1.0000 </r>
       <r>    0.6227    1.0000 </r>
       <r>    0.7323    1.0000 </r>
       <r>    0.8881    1.0000 </r>
       <r>    0.9391    1.0000 </r>
       <r>    1.0056    1.0000 </r>
       <r>    1.0814    1.0000 </r>
       <r>    1.0849    1.0000 </r>
       <r>    1.1701    1.0000 </r>
       <r>    1.1758    1.0000 </r>
       <r>    1.1770    1.0000 </r>
       <r>    1.2834    1.0000 </r>
       <r>    1.3389    1.0000 </r>
       <r>    1.3677    1.0000 </r>
       <r>    1.5627    1.0000 </r>
       <r>    1.5807    1.0000 </r>
       <r>    1.6274    1.0000 </r>
       <r>    1.6396    1.0000 </r>
       <r>    1.7304    1.0000 </r>
       <r>    1.8554    1.0000 </r>
       <r>    2.0148    1.0000 </r>
       <r>    2.0771    1.0000 </r>
       <r>    2.1238    1.0000 </r>
       <r>    2.1325    1.0000 </r>
       <r>    2.2550    1.0000 </r>
       <r>    2.2797    1.0000 </r>
       <r>    2.4718    0.3979 </r>
       <r>    2.8095    0.0000 </r>
       <r>    3.5171    0.0000 </r>
       <r>    3.6570    0.0000 </r>
       <r>    3.6593    0.0000 </r>
       <r>    3.7050    0.0000 </r>
       <r>    4.3280    0.0000 </r>
       <r>    4.3558    0.0000 </r>
       <r>    5.8303    0.0000 </r>
       <r>    5.9368    0.0000 </r>
       <r>    7.0144    0.0000 </r>
       <r>    7.0348    0.0000 </r>
       <r>    7.6239    0.0000 </r>
       <r>    7.8098    0.0000 </r>
       <r>    8.1017    0.0000 </r>
       <r>    8.1839    0.0000 </r>
       <r>    8.3483    0.0000 </r>
       <r>    8.5193    0.0000 </r>
       <r>    8.6156    0.0000 </r>
       <r>    8.6529    0.0000 </r>
       <r>    9.1398    0.0000 </r>
       <r>    9.1824    0.0000 </r>
       <r>    9.2357    0.0000 </r>
       <r>    9.3126    0.0000 </r>
       <r>    9.6349    0.0000 </r>
       <r>    9.7291    0.0000 </r>
       <r>    9.7752    0.0000 </r>
       <r>    9.9139    0.0000 </r>
       <r>    9.9195    0.0000 </r>
       <r>    9.9427    0.0000 </r>
       <r>   10.1773    0.0000 </r>
       <r>   10.2570    0.0000 </r>
       <r>   10.2911    0.0000 </r>
       <r>   10.5548    0.0000 </r>
      </set>
      <set comment="kpoint 7">
       <r>  -32.0988    1.0000 </r>
       <r>  -32.0988    1.0000 </r>
       <r>  -31.0010    1.0000 </r>
       <r>  -31.0010    1.0000 </r>
       <r>  -31.0009    1.0000 </r>
       <r>  -31.0009    1.0000 </r>
       <r>  -14.9889    1.0000 </r>
       <r>  -14.9889    1.0000 </r>
       <r>  -14.9221    1.0000 </r>
       <r>  -14.9221    1.0000 </r>
       <r>  -14.4941    1.0000 </r>
       <r>  -14.4941    1.0000 </r>
       <r>  -14.1743    1.0000 </r>
       <r>  -14.1743    1.0000 </r>
       <r>  -14.0159    1.0000 </r>
       <r>  -14.0159    1.0000 </r>
       <r>  -13.8409    1.0000 </r>
       <r>  -13.8409    1.0000 </r>
       <r>  -13.7796    1.0000 </r>
       <r>  -13.7796    1.0000 </r>
       <r>  -13.5998    1.0000 </r>
       <r>  -13.5998    1.0000 </r>
       <r>  -13.4359    1.0000 </r>
       <r>  -13.4359    1.0000 </r>
       <r>  -12.9199    1.0000 </r>
       <r>  -12.9199    1.0000 </r>
       <r>  -12.9123    1.0000 </r>
       <r>  -12.9123    1.0000 </r>
       <r>  -12.9122    1.0000 </r>
       <r>  -12.9122    1.0000 </r>
       <r>  -12.9045    1.0000 </r>
       <r>  -12.9045    1.0000 </r>
       <r>  -12.5214    1.0000 </r>
       <r>  -12.5214    1.0000 </r>
       <r>  -12.4976    1.0000 </r>
       <r>  -12.4976    1.0000 </r>
       <r>   -2.5328    1.0000 </r>
       <r>   -2.5328    1.0000 </r>
       <r>   -2.3382    1.0000 </r>
       <r>   -2.3382    1.0000 </r>
       <r>   -1.7207    1.0000 </r>
       <r>   -1.7207    1.0000 </r>
       <r>   -1.5904    1.0000 </r>
       <r>   -1.5904    1.0000 </r>
       <r>   -1.5800    1.0000 </r>
       <r>   -1.5800    1.0000 </r>
       <r>   -1.3678    1.0000 </r>
       <r>   -1.3678    1.0000 </r>
       <r>   -1.3676    1.0000 </r>
       <r>   -1.3676    1.0000 </r>
       <r>   -1.3237    1.0000 </r>
       <r>   -1.3237    1.0000 </r>
       <r>   -1.0384    1.0000 </r>
       <r>   -1.0384    1.0000 </r>
       <r>   -1.0304    1.0000 </r>
       <r>   -1.0304    1.0000 </r>
       <r>   -0.7970    1.0000 </r>
       <r>   -0.7970    1.0000 </r>
       <r>   -0.7160    1.0000 </r>
       <r>   -0.7160    1.0000 </r>
       <r>   -0.7110    1.0000 </r>
       <r>   -0.7110    1.0000 </r>
       <r>   -0.3080    1.0000 </r>
       <r>   -0.3080    1.0000 </r>
       <r>   -0.2820    1.0000 </r>
       <r>   -0.2820    1.0000 </r>
       <r>   -0.2578    1.0000 </r>
       <r>   -0.2578    1.0000 </r>
       <r>   -0.2328    1.0000 </r>
       <r>   -0.2328    1.0000 </r>
       <r>   -0.2011    1.0000 </r>
       <r>   -0.2011    1.0000 </r>
       <r>    0.3024    1.0000 </r>
       <r>    0.3024    1.0000 </r>
       <r>    0.3349    1.0000 </r>
       <r>    0.3349    1.0000 </r>
       <r>    0.5800    1.0000 </r>
       <r>    0.5800    1.0000 </r>
       <r>    0.7973    1.0000 </r>
       <r>    0.7973    1.0000 </r>
       <r>    0.9692    1.0000 </r>
       <r>    0.9692    1.0000 </r>
       <r>    0.9706    1.0000 </r>
       <r>    0.9706    1.0000 </r>
       <r>    1.1375    1.0000 </r>
       <r>    1.1375    1.0000 </r>
       <r>    1.4646    1.0000 </r>
       <r>    1.4646    1.0000 </r>
       <r>    1.4668    1.0000 </r>
       <r>    1.4668    1.0000 </r>
       <r>    1.4841    1.0000 </r>
       <r>    1.4841    1.0000 </r>
       <r>    1.7361    1.0000 </r>
       <r>    1.7361    1.0000 </r>
       <r>    1.9068    1.0000 </r>
       <r>    1.9068    1.0000 </r>
       <r>    1.9093    1.0000 </r>
       <r>    1.9093    1.0000 </r>
       <r>    1.9571    1.0000 </r>
       <r>    1.9571    1.0000 </r>
       <r>    2.4641    0.4829 </r>
       <r>    2.4641    0.4829 </r>
       <r>    2.8339    0.0000 </r>
       <r>    2.8339    0.0000 </r>
       <r>    5.6076    0.0000 </r>
       <r>    5.6076    0.0000 </r>
       <r>    5.8104    0.0000 </r>
       <r>    5.8104    0.0000 </r>
       <r>    6.6756    0.0000 </r>
       <r>    6.6756    0.0000 </r>
       <r>    7.5801    0.0000 </r>
       <r>    7.5801    0.0000 </r>
       <r>    7.6761    0.0000 </r>
       <r>    7.6761    0.0000 </r>
       <r>    7.7641    0.0000 </r>
       <r>    7.7641    0.0000 </r>
       <r>    8.4888    0.0000 </r>
       <r>    8.4888    0.0000 </r>
       <r>    8.5661    0.0000 </r>
       <r>    8.5661    0.0000 </r>
       <r>    8.7252    0.0000 </r>
       <r>    8.7252    0.0000 </r>
       <r>    9.1706    0.0000 </r>
       <r>    9.1706    0.0000 </r>
       <r>    9.7083    0.0000 </r>
       <r>    9.7083    0.0000 </r>
       <r>    9.7796    0.0000 </r>
       <r>    9.7796    0.0000 </r>
       <r>    9.9775    0.0000 </r>
       <r>    9.9775    0.0000 </r>
       <r>   10.0607    0.0000 </r>
       <r>   10.0607    0.0000 </r>
      </set>
      <set comment="kpoint 8">
       <r>  -32.0945    1.0000 </r>
       <r>  -32.0945    1.0000 </r>
       <r>  -30.9965    1.0000 </r>
       <r>  -30.9965    1.0000 </r>
       <r>  -30.9964    1.0000 </r>
       <r>  -30.9964    1.0000 </r>
       <r>  -14.8678    1.0000 </r>
       <r>  -14.8678    1.0000 </r>
       <r>  -14.8668    1.0000 </r>
       <r>  -14.8668    1.0000 </r>
       <r>  -14.4563    1.0000 </r>
       <r>  -14.4563    1.0000 </r>
       <r>  -14.1568    1.0000 </r>
       <r>  -14.1568    1.0000 </r>
       <r>  -14.1380    1.0000 </r>
       <r>  -14.1380    1.0000 </r>
       <r>  -13.8903    1.0000 </r>
       <r>  -13.8903    1.0000 </r>
       <r>  -13.8080    1.0000 </r>
       <r>  -13.8080    1.0000 </r>
       <r>  -13.6660    1.0000 </r>
       <r>  -13.6660    1.0000 </r>
       <r>  -13.5054    1.0000 </r>
       <r>  -13.5054    1.0000 </r>
       <r>  -12.9605    1.0000 </r>
       <r>  -12.9605    1.0000 </r>
       <r>  -12.9542    1.0000 </r>
       <r>  -12.9542    1.0000 </r>
       <r>  -12.8106    1.0000 </r>
       <r>  -12.8106    1.0000 </r>
       <r>  -12.7982    1.0000 </r>
       <r>  -12.7982    1.0000 </r>
       <r>  -12.5461    1.0000 </r>
       <r>  -12.5461    1.0000 </r>
       <r>  -12.5304    1.0000 </r>
       <r>  -12.5304    1.0000 </r>
       <r>   -2.5593    1.0000 </r>
       <r>   -2.5593    1.0000 </r>
       <r>   -2.3690    1.0000 </r>
       <r>   -2.3690    1.0000 </r>
       <r>   -1.8110    1.0000 </r>
       <r>   -1.8110    1.0000 </r>
       <r>   -1.7944    1.0000 </r>
       <r>   -1.7944    1.0000 </r>
       <r>   -1.7287    1.0000 </r>
       <r>   -1.7287    1.0000 </r>
       <r>   -1.6684    1.0000 </r>
       <r>   -1.6684    1.0000 </r>
       <r>   -1.5766    1.0000 </r>
       <r>   -1.5766    1.0000 </r>
       <r>   -1.4728    1.0000 </r>
       <r>   -1.4728    1.0000 </r>
       <r>   -1.4641    1.0000 </r>
       <r>   -1.4641    1.0000 </r>
       <r>   -1.3222    1.0000 </r>
       <r>   -1.3222    1.0000 </r>
       <r>   -1.2184    1.0000 </r>
       <r>   -1.2184    1.0000 </r>
       <r>   -1.1900    1.0000 </r>
       <r>   -1.1900    1.0000 </r>
       <r>   -0.7068    1.0000 </r>
       <r>   -0.7068    1.0000 </r>
       <r>   -0.4680    1.0000 </r>
       <r>   -0.4680    1.0000 </r>
       <r>   -0.4545    1.0000 </r>
       <r>   -0.4545    1.0000 </r>
       <r>   -0.1436    1.0000 </r>
       <r>   -0.1436    1.0000 </r>
       <r>    0.0549    1.0000 </r>
       <r>    0.0549    1.0000 </r>
       <r>    0.0942    1.0000 </r>
       <r>    0.0942    1.0000 </r>
       <r>    0.5615    1.0000 </r>
       <r>    0.5615    1.0000 </r>
       <r>    0.7163    1.0000 </r>
       <r>    0.7163    1.0000 </r>
       <r>    0.8909    1.0000 </r>
       <r>    0.8909    1.0000 </r>
       <r>    0.9537    1.0000 </r>
       <r>    0.9537    1.0000 </r>
       <r>    1.0845    1.0000 </r>
       <r>    1.0845    1.0000 </r>
       <r>    1.0861    1.0000 </r>
       <r>    1.0861    1.0000 </r>
       <r>    1.2364    1.0000 </r>
       <r>    1.2364    1.0000 </r>
       <r>    1.2629    1.0000 </r>
       <r>    1.2629    1.0000 </r>
       <r>    1.4750    1.0000 </r>
       <r>    1.4750    1.0000 </r>
       <r>    1.5141    1.0000 </r>
       <r>    1.5141    1.0000 </r>
       <r>    1.8202    1.0000 </r>
       <r>    1.8202    1.0000 </r>
       <r>    1.8460    1.0000 </r>
       <r>    1.8460    1.0000 </r>
       <r>    2.2329    1.0000 </r>
       <r>    2.2329    1.0000 </r>
       <r>    2.4769    0.3428 </r>
       <r>    2.4769    0.3428 </r>
       <r>    2.9094    0.0000 </r>
       <r>    2.9094    0.0000 </r>
       <r>    3.1008    0.0000 </r>
       <r>    3.1008    0.0000 </r>
       <r>    5.7869    0.0000 </r>
       <r>    5.7869    0.0000 </r>
       <r>    5.8267    0.0000 </r>
       <r>    5.8267    0.0000 </r>
       <r>    6.7535    0.0000 </r>
       <r>    6.7535    0.0000 </r>
       <r>    7.1184    0.0000 </r>
       <r>    7.1184    0.0000 </r>
       <r>    7.5504    0.0000 </r>
       <r>    7.5504    0.0000 </r>
       <r>    7.9454    0.0000 </r>
       <r>    7.9454    0.0000 </r>
       <r>    8.3802    0.0000 </r>
       <r>    8.3802    0.0000 </r>
       <r>    9.1052    0.0000 </r>
       <r>    9.1052    0.0000 </r>
       <r>    9.1244    0.0000 </r>
       <r>    9.1244    0.0000 </r>
       <r>    9.3900    0.0000 </r>
       <r>    9.3900    0.0000 </r>
       <r>    9.6202    0.0000 </r>
       <r>    9.6202    0.0000 </r>
       <r>    9.9205    0.0000 </r>
       <r>    9.9205    0.0000 </r>
       <r>    9.9661    0.0000 </r>
       <r>    9.9661    0.0000 </r>
       <r>   10.2725    0.0000 </r>
       <r>   10.3034    0.0000 </r>
      </set>
      <set comment="kpoint 9">
       <r>  -32.0877    1.0000 </r>
       <r>  -32.0877    1.0000 </r>
       <r>  -30.9893    1.0000 </r>
       <r>  -30.9893    1.0000 </r>
       <r>  -30.9892    1.0000 </r>
       <r>  -30.9892    1.0000 </r>
       <r>  -14.8548    1.0000 </r>
       <r>  -14.8548    1.0000 </r>
       <r>  -14.5788    1.0000 </r>
       <r>  -14.5788    1.0000 </r>
       <r>  -14.2865    1.0000 </r>
       <r>  -14.2865    1.0000 </r>
       <r>  -14.2596    1.0000 </r>
       <r>  -14.2596    1.0000 </r>
       <r>  -14.2121    1.0000 </r>
       <r>  -14.2121    1.0000 </r>
       <r>  -14.0203    1.0000 </r>
       <r>  -14.0203    1.0000 </r>
       <r>  -13.9207    1.0000 </r>
       <r>  -13.9207    1.0000 </r>
       <r>  -13.6700    1.0000 </r>
       <r>  -13.6700    1.0000 </r>
       <r>  -13.6345    1.0000 </r>
       <r>  -13.6345    1.0000 </r>
       <r>  -13.0084    1.0000 </r>
       <r>  -13.0084    1.0000 </r>
       <r>  -13.0040    1.0000 </r>
       <r>  -13.0040    1.0000 </r>
       <r>  -12.6959    1.0000 </r>
       <r>  -12.6959    1.0000 </r>
       <r>  -12.6934    1.0000 </r>
       <r>  -12.6934    1.0000 </r>
       <r>  -12.5899    1.0000 </r>
       <r>  -12.5899    1.0000 </r>
       <r>  -12.5745    1.0000 </r>
       <r>  -12.5745    1.0000 </r>
       <r>   -2.8430    1.0000 </r>
       <r>   -2.8430    1.0000 </r>
       <r>   -2.7641    1.0000 </r>
       <r>   -2.7641    1.0000 </r>
       <r>   -2.3474    1.0000 </r>
       <r>   -2.3474    1.0000 </r>
       <r>   -2.2526    1.0000 </r>
       <r>   -2.2526    1.0000 </r>
       <r>   -2.0745    1.0000 </r>
       <r>   -2.0745    1.0000 </r>
       <r>   -2.0255    1.0000 </r>
       <r>   -2.0255    1.0000 </r>
       <r>   -1.6292    1.0000 </r>
       <r>   -1.6292    1.0000 </r>
       <r>   -1.5328    1.0000 </r>
       <r>   -1.5328    1.0000 </r>
       <r>   -1.5324    1.0000 </r>
       <r>   -1.5324    1.0000 </r>
       <r>   -1.4471    1.0000 </r>
       <r>   -1.4471    1.0000 </r>
       <r>   -1.4034    1.0000 </r>
       <r>   -1.4034    1.0000 </r>
       <r>   -1.3316    1.0000 </r>
       <r>   -1.3316    1.0000 </r>
       <r>   -0.6689    1.0000 </r>
       <r>   -0.6689    1.0000 </r>
       <r>   -0.5909    1.0000 </r>
       <r>   -0.5909    1.0000 </r>
       <r>   -0.5294    1.0000 </r>
       <r>   -0.5294    1.0000 </r>
       <r>    0.0832    1.0000 </r>
       <r>    0.0832    1.0000 </r>
       <r>    0.2314    1.0000 </r>
       <r>    0.2314    1.0000 </r>
       <r>    0.5447    1.0000 </r>
       <r>    0.5447    1.0000 </r>
       <r>    0.7039    1.0000 </r>
       <r>    0.7039    1.0000 </r>
       <r>    0.7411    1.0000 </r>
       <r>    0.7411    1.0000 </r>
       <r>    0.9547    1.0000 </r>
       <r>    0.9547    1.0000 </r>
       <r>    1.0756    1.0000 </r>
       <r>    1.0756    1.0000 </r>
       <r>    1.1566    1.0000 </r>
       <r>    1.1566    1.0000 </r>
       <r>    1.1683    1.0000 </r>
       <r>    1.1683    1.0000 </r>
       <r>    1.3679    1.0000 </r>
       <r>    1.3679    1.0000 </r>
       <r>    1.4693    1.0000 </r>
       <r>    1.4693    1.0000 </r>
       <r>    1.5509    1.0000 </r>
       <r>    1.5509    1.0000 </r>
       <r>    1.5686    1.0000 </r>
       <r>    1.5686    1.0000 </r>
       <r>    2.0250    1.0000 </r>
       <r>    2.0250    1.0000 </r>
       <r>    2.0647    1.0000 </r>
       <r>    2.0647    1.0000 </r>
       <r>    2.2327    1.0000 </r>
       <r>    2.2327    1.0000 </r>
       <r>    2.9347    0.0000 </r>
       <r>    2.9347    0.0000 </r>
       <r>    3.6206    0.0000 </r>
       <r>    3.6206    0.0000 </r>
       <r>    3.6563    0.0000 </r>
       <r>    3.6563    0.0000 </r>
       <r>    4.5981    0.0000 </r>
       <r>    4.5981    0.0000 </r>
       <r>    6.2793    0.0000 </r>
       <r>    6.2793    0.0000 </r>
       <r>    7.0921    0.0000 </r>
       <r>    7.0921    0.0000 </r>
       <r>    7.3028    0.0000 </r>
       <r>    7.3028    0.0000 </r>
       <r>    7.8436    0.0000 </r>
       <r>    7.8436    0.0000 </r>
       <r>    8.1060    0.0000 </r>
       <r>    8.1060    0.0000 </r>
       <r>    8.3968    0.0000 </r>
       <r>    8.3968    0.0000 </r>
       <r>    9.1965    0.0000 </r>
       <r>    9.1965    0.0000 </r>
       <r>    9.6223    0.0000 </r>
       <r>    9.6223    0.0000 </r>
       <r>    9.8842    0.0000 </r>
       <r>    9.8842    0.0000 </r>
       <r>    9.9594    0.0000 </r>
       <r>    9.9594    0.0000 </r>
       <r>   10.0970    0.0000 </r>
       <r>   10.0970    0.0000 </r>
       <r>   10.2685    0.0000 </r>
       <r>   10.2685    0.0000 </r>
       <r>   10.5779    0.0000 </r>
       <r>   10.5779    0.0000 </r>
      </set>
     </set>
     <set comment="spin 2">
      <set comment="kpoint 1">
       <r>  -32.0941    1.0000 </r>
       <r>  -32.0941    1.0000 </r>
       <r>  -31.0079    1.0000 </r>
       <r>  -31.0078    1.0000 </r>
       <r>  -30.9947    1.0000 </r>
       <r>  -30.9947    1.0000 </r>
       <r>  -14.8530    1.0000 </r>
       <r>  -14.7896    1.0000 </r>
       <r>  -14.7769    1.0000 </r>
       <r>  -14.7662    1.0000 </r>
       <r>  -14.5470    1.0000 </r>
       <r>  -14.3519    1.0000 </r>
       <r>  -14.1494    1.0000 </r>
       <r>  -14.0101    1.0000 </r>
       <r>  -14.0101    1.0000 </r>
       <r>  -13.9873    1.0000 </r>
       <r>  -13.9306    1.0000 </r>
       <r>  -13.9006    1.0000 </r>
       <r>  -13.7709    1.0000 </r>
       <r>  -13.6643    1.0000 </r>
       <r>  -13.6612    1.0000 </r>
       <r>  -13.5701    1.0000 </r>
       <r>  -13.5306    1.0000 </r>
       <r>  -13.3380    1.0000 </r>
       <r>  -12.9587    1.0000 </r>
       <r>  -12.9519    1.0000 </r>
       <r>  -12.9366    1.0000 </r>
       <r>  -12.9304    1.0000 </r>
       <r>  -12.9299    1.0000 </r>
       <r>  -12.9194    1.0000 </r>
       <r>  -12.8967    1.0000 </r>
       <r>  -12.8961    1.0000 </r>
       <r>  -12.6417    1.0000 </r>
       <r>  -12.6195    1.0000 </r>
       <r>  -12.5458    1.0000 </r>
       <r>  -12.5308    1.0000 </r>
       <r>   -2.5726    1.0000 </r>
       <r>   -2.4070    1.0000 </r>
       <r>   -2.4008    1.0000 </r>
       <r>   -2.2238    1.0000 </r>
       <r>   -1.9354    1.0000 </r>
       <r>   -1.7748    1.0000 </r>
       <r>   -1.6319    1.0000 </r>
       <r>   -1.6246    1.0000 </r>
       <r>   -1.5203    1.0000 </r>
       <r>   -1.5088    1.0000 </r>
       <r>   -1.4139    1.0000 </r>
       <r>   -1.4068    1.0000 </r>
       <r>   -1.3953    1.0000 </r>
       <r>   -1.3924    1.0000 </r>
       <r>   -1.3892    1.0000 </r>
       <r>   -1.0527    1.0000 </r>
       <r>   -1.0432    1.0000 </r>
       <r>   -1.0354    1.0000 </r>
       <r>   -0.9617    1.0000 </r>
       <r>   -0.9367    1.0000 </r>
       <r>   -0.7597    1.0000 </r>
       <r>   -0.7513    1.0000 </r>
       <r>   -0.7142    1.0000 </r>
       <r>   -0.5791    1.0000 </r>
       <r>   -0.5560    1.0000 </r>
       <r>   -0.5492    1.0000 </r>
       <r>   -0.3955    1.0000 </r>
       <r>   -0.3357    1.0000 </r>
       <r>   -0.3352    1.0000 </r>
       <r>   -0.3080    1.0000 </r>
       <r>   -0.2183    1.0000 </r>
       <r>   -0.1891    1.0000 </r>
       <r>   -0.1859    1.0000 </r>
       <r>   -0.0585    1.0000 </r>
       <r>   -0.0071    1.0000 </r>
       <r>    0.1310    1.0000 </r>
       <r>    0.4419    1.0000 </r>
       <r>    0.4904    1.0000 </r>
       <r>    0.5476    1.0000 </r>
       <r>    0.5646    1.0000 </r>
       <r>    0.7514    1.0000 </r>
       <r>    0.9247    1.0000 </r>
       <r>    1.0032    1.0000 </r>
       <r>    1.0206    1.0000 </r>
       <r>    1.0364    1.0000 </r>
       <r>    1.1442    1.0000 </r>
       <r>    1.1604    1.0000 </r>
       <r>    1.2020    1.0000 </r>
       <r>    1.2517    1.0000 </r>
       <r>    1.2649    1.0000 </r>
       <r>    1.2891    1.0000 </r>
       <r>    1.3159    1.0000 </r>
       <r>    1.3557    1.0000 </r>
       <r>    1.4345    1.0000 </r>
       <r>    1.4854    1.0000 </r>
       <r>    1.4978    1.0000 </r>
       <r>    1.7856    1.0000 </r>
       <r>    1.7874    1.0000 </r>
       <r>    1.8093    1.0000 </r>
       <r>    1.8991    1.0000 </r>
       <r>    2.0560    1.0000 </r>
       <r>    2.0612    1.0000 </r>
       <r>    2.0683    1.0000 </r>
       <r>    2.3347    0.9999 </r>
       <r>    2.3517    0.9991 </r>
       <r>    2.3828    0.9880 </r>
       <r>    3.1660    0.0000 </r>
       <r>    3.2879    0.0000 </r>
       <r>    4.8418    0.0000 </r>
       <r>    5.0947    0.0000 </r>
       <r>    5.9035    0.0000 </r>
       <r>    5.9608    0.0000 </r>
       <r>    7.2610    0.0000 </r>
       <r>    7.4892    0.0000 </r>
       <r>    7.6100    0.0000 </r>
       <r>    7.7280    0.0000 </r>
       <r>    7.8229    0.0000 </r>
       <r>    7.8725    0.0000 </r>
       <r>    7.8915    0.0000 </r>
       <r>    7.9468    0.0000 </r>
       <r>    8.2542    0.0000 </r>
       <r>    8.4245    0.0000 </r>
       <r>    8.6539    0.0000 </r>
       <r>    8.7574    0.0000 </r>
       <r>    8.8674    0.0000 </r>
[...]
       <r>     3.3350     0.8447   102.3230 </r>
       <r>     3.4915     1.7696   102.6000 </r>
       <r>     3.6480     4.4268   103.2930 </r>
       <r>     3.8046     3.9189   103.9064 </r>
       <r>     3.9611     0.5969   103.9998 </r>
       <r>     4.1176     0.3764   104.0588 </r>
       <r>     4.2742     0.9968   104.2148 </r>
       <r>     4.4307     2.4366   104.5962 </r>
       <r>     4.5873     0.5095   104.6760 </r>
       <r>     4.7438     0.8489   104.8089 </r>
       <r>     4.9003     0.2628   104.8500 </r>
       <r>     5.0569     0.2688   104.8921 </r>
       <r>     5.2134     1.8606   105.1833 </r>
       <r>     5.3699     1.8304   105.4698 </r>
       <r>     5.5265     3.8944   106.0795 </r>
       <r>     5.6830     3.3053   106.5969 </r>
       <r>     5.8395     3.3990   107.1289 </r>
       <r>     5.9961     4.1116   107.7725 </r>
       <r>     6.1526     0.1758   107.8000 </r>
       <r>     6.3091     1.0233   107.9602 </r>
       <r>     6.4657     0.2542   108.0000 </r>
       <r>     6.6222     0.0420   108.0066 </r>
       <r>     6.7787     1.5699   108.2523 </r>
       <r>     6.9353     0.3661   108.3096 </r>
       <r>     7.0918     4.7236   109.0490 </r>
       <r>     7.2484     5.0246   109.8356 </r>
       <r>     7.4049     3.0339   110.3105 </r>
       <r>     7.5614     6.5105   111.3296 </r>
       <r>     7.7180     7.0363   112.4310 </r>
       <r>     7.8745     5.5232   113.2956 </r>
       <r>     8.0310     4.0416   113.9283 </r>
       <r>     8.1876     5.9487   114.8594 </r>
       <r>     8.3441     6.8803   115.9364 </r>
       <r>     8.5006     5.1820   116.7476 </r>
       <r>     8.6572     7.1141   117.8612 </r>
       <r>     8.8137     6.2393   118.8379 </r>
       <r>     8.9702     5.9316   119.7664 </r>
       <r>     9.1268     4.7723   120.5134 </r>
       <r>     9.2833     9.9407   122.0695 </r>
       <r>     9.4399     6.3401   123.0619 </r>
       <r>     9.5964     6.6637   124.1051 </r>
       <r>     9.7529    11.3466   125.8812 </r>
       <r>     9.9095    10.9440   127.5943 </r>
       <r>    10.0660    13.4898   129.7060 </r>
       <r>    10.2225     6.1454   130.6679 </r>
       <r>    10.3791     5.9050   131.5923 </r>
       <r>    10.5356     0.5720   131.6818 </r>
       <r>    10.6921     2.0319   131.9999 </r>
       <r>    10.8487     0.0009   132.0000 </r>
       <r>    11.0052     0.0000   132.0000 </r>
       <r>    11.1617     0.0000   132.0000 </r>
       <r>    11.3183     0.0000   132.0000 </r>
       <r>    11.4748     0.0000   132.0000 </r>
       <r>    11.6313     0.0000   132.0000 </r>
       <r>    11.7879     0.0000   132.0000 </r>
       <r>    11.9444     0.0000   132.0000 </r>
       <r>    12.1010     0.0000   132.0000 </r>
       <r>    12.2575     0.0000   132.0000 </r>
       <r>    12.4140     0.0000   132.0000 </r>
       <r>    12.5706     0.0000   132.0000 </r>
       <r>    12.7271     0.0000   132.0000 </r>
      </set>
      <set comment="spin 2">
       <r>   -34.2335     0.0000     0.0000 </r>
       <r>   -34.0770     0.0000     0.0000 </r>
       <r>   -33.9204     0.0000     0.0000 </r>
       <r>   -33.7639     0.0000     0.0000 </r>
       <r>   -33.6074     0.0000     0.0000 </r>
       <r>   -33.4508     0.0000     0.0000 </r>
       <r>   -33.2943     0.0000     0.0000 </r>
       <r>   -33.1378     0.0000     0.0000 </r>
       <r>   -32.9812     0.0000     0.0000 </r>
       <r>   -32.8247     0.0000     0.0000 </r>
       <r>   -32.6682     0.0000     0.0000 </r>
       <r>   -32.5116     0.0000     0.0000 </r>
       <r>   -32.3551     0.0000     0.0000 </r>
       <r>   -32.1986     0.0121     0.0019 </r>
       <r>   -32.0420    11.5030     1.8025 </r>
       <r>   -31.8855     1.2615     2.0000 </r>
       <r>   -31.7289     0.0000     2.0000 </r>
       <r>   -31.5724     0.0000     2.0000 </r>
       <r>   -31.4159     0.0000     2.0000 </r>
       <r>   -31.2593     0.0000     2.0000 </r>
       <r>   -31.1028     0.0333     2.0052 </r>
       <r>   -30.9463    23.2445     5.6438 </r>
       <r>   -30.7897     2.2755     6.0000 </r>
       <r>   -30.6332     0.0000     6.0000 </r>
       <r>   -30.4767     0.0000     6.0000 </r>
       <r>   -30.3201     0.0000     6.0000 </r>
       <r>   -30.1636     0.0000     6.0000 </r>
       <r>   -30.0071     0.0000     6.0000 </r>
       <r>   -29.8505     0.0000     6.0000 </r>
       <r>   -29.6940     0.0000     6.0000 </r>
       <r>   -29.5374     0.0000     6.0000 </r>
       <r>   -29.3809     0.0000     6.0000 </r>
       <r>   -29.2244     0.0000     6.0000 </r>
       <r>   -29.0678     0.0000     6.0000 </r>
       <r>   -28.9113     0.0000     6.0000 </r>
       <r>   -28.7548     0.0000     6.0000 </r>
       <r>   -28.5982     0.0000     6.0000 </r>
       <r>   -28.4417     0.0000     6.0000 </r>
       <r>   -28.2852     0.0000     6.0000 </r>
       <r>   -28.1286     0.0000     6.0000 </r>
       <r>   -27.9721     0.0000     6.0000 </r>
       <r>   -27.8156     0.0000     6.0000 </r>
       <r>   -27.6590     0.0000     6.0000 </r>
       <r>   -27.5025     0.0000     6.0000 </r>
       <r>   -27.3460     0.0000     6.0000 </r>
       <r>   -27.1894     0.0000     6.0000 </r>
       <r>   -27.0329     0.0000     6.0000 </r>
       <r>   -26.8763     0.0000     6.0000 </r>
       <r>   -26.7198     0.0000     6.0000 </r>
       <r>   -26.5633     0.0000     6.0000 </r>
       <r>   -26.4067     0.0000     6.0000 </r>
       <r>   -26.2502     0.0000     6.0000 </r>
       <r>   -26.0937     0.0000     6.0000 </r>
       <r>   -25.9371     0.0000     6.0000 </r>
       <r>   -25.7806     0.0000     6.0000 </r>
       <r>   -25.6241     0.0000     6.0000 </r>
       <r>   -25.4675     0.0000     6.0000 </r>
       <r>   -25.3110     0.0000     6.0000 </r>
       <r>   -25.1545     0.0000     6.0000 </r>
       <r>   -24.9979     0.0000     6.0000 </r>
       <r>   -24.8414     0.0000     6.0000 </r>
       <r>   -24.6849     0.0000     6.0000 </r>
       <r>   -24.5283     0.0000     6.0000 </r>
       <r>   -24.3718     0.0000     6.0000 </r>
       <r>   -24.2152     0.0000     6.0000 </r>
       <r>   -24.0587     0.0000     6.0000 </r>
       <r>   -23.9022     0.0000     6.0000 </r>
       <r>   -23.7456     0.0000     6.0000 </r>
       <r>   -23.5891     0.0000     6.0000 </r>
       <r>   -23.4326     0.0000     6.0000 </r>
       <r>   -23.2760     0.0000     6.0000 </r>
       <r>   -23.1195     0.0000     6.0000 </r>
       <r>   -22.9630     0.0000     6.0000 </r>
       <r>   -22.8064     0.0000     6.0000 </r>
       <r>   -22.6499     0.0000     6.0000 </r>
       <r>   -22.4934     0.0000     6.0000 </r>
       <r>   -22.3368     0.0000     6.0000 </r>
       <r>   -22.1803     0.0000     6.0000 </r>
       <r>   -22.0238     0.0000     6.0000 </r>
       <r>   -21.8672     0.0000     6.0000 </r>
       <r>   -21.7107     0.0000     6.0000 </r>
       <r>   -21.5541     0.0000     6.0000 </r>
       <r>   -21.3976     0.0000     6.0000 </r>
       <r>   -21.2411     0.0000     6.0000 </r>
       <r>   -21.0845     0.0000     6.0000 </r>
       <r>   -20.9280     0.0000     6.0000 </r>
       <r>   -20.7715     0.0000     6.0000 </r>
       <r>   -20.6149     0.0000     6.0000 </r>
       <r>   -20.4584     0.0000     6.0000 </r>
       <r>   -20.3019     0.0000     6.0000 </r>
       <r>   -20.1453     0.0000     6.0000 </r>
       <r>   -19.9888     0.0000     6.0000 </r>
       <r>   -19.8323     0.0000     6.0000 </r>
       <r>   -19.6757     0.0000     6.0000 </r>
       <r>   -19.5192     0.0000     6.0000 </r>
       <r>   -19.3627     0.0000     6.0000 </r>
       <r>   -19.2061     0.0000     6.0000 </r>
       <r>   -19.0496     0.0000     6.0000 </r>
       <r>   -18.8930     0.0000     6.0000 </r>
       <r>   -18.7365     0.0000     6.0000 </r>
       <r>   -18.5800     0.0000     6.0000 </r>
       <r>   -18.4234     0.0000     6.0000 </r>
       <r>   -18.2669     0.0000     6.0000 </r>
       <r>   -18.1104     0.0000     6.0000 </r>
       <r>   -17.9538     0.0000     6.0000 </r>
       <r>   -17.7973     0.0000     6.0000 </r>
       <r>   -17.6408     0.0000     6.0000 </r>
       <r>   -17.4842     0.0000     6.0000 </r>
       <r>   -17.3277     0.0000     6.0000 </r>
       <r>   -17.1712     0.0000     6.0000 </r>
       <r>   -17.0146     0.0000     6.0000 </r>
       <r>   -16.8581     0.0000     6.0000 </r>
       <r>   -16.7016     0.0000     6.0000 </r>
       <r>   -16.5450     0.0000     6.0000 </r>
       <r>   -16.3885     0.0000     6.0000 </r>
       <r>   -16.2319     0.0000     6.0000 </r>
       <r>   -16.0754     0.0000     6.0000 </r>
       <r>   -15.9189     0.0000     6.0000 </r>
       <r>   -15.7623     0.0000     6.0000 </r>
       <r>   -15.6058     0.0000     6.0000 </r>
       <r>   -15.4493     0.0000     6.0000 </r>
       <r>   -15.2927     0.0000     6.0000 </r>
       <r>   -15.1362     0.0000     6.0000 </r>
       <r>   -14.9797     0.2342     6.0367 </r>
       <r>   -14.8231    11.2885     7.8037 </r>
       <r>   -14.6666     8.7709     9.1767 </r>
       <r>   -14.5101     4.3085     9.8511 </r>
       <r>   -14.3535     6.5162    10.8711 </r>
       <r>   -14.1970    12.8841    12.8879 </r>
       <r>   -14.0405    14.1543    15.1036 </r>
       <r>   -13.8839    13.8061    17.2647 </r>
       <r>   -13.7274    13.9441    19.4475 </r>
       <r>   -13.5708    13.7488    21.5996 </r>
       <r>   -13.4143    12.4719    23.5519 </r>
       <r>   -13.2578     2.8585    23.9994 </r>
       <r>   -13.1012     0.1084    24.0163 </r>
       <r>   -12.9447    21.1949    27.3341 </r>
       <r>   -12.7882    21.0734    30.6328 </r>
       <r>   -12.6316    15.9427    33.1284 </r>
       <r>   -12.4751    17.3700    35.8475 </r>
       <r>   -12.3186     0.9745    36.0000 </r>
       <r>   -12.1620     0.0000    36.0000 </r>
       <r>   -12.0055     0.0000    36.0000 </r>
       <r>   -11.8490     0.0000    36.0000 </r>
       <r>   -11.6924     0.0000    36.0000 </r>
       <r>   -11.5359     0.0000    36.0000 </r>
       <r>   -11.3794     0.0000    36.0000 </r>
       <r>   -11.2228     0.0000    36.0000 </r>
       <r>   -11.0663     0.0000    36.0000 </r>
       <r>   -10.9097     0.0000    36.0000 </r>
       <r>   -10.7532     0.0000    36.0000 </r>
       <r>   -10.5967     0.0000    36.0000 </r>
       <r>   -10.4401     0.0000    36.0000 </r>
       <r>   -10.2836     0.0000    36.0000 </r>
       <r>   -10.1271     0.0000    36.0000 </r>
       <r>    -9.9705     0.0000    36.0000 </r>
       <r>    -9.8140     0.0000    36.0000 </r>
       <r>    -9.6575     0.0000    36.0000 </r>
       <r>    -9.5009     0.0000    36.0000 </r>
       <r>    -9.3444     0.0000    36.0000 </r>
       <r>    -9.1879     0.0000    36.0000 </r>
       <r>    -9.0313     0.0000    36.0000 </r>
       <r>    -8.8748     0.0000    36.0000 </r>
       <r>    -8.7182     0.0000    36.0000 </r>
       <r>    -8.5617     0.0000    36.0000 </r>
       <r>    -8.4052     0.0000    36.0000 </r>
       <r>    -8.2486     0.0000    36.0000 </r>
       <r>    -8.0921     0.0000    36.0000 </r>
       <r>    -7.9356     0.0000    36.0000 </r>
       <r>    -7.7790     0.0000    36.0000 </r>
       <r>    -7.6225     0.0000    36.0000 </r>
       <r>    -7.4660     0.0000    36.0000 </r>
       <r>    -7.3094     0.0000    36.0000 </r>
       <r>    -7.1529     0.0000    36.0000 </r>
       <r>    -6.9964     0.0000    36.0000 </r>
       <r>    -6.8398     0.0000    36.0000 </r>
       <r>    -6.6833     0.0000    36.0000 </r>
       <r>    -6.5268     0.0000    36.0000 </r>
       <r>    -6.3702     0.0000    36.0000 </r>
       <r>    -6.2137     0.0000    36.0000 </r>
       <r>    -6.0571     0.0000    36.0000 </r>
       <r>    -5.9006     0.0000    36.0000 </r>
       <r>    -5.7441     0.0000    36.0000 </r>
       <r>    -5.5875     0.0000    36.0000 </r>
       <r>    -5.4310     0.0000    36.0000 </r>
       <r>    -5.2745     0.0000    36.0000 </r>
       <r>    -5.1179     0.0000    36.0000 </r>
       <r>    -4.9614     0.0000    36.0000 </r>
       <r>    -4.8049     0.0000    36.0000 </r>
       <r>    -4.6483     0.0000    36.0000 </r>
       <r>    -4.4918     0.0000    36.0000 </r>
       <r>    -4.3353     0.0000    36.0000 </r>
       <r>    -4.1787     0.0000    36.0000 </r>
       <r>    -4.0222     0.0000    36.0000 </r>
       <r>    -3.8657     0.0000    36.0000 </r>
       <r>    -3.7091     0.0000    36.0000 </r>
       <r>    -3.5526     0.0000    36.0000 </r>
       <r>    -3.3960     0.0000    36.0000 </r>
       <r>    -3.2395     0.0000    36.0000 </r>
       <r>    -3.0830     0.0000    36.0000 </r>
       <r>    -2.9264     0.2512    36.0393 </r>
       <r>    -2.7699     4.4608    36.7376 </r>
       <r>    -2.6134     4.3856    37.4241 </r>
       <r>    -2.4568     6.3470    38.4176 </r>
       <r>    -2.3003     8.3448    39.7239 </r>
       <r>    -2.1438    11.5941    41.5388 </r>
       <r>    -1.9872     3.5921    42.1010 </r>
       <r>    -1.8307     7.5273    43.2793 </r>
       <r>    -1.6742    14.9251    45.6156 </r>
       <r>    -1.5176    26.1438    49.7081 </r>
       <r>    -1.3611    30.3700    54.4621 </r>
       <r>    -1.2046    11.6222    56.2813 </r>
       <r>    -1.0480    13.4378    58.3848 </r>
       <r>    -0.8915     5.1480    59.1907 </r>
       <r>    -0.7349     3.1211    59.6792 </r>
       <r>    -0.5784    13.7711    61.8349 </r>
       <r>    -0.4219    19.4881    64.8855 </r>
       <r>    -0.2653     6.7687    65.9450 </r>
       <r>    -0.1088    10.2450    67.5487 </r>
       <r>     0.0477     6.4627    68.5604 </r>
       <r>     0.2043    10.4148    70.1906 </r>
       <r>     0.3608     5.2182    71.0075 </r>
       <r>     0.5173     8.5051    72.3388 </r>
       <r>     0.6739    10.9624    74.0548 </r>
       <r>     0.8304    13.1251    76.1094 </r>
       <r>     0.9869    11.0524    77.8395 </r>
       <r>     1.1435    22.2690    81.3253 </r>
       <r>     1.3000    22.0798    84.7816 </r>
       <r>     1.4565    16.2830    87.3305 </r>
       <r>     1.6131    16.4844    89.9109 </r>
       <r>     1.7696     9.1141    91.3375 </r>
       <r>     1.9262    12.9893    93.3708 </r>
       <r>     2.0827    11.6847    95.1999 </r>
       <r>     2.2392     9.1564    96.6332 </r>
       <r>     2.3958    10.0127    98.2005 </r>
       <r>     2.5523     7.0073    99.2974 </r>
       <r>     2.7088     3.6685    99.8717 </r>
       <r>     2.8654     3.4595   100.4132 </r>
       <r>     3.0219     5.2863   101.2407 </r>
       <r>     3.1784     2.6493   101.6554 </r>
       <r>     3.3350     4.0852   102.2949 </r>
       <r>     3.4915     1.0564   102.4602 </r>
       <r>     3.6480     2.3824   102.8332 </r>
       <r>     3.8046     6.1738   103.7996 </r>
       <r>     3.9611     1.1095   103.9733 </r>
       <r>     4.1176     0.1783   104.0012 </r>
       <r>     4.2742     1.1530   104.1817 </r>
       <r>     4.4307     1.5711   104.4276 </r>
       <r>     4.5873     1.1044   104.6005 </r>
       <r>     4.7438     1.2066   104.7894 </r>
       <r>     4.9003     0.3718   104.8476 </r>
       <r>     5.0569     0.0612   104.8571 </r>
       <r>     5.2134     1.2703   105.0560 </r>
       <r>     5.3699     1.5636   105.3007 </r>
       <r>     5.5265     2.8063   105.7400 </r>
       <r>     5.6830     4.9952   106.5219 </r>
       <r>     5.8395     1.4504   106.7490 </r>
       <r>     5.9961     5.4437   107.6011 </r>
       <r>     6.1526     1.2705   107.8000 </r>
       <r>     6.3091     0.2657   107.8416 </r>
       <r>     6.4657     1.0118   108.0000 </r>
       <r>     6.6222     0.0143   108.0022 </r>
       <r>     6.7787     1.0964   108.1738 </r>
       <r>     6.9353     0.8109   108.3008 </r>
       <r>     7.0918     3.6378   108.8702 </r>
       <r>     7.2484     4.7783   109.6182 </r>
       <r>     7.4049     4.0029   110.2448 </r>
       <r>     7.5614     5.7205   111.1403 </r>
       <r>     7.7180     6.8222   112.2082 </r>
       <r>     7.8745     5.6451   113.0918 </r>
       <r>     8.0310     4.7256   113.8316 </r>
       <r>     8.1876     5.6283   114.7126 </r>
       <r>     8.3441     6.9604   115.8021 </r>
       <r>     8.5006     5.6310   116.6836 </r>
       <r>     8.6572     6.2971   117.6693 </r>
       <r>     8.8137     6.9884   118.7632 </r>
       <r>     8.9702     5.9404   119.6931 </r>
       <r>     9.1268     4.1085   120.3363 </r>
       <r>     9.2833    10.6005   121.9956 </r>
       <r>     9.4399     5.8653   122.9137 </r>
       <r>     9.5964     6.9541   124.0023 </r>
       <r>     9.7529    11.0824   125.7371 </r>
       <r>     9.9095    10.6968   127.4115 </r>
       <r>    10.0660    14.0111   129.6047 </r>
       <r>    10.2225     6.4238   130.6103 </r>
       <r>    10.3791     6.2427   131.5875 </r>
       <r>    10.5356     0.4508   131.6581 </r>
       <r>    10.6921     2.1812   131.9995 </r>
       <r>    10.8487     0.0032   132.0000 </r>
       <r>    11.0052     0.0000   132.0000 </r>
       <r>    11.1617     0.0000   132.0000 </r>
       <r>    11.3183     0.0000   132.0000 </r>
       <r>    11.4748     0.0000   132.0000 </r>
       <r>    11.6313     0.0000   132.0000 </r>
       <r>    11.7879     0.0000   132.0000 </r>
       <r>    11.9444     0.0000   132.0000 </r>
       <r>    12.1010     0.0000   132.0000 </r>
       <r>    12.2575     0.0000   132.0000 </r>
       <r>    12.4140     0.0000   132.0000 </r>
       <r>    12.5706     0.0000   132.0000 </r>
       <r>    12.7271     0.0000   132.0000 </r>
      </set>
     </set>
    </array>
   </total>
  </dos>
 </calculation>
 <structure name="finalpos" >
  <crystal>
   <varray name="basis" >
    <v>       4.00000000       0.00000000       0.00000000 </v>
    <v>       0.00000000      16.97056275       0.00000000 </v>
    <v>       0.00000000       0.00000000       5.65685425 </v>
   </varray>
   <i name="volume">    384.00000000 </i>
   <varray name="rec_basis" >
    <v>       0.25000000       0.00000000       0.00000000 </v>
    <v>       0.00000000       0.05892557       0.00000000 </v>
    <v>       0.00000000       0.00000000       0.17677670 </v>
   </varray>
  </crystal>
  <varray name="positions" >
   <v>       0.00000000       0.00000000       0.00000000 </v>
   <v>       0.00000000       0.16666667       0.50000000 </v>
   <v>       0.00000000       0.33333333       0.00000000 </v>
   <v>       0.00000000       0.50000000       0.50000000 </v>
   <v>       0.00000000       0.66666667       0.00000000 </v>
   <v>       0.00000000       0.83333333       0.50000000 </v>
   <v>       0.50000000       0.00000000       0.50000000 </v>
   <v>       0.50000000       0.16666667       0.00000000 </v>
   <v>       0.50000000       0.33333333       0.50000000 </v>
   <v>       0.50000000       0.50000000       0.00000000 </v>
   <v>       0.50000000       0.66666667       0.50000000 </v>
   <v>       0.50000000       0.83333333       0.00000000 </v>
   <v>       0.50000000       0.08333333       0.25000000 </v>
   <v>       0.50000000       0.25000000       0.75000000 </v>
   <v>       0.00000000       0.16666667       0.00000000 </v>
   <v>       0.00000000       0.33333333       0.50000000 </v>
   <v>       0.50000000       0.25000000       0.25000000 </v>
   <v>       0.50000000       0.41666667       0.75000000 </v>
   <v>       0.50000000       0.58333333       0.75000000 </v>
   <v>       0.50000000       0.75000000       0.25000000 </v>
   <v>       0.00000000       0.66666667       0.50000000 </v>
   <v>       0.00000000       0.83333333       0.00000000 </v>
   <v>       0.50000000       0.75000000       0.75000000 </v>
   <v>       0.50000000       0.91666667       0.25000000 </v>
  </varray>
 </structure>
</modeling>
