<?xml version="1.0" encoding="ISO-8859-1"?>
<modeling>
 <generator>
  <i name="program" type="string">vasp </i>
  <i name="version" type="string">5.3.5  </i>
  <i name="subversion" type="string">31Mar14 (build Jun 20 2014 13:15:13) complex                          parallel </i>
  <i name="platform" type="string">LinuxIFC </i>
  <i name="date" type="string">2025 12 16 </i>
  <i name="time" type="string">15:54:24 </i>
 </generator>
 <incar>
  <i type="string" name="PREC">accurate</i>
  <i type="int" name="IALGO">    68</i>
  <i type="logical" name="ADDGRID"> T  </i>
  <i type="int" name="NELM">   100</i>
  <i type="int" name="NELMIN">     4</i>
  <i type="int" name="IBRION">     2</i>
  <i name="EDIFF">      0.00000100</i>
  <i name="EDIFFG">     -0.02000000</i>
  <i type="int" name="NSW">    30</i>
  <i type="int" name="ISIF">     3</i>
  <i name="ENCUT">    600.00000000</i>
  <i type="logical" name="LREAL"> F  </i>
  <i type="int" name="ISMEAR">     0</i>
  <i name="SIGMA">      0.10000000</i>
  <i type="logical" name="LWAVE"> F  </i>
  <i type="logical" name="LCHARG"> F  </i>
  <i type="int" name="NELM">   100</i>
 </incar>
 <kpoints>
  <generation param="Auto">
   <i name="subdivisionlength">     20.00000000 </i>
   <v type="int" name="divisions">       2        6        4 </v>
   <v name="usershift">      0.00000000       0.00000000       0.00000000 </v>
   <v name="genvec1">      0.50000000       0.00000000       0.00000000 </v>
   <v name="genvec2">      0.00000000       0.16666667       0.00000000 </v>
   <v name="genvec3">      0.00000000       0.00000000       0.25000000 </v>
   <v name="shift">      0.00000000       0.00000000       0.00000000 </v>
  </generation>
  <varray name="kpointlist" >
   <v>       0.00000000       0.00000000       0.00000000 </v>
   <v>       0.50000000       0.00000000       0.00000000 </v>
   <v>       0.00000000       0.16666667       0.00000000 </v>
   <v>       0.50000000       0.16666667       0.00000000 </v>
   <v>       0.00000000       0.33333333       0.00000000 </v>
   <v>       0.50000000       0.33333333       0.00000000 </v>
   <v>       0.00000000       0.50000000       0.00000000 </v>
   <v>       0.50000000       0.50000000       0.00000000 </v>
   <v>       0.00000000       0.00000000       0.25000000 </v>
   <v>       0.50000000       0.00000000       0.25000000 </v>
   <v>       0.00000000       0.16666667       0.25000000 </v>
   <v>       0.50000000       0.16666667       0.25000000 </v>
   <v>       0.00000000       0.33333333       0.25000000 </v>
   <v>       0.50000000       0.33333333       0.25000000 </v>
   <v>       0.00000000       0.50000000       0.25000000 </v>
   <v>       0.50000000       0.50000000       0.25000000 </v>
   <v>       0.00000000       0.00000000       0.50000000 </v>
   <v>       0.50000000       0.00000000       0.50000000 </v>
   <v>       0.00000000       0.16666667       0.50000000 </v>
   <v>       0.50000000       0.16666667       0.50000000 </v>
   <v>       0.00000000       0.33333333       0.50000000 </v>
   <v>       0.50000000       0.33333333       0.50000000 </v>
   <v>       0.00000000       0.50000000       0.50000000 </v>
   <v>       0.50000000       0.50000000       0.50000000 </v>
  </varray>
  <varray name="weights" >
   <v>       0.02083333 </v>
   <v>       0.02083333 </v>
   <v>       0.04166667 </v>
   <v>       0.04166667 </v>
   <v>       0.04166667 </v>
   <v>       0.04166667 </v>
   <v>       0.02083333 </v>
   <v>       0.02083333 </v>
   <v>       0.04166667 </v>
   <v>       0.04166667 </v>
   <v>       0.08333333 </v>
   <v>       0.08333333 </v>
   <v>       0.08333333 </v>
   <v>       0.08333333 </v>
   <v>       0.04166667 </v>
   <v>       0.04166667 </v>
   <v>       0.02083333 </v>
   <v>       0.02083333 </v>
   <v>       0.04166667 </v>
   <v>       0.04166667 </v>
   <v>       0.04166667 </v>
   <v>       0.04166667 </v>
   <v>       0.02083333 </v>
   <v>       0.02083333 </v>
  </varray>
 </kpoints>
 <parameters>
  <separator name="general" >
   <i type="string" name="SYSTEM">unknown system</i>
   <i type="logical" name="LCOMPAT"> F  </i>
  </separator>
  <separator name="electronic" >
   <i type="string" name="PREC">accura</i>
   <i name="ENMAX">    600.00000000</i>
   <i name="ENAUG">    644.87300000</i>
   <i name="EDIFF">      0.00000100</i>
   <i type="int" name="IALGO">    68</i>
   <i type="int" name="IWAVPR">    11</i>
   <i type="int" name="NBANDS">    44</i>
   <i name="NELECT">     64.00000000</i>
   <i type="int" name="TURBO">     0</i>
   <i type="int" name="IRESTART">     0</i>
   <i type="int" name="NREBOOT">     0</i>
   <i type="int" name="NMIN">     0</i>
   <i name="EREF">      0.00000000</i>
   <separator name="electronic smearing" >
    <i type="int" name="ISMEAR">     0</i>
    <i name="SIGMA">      0.10000000</i>
    <i name="KSPACING">      0.50000000</i>
    <i type="logical" name="KGAMMA"> T  </i>
   </separator>
   <separator name="electronic projectors" >
    <i type="logical" name="LREAL"> F  </i>
    <v name="ROPT">      0.00000000      0.00000000      0.00000000      0.00000000</v>
    <i type="int" name="LMAXPAW">  -100</i>
    <i type="int" name="LMAXMIX">     2</i>
    <i type="logical" name="NLSPLINE"> F  </i>
   </separator>
   <separator name="electronic startup" >
    <i type="int" name="ISTART">     0</i>
    <i type="int" name="ICHARG">     2</i>
    <i type="int" name="INIWAV">     1</i>
   </separator>
   <separator name="electronic spin" >
    <i type="int" name="ISPIN">     1</i>
    <i type="logical" name="LNONCOLLINEAR"> F  </i>
    <v name="MAGMOM">      1.00000000      1.00000000      1.00000000      1.00000000      1.00000000      1.00000000      1.00000000      1.00000000      1.00000000      1.00000000      1.00000000      1.00000000      1.00000000      1.00000000      1.00000000      1.00000000</v>
    <i name="NUPDOWN">     -1.00000000</i>
    <i type="logical" name="LSORBIT"> F  </i>
    <v name="SAXIS">      0.00000000      0.00000000      1.00000000</v>
    <i type="logical" name="LSPIRAL"> F  </i>
    <v name="QSPIRAL">      0.00000000      0.00000000      0.00000000</v>
    <i type="logical" name="LZEROZ"> F  </i>
   </separator>
   <separator name="electronic exchange-correlation" >
    <i type="logical" name="LASPH"> F  </i>
    <i type="logical" name="LMETAGGA"> F  </i>
   </separator>
   <separator name="electronic convergence" >
    <i type="int" name="NELM">   100</i>
    <i type="int" name="NELMDL">     0</i>
    <i type="int" name="NELMIN">     4</i>
    <i name="ENINI">    600.00000000</i>
    <separator name="electronic convergence detail" >
     <i type="logical" name="LDIAG"> T  </i>
     <i type="logical" name="LSUBROT"> F  </i>
     <i name="WEIMIN">      0.00100000</i>
     <i name="EBREAK">      0.00000001</i>
     <i name="DEPER">      0.30000000</i>
     <i type="int" name="NRMM">     4</i>
     <i name="TIME">      0.40000000</i>
    </separator>
   </separator>
   <separator name="electronic mixer" >
    <i name="AMIX">      0.40000000</i>
    <i name="BMIX">      1.00000000</i>
    <i name="AMIN">      0.10000000</i>
    <i name="AMIX_MAG">      1.60000000</i>
    <i name="BMIX_MAG">      1.00000000</i>
    <separator name="electronic mixer details" >
     <i type="int" name="IMIX">     4</i>
     <i type="int" name="MAXMIX">   -45</i>
     <i name="WC">    100.00000000</i>
     <i type="int" name="INIMIX">     1</i>
     <i type="int" name="MIXPRE">     1</i>
     <i type="int" name="MREMOVE">     5</i>
    </separator>
   </separator>
   <separator name="electronic dipolcorrection" >
    <i type="logical" name="LDIPOL"> F  </i>
    <i type="logical" name="LMONO"> F  </i>
    <i type="int" name="IDIPOL">     0</i>
    <i name="EPSILON">      1.00000000</i>
    <v name="DIPOL">   -100.00000000   -100.00000000   -100.00000000</v>
    <i name="EFIELD">      0.00000000</i>
   </separator>
  </separator>
  <separator name="grids" >
   <i type="int" name="NGX">    96</i>
   <i type="int" name="NGY">    28</i>
   <i type="int" name="NGZ">    48</i>
   <i type="int" name="NGXF">   192</i>
   <i type="int" name="NGYF">    56</i>
   <i type="int" name="NGZF">    96</i>
   <i type="logical" name="ADDGRID"> T  </i>
  </separator>
  <separator name="ionic" >
   <i type="int" name="NSW">    30</i>
   <i type="int" name="IBRION">     2</i>
   <i type="int" name="ISIF">     3</i>
   <i name="PSTRESS">      0.00000000</i>
   <i name="EDIFFG">     -0.02000000</i>
   <i type="int" name="NFREE">     1</i>
   <i name="POTIM">      0.50000000</i>
   <i name="SMASS">     -3.00000000</i>
   <i name="SCALEE">      1.00000000</i>
  </separator>
  <separator name="ionic md" >
   <i name="TEBEG">      0.00010000</i>
   <i name="TEEND">      0.00010000</i>
   <i type="int" name="NBLOCK">     1</i>
   <i type="int" name="KBLOCK">    30</i>
   <i type="int" name="NPACO">   256</i>
   <i name="APACO">     16.00000000</i>
  </separator>
  <separator name="symmetry" >
   <i type="int" name="ISYM">     2</i>
   <i name="SYMPREC">      0.00001000</i>
  </separator>
  <separator name="dos" >
   <i type="logical" name="LORBIT"> F  </i>
   <v name="RWIGS">     -1.00000000     -1.00000000     -1.00000000     -1.00000000</v>
   <i type="int" name="NEDOS">   301</i>
   <i name="EMIN">     10.00000000</i>
   <i name="EMAX">    -10.00000000</i>
   <i name="EFERMI">      0.00000000</i>
  </separator>
  <separator name="writing" >
   <i type="int" name="NWRITE">     2</i>
   <i type="logical" name="LWAVE"> F  </i>
   <i type="logical" name="LCHARG"> F  </i>
   <i type="logical" name="LPARD"> F  </i>
   <i type="logical" name="LVTOT"> F  </i>
   <i type="logical" name="LVHAR"> F  </i>
   <i type="logical" name="LELF"> F  </i>
   <i type="logical" name="LOPTICS"> F  </i>
   <v name="STM">      0.00000000      0.00000000      0.00000000      0.00000000      0.00000000      0.00000000      0.00000000</v>
  </separator>
  <separator name="performance" >
   <i type="int" name="NPAR">     4</i>
   <i type="int" name="NSIM">     4</i>
   <i type="int" name="NBLK">    -1</i>
   <i type="logical" name="LPLANE"> T  </i>
   <i type="logical" name="LSCALAPACK"> T  </i>
   <i type="logical" name="LSCAAWARE"> F  </i>
   <i type="logical" name="LSCALU"> F  </i>
   <i type="logical" name="LASYNC"> F  </i>
   <i type="logical" name="LORBITALREAL"> F  </i>
  </separator>
  <separator name="miscellaneous" >
   <i type="int" name="IDIOT">     3</i>
   <i type="logical" name="LMUSIC"> F  </i>
   <v name="POMASS">     28.08500000     26.98100000     12.01100000     14.00100000</v>
   <v name="DARWINR">      0.00000000      0.00000000      0.00000000      0.00000000</v>
   <v name="DARWINV">      1.00000000      1.00000000      1.00000000      1.00000000</v>
   <i type="logical" name="LCORR"> T  </i>
  </separator>
  <i type="logical" name="GGA_COMPAT"> T  </i>
  <i type="logical" name="LBERRY"> F  </i>
  <i type="int" name="ICORELEVEL">     0</i>
  <i type="logical" name="LDAU"> F  </i>
  <i type="int" name="I_CONSTRAINED_M">     0</i>
  <separator name="electronic exchange-correlation" >
   <i type="string" name="GGA">--</i>
   <i type="int" name="VOSKOWN">     0</i>
   <i type="logical" name="LHFCALC"> F  </i>
   <i type="string" name="PRECFOCK"></i>
   <i type="logical" name="LSYMGRAD"> F  </i>
   <i type="logical" name="LHFONE"> F  </i>
   <i type="logical" name="LRHFCALC"> F  </i>
   <i type="logical" name="LTHOMAS"> F  </i>
   <i type="logical" name="LMODELHF"> F  </i>
   <i name="ENCUT4O">     -1.00000000</i>
   <i type="int" name="EXXOEP">     0</i>
   <i type="int" name="FOURORBIT">     0</i>
   <i name="AEXX">      0.00000000</i>
   <i name="HFALPHA">      0.00000000</i>
   <i name="MCALPHA">      0.00000000</i>
   <i name="ALDAX">      1.00000000</i>
   <i name="AGGAX">      1.00000000</i>
   <i name="ALDAC">      1.00000000</i>
   <i name="AGGAC">      1.00000000</i>
   <i type="int" name="NKREDX">     1</i>
   <i type="int" name="NKREDY">     1</i>
   <i type="int" name="NKREDZ">     1</i>
   <i type="logical" name="SHIFTRED"> F  </i>
   <i type="logical" name="ODDONLY"> F  </i>
   <i type="logical" name="EVENONLY"> F  </i>
   <i type="int" name="LMAXFOCK">     0</i>
   <i type="int" name="NMAXFOCKAE">     0</i>
   <i type="logical" name="LFOCKAEDFT"> F  </i>
   <i name="HFSCREEN">      0.00000000</i>
   <i name="HFSCREENC">      0.00000000</i>
   <i type="int" name="NBANDSGWLOW">     0</i>
  </separator>
  <separator name="vdW DFT" >
   <i type="logical" name="LUSE_VDW"> F  </i>
   <i name="Zab_VDW">     -0.84910000</i>
   <i name="PARAM1">      0.12340000</i>
   <i name="PARAM2">      1.00000000</i>
   <i name="PARAM3">      0.00000000</i>
  </separator>
  <separator name="model GW" >
   <i type="int" name="MODEL_GW">     0</i>
   <i name="MODEL_EPS0">      6.39629313</i>
   <i name="MODEL_ALPHA">      1.00000000</i>
  </separator>
  <separator name="linear response parameters" >
   <i type="logical" name="LEPSILON"> F  </i>
   <i type="logical" name="LRPA"> F  </i>
   <i type="logical" name="LNABLA"> F  </i>
   <i type="logical" name="LVEL"> F  </i>
   <i type="int" name="KINTER">     0</i>
   <i name="CSHIFT">      0.10000000</i>
   <i name="OMEGAMAX">     -1.00000000</i>
   <i name="DEG_THRESHOLD">      0.00200000</i>
  </separator>
  <separator name="orbital magnetization" >
   <i type="logical" name="NUCIND"> F  </i>
   <v name="MAGPOS">      0.00000000      0.00000000      0.00000000</v>
   <i type="logical" name="LNICSALL"> T  </i>
   <i type="logical" name="ORBITALMAG"> F  </i>
   <i type="logical" name="LMAGBLOCH"> F  </i>
   <i type="logical" name="LCHIMAG"> F  </i>
   <i type="logical" name="LGAUGE"> T  </i>
   <i type="int" name="MAGATOM">     0</i>
   <v name="MAGDIPOL">      0.00000000      0.00000000      0.00000000</v>
   <v name="AVECCONST">      0.00000000      0.00000000      0.00000000</v>
  </separator>
  <separator name="response functions" >
   <i type="logical" name="LADDER"> F  </i>
   <i type="logical" name="LFXC"> F  </i>
   <i type="logical" name="LHARTREE"> T  </i>
   <i type="int" name="IBSE">     0</i>
   <i type="logical" name="LTCTE"> F  </i>
   <i type="logical" name="LTETE"> F  </i>
   <i type="logical" name="LTRIPLET"> F  </i>
   <i type="logical" name="LFXCEPS"> F  </i>
   <i type="logical" name="LFXHEG"> F  </i>
   <i type="logical" name="L2ORDER"> F  </i>
   <i type="logical" name="LUSEW"> F  </i>
   <i name="ENCUTGW">     -2.00000000</i>
   <i name="ENCUTGWSOFT">     -2.00000000</i>
   <i name="ENCUTLF">     -1.00000000</i>
   <i type="int" name="LMAXMP2">    -1</i>
   <i name="SCISSOR">      0.00000000</i>
   <i type="int" name="NOMEGA">     0</i>
   <i type="int" name="NOMEGAR">     0</i>
   <i type="int" name="NBANDSGW">    -1</i>
   <i type="int" name="NBANDSO">    -1</i>
   <i type="int" name="NBANDSV">    -1</i>
   <i type="int" name="NELM">   100</i>
   <i type="int" name="DIM">     3</i>
   <i type="int" name="ANTIRES">     0</i>
   <i name="OMEGAMAX">    -30.00000000</i>
   <i name="OMEGAMIN">    -30.00000000</i>
   <i name="OMEGATL">   -200.00000000</i>
   <i type="int" name="OMEGAGRID">     0</i>
   <i name="CSHIFT">     -0.10000000</i>
   <i type="logical" name="SELFENERGY"> F  </i>
   <i type="logical" name="LSPECTRAL"> F  </i>
   <i type="logical" name="ODDONLYGW"> F  </i>
   <i type="logical" name="EVENONLYGW"> F  </i>
   <i type="int" name="NKREDLFX">     1</i>
   <i type="int" name="NKREDLFY">     1</i>
   <i type="int" name="NKREDLFZ">     1</i>
   <i type="int" name="MAXMEM">  1800</i>
   <i type="int" name="TELESCOPE">     0</i>
   <i type="int" name="TAUPAR">     1</i>
  </separator>
  <separator name="External order field" >
   <i name="OFIELD_KAPPA">      0.00000000</i>
   <v name="OFIELD_K">      0.00000000      0.00000000      0.00000000</v>
   <i name="OFIELD_Q6_NEAR">      0.00000000</i>
   <i name="OFIELD_Q6_FAR">      0.00000000</i>
   <i name="OFIELD_A">      0.00000000</i>
  </separator>
 </parameters>
 <atominfo>
  <atoms>      16 </atoms>
  <types>       4 </types>
  <array name="atoms" >
   <dimension dim="1">ion</dimension>
   <field type="string">element</field>
   <field type="int">atomtype</field>
   <set>
    <rc><c>Si</c><c>   1</c></rc>
    <rc><c>Si</c><c>   1</c></rc>
    <rc><c>Si</c><c>   1</c></rc>
    <rc><c>Si</c><c>   1</c></rc>
    <rc><c>Al</c><c>   2</c></rc>
    <rc><c>Al</c><c>   2</c></rc>
    <rc><c>Al</c><c>   2</c></rc>
    <rc><c>Al</c><c>   2</c></rc>
    <rc><c>C </c><c>   3</c></rc>
    <rc><c>C </c><c>   3</c></rc>
    <rc><c>C </c><c>   3</c></rc>
    <rc><c>C </c><c>   3</c></rc>
    <rc><c>N </c><c>   4</c></rc>
    <rc><c>N </c><c>   4</c></rc>
    <rc><c>N </c><c>   4</c></rc>
    <rc><c>N </c><c>   4</c></rc>
   </set>
  </array>
  <array name="atomtypes" >
   <dimension dim="1">type</dimension>
   <field type="int">atomspertype</field>
   <field type="string">element</field>
   <field>mass</field>
   <field>valence</field>
   <field type="string">pseudopotential</field>
   <set>
    <rc><c>   4</c><c>Si</c><c>     28.08500000</c><c>      4.00000000</c><c>  PAW_PBE Si 05Jan2001                  </c></rc>
    <rc><c>   4</c><c>Al</c><c>     26.98100000</c><c>      3.00000000</c><c>  PAW_PBE Al 04Jan2001                  </c></rc>
    <rc><c>   4</c><c>C </c><c>     12.01100000</c><c>      4.00000000</c><c>  PAW_PBE C 08Apr2002                   </c></rc>
    <rc><c>   4</c><c>N </c><c>     14.00100000</c><c>      5.00000000</c><c>  PAW_PBE N_s 07Sep2000                 </c></rc>
   </set>
  </array>
 </atominfo>
 <structure name="initialpos" >
  <crystal>
   <varray name="basis" >
    <v>      11.47983937       0.00000000      -0.01720133 </v>
    <v>       0.00000000       3.10956792       0.00000000 </v>
    <v>      -2.60777164       0.00000000       4.78207346 </v>
   </varray>
   <i name="volume">    170.56781693 </i>
   <varray name="rec_basis" >
    <v>       0.08718047       0.00000000       0.04754146 </v>
    <v>       0.00000000       0.32158809       0.00000000 </v>
    <v>       0.00031359       0.00000000       0.20928532 </v>
   </varray>
  </crystal>
  <varray name="positions" >
   <v>       0.00625223       0.50000000       0.83954099 </v>
   <v>       0.74733818       0.00000000       0.40321290 </v>
   <v>       0.50625223       0.00000000       0.83954099 </v>
   <v>       0.24733818       0.50000000       0.40321290 </v>
   <v>       0.00395878       0.00000000       0.33870128 </v>
   <v>       0.74752185       0.50000000       0.92138271 </v>
   <v>       0.50395878       0.50000000       0.33870128 </v>
   <v>       0.24752185       0.00000000       0.92138271 </v>
   <v>       0.55386121       0.50000000       0.73213412 </v>
   <v>       0.56654317       0.00000000       0.22070550 </v>
   <v>       0.05386121       0.00000000       0.73213412 </v>
   <v>       0.06654317       0.50000000       0.22070550 </v>
   <v>       0.81074793       0.00000000       0.15826722 </v>
   <v>       0.81377664       0.50000000       0.63605529 </v>
   <v>       0.31074793       0.50000000       0.15826722 </v>
   <v>       0.31377664       0.00000000       0.63605529 </v>
  </varray>
 </structure>
 <calculation>
  <scstep>
   <time name="dav">    0.54    0.54</time>
   <time name="total">    0.60    0.61</time>
   <energy>
    <i name="alphaZ">     63.76698729 </i>
    <i name="ewald">  -2274.93355375 </i>
    <i name="hartreedc">   -355.07018417 </i>
    <i name="XCdc">     -5.61053045 </i>
    <i name="pawpsdc">   1871.13760811 </i>
    <i name="pawaedc">  -1679.96522576 </i>
    <i name="eentropy">     -0.01695748 </i>
    <i name="bandstr">    443.94447559 </i>
    <i name="atom">   2273.20978491 </i>
    <i name="e_fr_energy">    336.46240429 </i>
    <i name="e_wo_entrp">    336.47936177 </i>
    <i name="e_0_energy">    336.47088303 </i>
   </energy>
  </scstep>
  <scstep>
   <time name="dav">    0.61    0.61</time>
   <time name="total">    0.61    0.62</time>
   <energy>
    <i name="e_fr_energy">   -101.04783735 </i>
    <i name="e_wo_entrp">   -101.04783735 </i>
    <i name="e_0_energy">   -101.04783735 </i>
   </energy>
  </scstep>
  <scstep>
   <time name="dav">    0.66    0.66</time>
   <time name="total">    0.66    0.68</time>
   <energy>
    <i name="e_fr_energy">   -133.90445946 </i>
    <i name="e_wo_entrp">   -133.90445946 </i>
    <i name="e_0_energy">   -133.90445946 </i>
   </energy>
  </scstep>
  <scstep>
   <time name="dav">    0.63    0.63</time>
   <time name="total">    0.63    0.64</time>
   <energy>
    <i name="e_fr_energy">   -134.74764201 </i>
    <i name="e_wo_entrp">   -134.74764201 </i>
    <i name="e_0_energy">   -134.74764201 </i>
   </energy>
  </scstep>
  <scstep>
   <time name="dav">    0.62    0.62</time>
   <time name="total">    0.72    0.73</time>
   <energy>
    <i name="e_fr_energy">   -134.77314951 </i>
    <i name="e_wo_entrp">   -134.77314951 </i>
    <i name="e_0_energy">   -134.77314951 </i>
   </energy>
  </scstep>
  <scstep>
   <time name="diag">    0.13    0.13</time>
   <time name="diis">    0.38    0.38</time>
   <time name="orth">    0.02    0.02</time>
   <time name="total">    0.68    0.69</time>
   <energy>
    <i name="e_fr_energy">   -116.65114598 </i>
    <i name="e_wo_entrp">   -116.65114598 </i>
    <i name="e_0_energy">   -116.65114598 </i>
   </energy>
  </scstep>
  <scstep>
   <time name="diag">    0.13    0.13</time>
   <time name="diis">    0.39    0.42</time>
   <time name="orth">    0.02    0.02</time>
   <time name="total">    0.69    0.74</time>
   <energy>
    <i name="e_fr_energy">   -116.44420581 </i>
    <i name="e_wo_entrp">   -116.44420581 </i>
    <i name="e_0_energy">   -116.44420581 </i>
   </energy>
  </scstep>
  <scstep>
   <time name="diag">    0.13    0.13</time>
   <time name="diis">    0.37    0.38</time>
   <time name="orth">    0.02    0.02</time>
   <time name="total">    0.67    0.69</time>
   <energy>
    <i name="e_fr_energy">   -116.86360401 </i>
    <i name="e_wo_entrp">   -116.86360401 </i>
    <i name="e_0_energy">   -116.86360401 </i>
   </energy>
  </scstep>
  <scstep>
   <time name="diag">    0.14    0.14</time>
   <time name="diis">    0.37    0.37</time>
   <time name="orth">    0.02    0.02</time>
   <time name="total">    0.68    0.69</time>
   <energy>
    <i name="e_fr_energy">   -116.31148553 </i>
    <i name="e_wo_entrp">   -116.31148553 </i>
    <i name="e_0_energy">   -116.31148553 </i>
   </energy>
  </scstep>
  <scstep>
   <time name="diag">    0.13    0.13</time>
   <time name="diis">    0.39    0.39</time>
   <time name="orth">    0.02    0.02</time>
   <time name="total">    0.68    0.70</time>
   <energy>
    <i name="e_fr_energy">   -116.31950150 </i>
    <i name="e_wo_entrp">   -116.31950150 </i>
    <i name="e_0_energy">   -116.31950150 </i>
   </energy>
  </scstep>
  <scstep>
   <time name="diag">    0.13    0.13</time>
   <time name="diis">    0.39    0.39</time>
   <time name="orth">    0.02    0.02</time>
   <time name="total">    0.68    0.70</time>
   <energy>
    <i name="e_fr_energy">   -116.31832668 </i>
    <i name="e_wo_entrp">   -116.31832668 </i>
    <i name="e_0_energy">   -116.31832668 </i>
   </energy>
  </scstep>
  <scstep>
   <time name="diag">    0.13    0.13</time>
   <time name="diis">    0.37    0.37</time>
   <time name="orth">    0.02    0.02</time>
   <time name="total">    0.67    0.68</time>
   <energy>
    <i name="e_fr_energy">   -116.31765934 </i>
    <i name="e_wo_entrp">   -116.31765934 </i>
    <i name="e_0_energy">   -116.31765934 </i>
   </energy>
  </scstep>
  <scstep>
   <time name="diag">    0.13    0.13</time>
   <time name="diis">    0.38    0.38</time>
   <time name="orth">    0.02    0.02</time>
   <time name="total">    0.68    0.70</time>
   <energy>
    <i name="e_fr_energy">   -116.31765053 </i>
    <i name="e_wo_entrp">   -116.31765053 </i>
    <i name="e_0_energy">   -116.31765053 </i>
   </energy>
  </scstep>
  <scstep>
   <time name="diag">    0.13    0.13</time>
   <time name="diis">    0.38    0.47</time>
   <time name="orth">    0.02    0.02</time>
   <time name="total">    0.68    0.78</time>
   <energy>
    <i name="e_fr_energy">   -116.31765637 </i>
    <i name="e_wo_entrp">   -116.31765637 </i>
    <i name="e_0_energy">   -116.31765637 </i>
   </energy>
  </scstep>
  <scstep>
   <time name="diag">    0.13    0.13</time>
   <time name="diis">    0.29    0.29</time>
   <time name="orth">    0.02    0.02</time>
   <time name="total">    0.49    0.51</time>
   <energy>
    <i name="alphaZ">     63.76698729 </i>
    <i name="ewald">  -2274.93355375 </i>
    <i name="hartreedc">   -463.11345613 </i>
    <i name="XCdc">      3.98396052 </i>
    <i name="pawpsdc">   9935.58748678 </i>
    <i name="pawaedc">  -9748.53883711 </i>
    <i name="eentropy">      0.00000000 </i>
    <i name="bandstr">     93.71997085 </i>
    <i name="atom">   2273.20978491 </i>
    <i name="e_fr_energy">   -116.31765664 </i>
    <i name="e_wo_entrp">   -116.31765664 </i>
    <i name="e_0_energy">   -116.31765664 </i>
   </energy>
  </scstep>
  <structure>
   <crystal>
    <varray name="basis" >
     <v>      11.47983937       0.00000000      -0.01720133 </v>
     <v>       0.00000000       3.10956792       0.00000000 </v>
     <v>      -2.60777164       0.00000000       4.78207346 </v>
    </varray>
    <i name="volume">    170.56781693 </i>
    <varray name="rec_basis" >
     <v>       0.08718047       0.00000000       0.04754146 </v>
     <v>       0.00000000       0.32158809       0.00000000 </v>
     <v>       0.00031359       0.00000000       0.20928532 </v>
    </varray>
   </crystal>
   <varray name="positions" >
    <v>       0.00625223       0.50000000       0.83954099 </v>
    <v>       0.74733818       0.00000000       0.40321290 </v>
    <v>       0.50625223       0.00000000       0.83954099 </v>
    <v>       0.24733818       0.50000000       0.40321290 </v>
    <v>       0.00395878       0.00000000       0.33870128 </v>
    <v>       0.74752185       0.50000000       0.92138271 </v>
    <v>       0.50395878       0.50000000       0.33870128 </v>
    <v>       0.24752185       0.00000000       0.92138271 </v>
    <v>       0.55386121       0.50000000       0.73213412 </v>
    <v>       0.56654317       0.00000000       0.22070550 </v>
    <v>       0.05386121       0.00000000       0.73213412 </v>
    <v>       0.06654317       0.50000000       0.22070550 </v>
    <v>       0.81074793       0.00000000       0.15826722 </v>
    <v>       0.81377664       0.50000000       0.63605529 </v>
    <v>       0.31074793       0.50000000       0.15826722 </v>
    <v>       0.31377664       0.00000000       0.63605529 </v>
   </varray>
  </structure>
  <varray name="forces" >
   <v>       0.00961177       0.00000000       0.00130060 </v>
   <v>       0.00894800       0.00000000      -0.00423831 </v>
   <v>       0.00961177       0.00000000       0.00130060 </v>
   <v>       0.00894800       0.00000000      -0.00423831 </v>
   <v>      -0.00420631       0.00000000      -0.01004247 </v>
   <v>      -0.00695332       0.00000000       0.01228933 </v>
   <v>      -0.00420631       0.00000000      -0.01004247 </v>
   <v>      -0.00695332       0.00000000       0.01228933 </v>
   <v>      -0.01118902       0.00000000      -0.00380237 </v>
   <v>       0.00312994       0.00000000       0.00930832 </v>
   <v>      -0.01118902       0.00000000      -0.00380237 </v>
   <v>       0.00312994       0.00000000       0.00930832 </v>
   <v>      -0.00063304       0.00000000      -0.00541467 </v>
   <v>       0.00129198       0.00000000       0.00059957 </v>
   <v>      -0.00063304       0.00000000      -0.00541467 </v>
   <v>       0.00129198       0.00000000       0.00059957 </v>
  </varray>
  <varray name="stress" >
   <v>      -0.26140480       0.00000000       0.23909057 </v>
   <v>       0.00000000      -0.50345076       0.00000000 </v>
   <v>       0.23909058       0.00000000      -0.12005266 </v>
  </varray>
  <energy>
   <i name="e_fr_energy">   -116.31765664 </i>
   <i name="e_wo_entrp">   -116.31765664 </i>
   <i name="e_0_energy">      0.00000000 </i>
  </energy>
  <time name="totalsc">   11.50   11.84</time>
  <eigenvalues>
   <array>
    <dimension dim="1">band</dimension>
    <dimension dim="2">kpoint</dimension>
    <dimension dim="3">spin</dimension>
    <field>eigene</field>
    <field>occ</field>
    <set>
     <set comment="spin 1">
      <set comment="kpoint 1">
       <r>   -9.2883    1.0000 </r>
       <r>   -9.0926    1.0000 </r>
       <r>   -7.3759    1.0000 </r>
       <r>   -7.2986    1.0000 </r>
       <r>   -5.4695    1.0000 </r>
       <r>   -4.5441    1.0000 </r>
       <r>   -2.8171    1.0000 </r>
       <r>   -2.8145    1.0000 </r>
       <r>   -0.6973    1.0000 </r>
       <r>    0.1098    1.0000 </r>
       <r>    0.4092    1.0000 </r>
       <r>    0.9523    1.0000 </r>
       <r>    1.8910    1.0000 </r>
       <r>    2.1211    1.0000 </r>
       <r>    3.2997    1.0000 </r>
       <r>    3.4423    1.0000 </r>
       <r>    3.4710    1.0000 </r>
       <r>    3.5719    1.0000 </r>
       <r>    4.5817    1.0000 </r>
       <r>    4.7289    1.0000 </r>
       <r>    4.9710    1.0000 </r>
       <r>    5.1986    1.0000 </r>
       <r>    5.2303    1.0000 </r>
       <r>    5.2986    1.0000 </r>
       <r>    5.7001    1.0000 </r>
       <r>    6.1068    1.0000 </r>
       <r>    6.4045    1.0000 </r>
       <r>    7.1327    1.0000 </r>
       <r>    7.9173    1.0000 </r>
       <r>    8.0320    1.0000 </r>
       <r>    8.2759    1.0000 </r>
       <r>    8.2809    1.0000 </r>
       <r>    9.7427    0.0000 </r>
       <r>   10.3867    0.0000 </r>
       <r>   10.9065    0.0000 </r>
       <r>   11.9804    0.0000 </r>
       <r>   12.0023    0.0000 </r>
       <r>   12.1082    0.0000 </r>
       <r>   13.0165    0.0000 </r>
       <r>   13.8965    0.0000 </r>
       <r>   14.1865    0.0000 </r>
       <r>   14.8913    0.0000 </r>
       <r>   15.2701    0.0000 </r>
       <r>   15.4356    0.0000 </r>
      </set>
      <set comment="kpoint 2">
       <r>   -9.1960    1.0000 </r>
       <r>   -9.1960    1.0000 </r>
       <r>   -7.3366    1.0000 </r>
       <r>   -7.3366    1.0000 </r>
       <r>   -5.0580    1.0000 </r>
       <r>   -5.0580    1.0000 </r>
       <r>   -2.7787    1.0000 </r>
       <r>   -2.7787    1.0000 </r>
       <r>   -0.2188    1.0000 </r>
       <r>   -0.2188    1.0000 </r>
       <r>    0.7427    1.0000 </r>
       <r>    0.7427    1.0000 </r>
       <r>    1.6630    1.0000 </r>
       <r>    1.6630    1.0000 </r>
       <r>    3.5044    1.0000 </r>
       <r>    3.5044    1.0000 </r>
       <r>    3.5380    1.0000 </r>
       <r>    3.5380    1.0000 </r>
       <r>    4.7695    1.0000 </r>
       <r>    4.7695    1.0000 </r>
       <r>    5.2122    1.0000 </r>
       <r>    5.2122    1.0000 </r>
       <r>    5.2673    1.0000 </r>
       <r>    5.2673    1.0000 </r>
       <r>    6.1789    1.0000 </r>
       <r>    6.1789    1.0000 </r>
       <r>    6.2613    1.0000 </r>
       <r>    6.2613    1.0000 </r>
       <r>    7.9519    1.0000 </r>
       <r>    7.9519    1.0000 </r>
       <r>    8.2737    1.0000 </r>
       <r>    8.2737    1.0000 </r>
       <r>   10.1155    0.0000 </r>
       <r>   10.1155    0.0000 </r>
       <r>   11.2977    0.0000 </r>
       <r>   11.2977    0.0000 </r>
       <r>   11.8807    0.0000 </r>
       <r>   11.8807    0.0000 </r>
       <r>   13.9363    0.0000 </r>
       <r>   13.9368    0.0000 </r>
       <r>   14.8931    0.0000 </r>
       <r>   14.8975    0.0000 </r>
       <r>   15.3280    0.0000 </r>
       <r>   15.3365    0.0000 </r>
      </set>
      <set comment="kpoint 3">
       <r>   -9.0277    1.0000 </r>
       <r>   -8.8458    1.0000 </r>
       <r>   -7.2716    1.0000 </r>
       <r>   -7.2053    1.0000 </r>
       <r>   -5.1416    1.0000 </r>
       <r>   -4.2704    1.0000 </r>
       <r>   -2.6649    1.0000 </r>
       <r>   -2.6008    1.0000 </r>
       <r>   -0.4804    1.0000 </r>
       <r>    0.3712    1.0000 </r>
       <r>    0.6641    1.0000 </r>
       <r>    1.1954    1.0000 </r>
       <r>    1.7590    1.0000 </r>
       <r>    2.2535    1.0000 </r>
       <r>    2.3335    1.0000 </r>
       <r>    2.6029    1.0000 </r>
       <r>    3.1678    1.0000 </r>
       <r>    3.5094    1.0000 </r>
       <r>    3.9508    1.0000 </r>
       <r>    4.2731    1.0000 </r>
       <r>    4.3421    1.0000 </r>
       <r>    4.4739    1.0000 </r>
       <r>    4.7779    1.0000 </r>
       <r>    5.1360    1.0000 </r>
       <r>    5.4011    1.0000 </r>
       <r>    5.4423    1.0000 </r>
       <r>    6.0054    1.0000 </r>
       <r>    6.9409    1.0000 </r>
       <r>    7.0599    1.0000 </r>
       <r>    7.1448    1.0000 </r>
       <r>    7.6262    1.0000 </r>
       <r>    7.8168    1.0000 </r>
       <r>   10.8670    0.0000 </r>
       <r>   11.2343    0.0000 </r>
       <r>   11.6961    0.0000 </r>
       <r>   12.1498    0.0000 </r>
       <r>   12.7981    0.0000 </r>
       <r>   13.2438    0.0000 </r>
       <r>   13.8068    0.0000 </r>
       <r>   13.9582    0.0000 </r>
       <r>   14.3834    0.0000 </r>
       <r>   14.7046    0.0000 </r>
       <r>   14.7665    0.0000 </r>
       <r>   14.8862    0.0000 </r>
      </set>
      <set comment="kpoint 4">
       <r>   -8.9415    1.0000 </r>
       <r>   -8.9415    1.0000 </r>
       <r>   -7.2379    1.0000 </r>
       <r>   -7.2379    1.0000 </r>
       <r>   -4.7520    1.0000 </r>
       <r>   -4.7520    1.0000 </r>
       <r>   -2.6059    1.0000 </r>
       <r>   -2.6059    1.0000 </r>
       <r>    0.0453    1.0000 </r>
       <r>    0.0453    1.0000 </r>
       <r>    0.9185    1.0000 </r>
       <r>    0.9185    1.0000 </r>
       <r>    1.8376    1.0000 </r>
       <r>    1.8376    1.0000 </r>
       <r>    2.2049    1.0000 </r>
       <r>    2.2049    1.0000 </r>
       <r>    3.8305    1.0000 </r>
       <r>    3.8305    1.0000 </r>
       <r>    4.0739    1.0000 </r>
       <r>    4.0739    1.0000 </r>
       <r>    4.5524    1.0000 </r>
       <r>    4.5524    1.0000 </r>
       <r>    4.8087    1.0000 </r>
       <r>    4.8087    1.0000 </r>
       <r>    5.4858    1.0000 </r>
       <r>    5.4858    1.0000 </r>
       <r>    6.1968    1.0000 </r>
       <r>    6.1968    1.0000 </r>
       <r>    7.1383    1.0000 </r>
       <r>    7.1383    1.0000 </r>
       <r>    7.7382    1.0000 </r>
       <r>    7.7382    1.0000 </r>
       <r>   11.1334    0.0000 </r>
       <r>   11.1334    0.0000 </r>
       <r>   11.9395    0.0000 </r>
       <r>   11.9395    0.0000 </r>
       <r>   13.1812    0.0000 </r>
       <r>   13.1815    0.0000 </r>
       <r>   13.9054    0.0000 </r>
       <r>   13.9099    0.0000 </r>
       <r>   14.1811    0.0000 </r>
       <r>   14.1872    0.0000 </r>
       <r>   15.1365    0.0000 </r>
       <r>   15.1986    0.0000 </r>
      </set>
      <set comment="kpoint 5">
       <r>   -8.3379    1.0000 </r>
       <r>   -8.2003    1.0000 </r>
       <r>   -7.1479    1.0000 </r>
       <r>   -7.1000    1.0000 </r>
       <r>   -4.2086    1.0000 </r>
       <r>   -3.5728    1.0000 </r>
       <r>   -2.5036    1.0000 </r>
       <r>   -2.2120    1.0000 </r>
       <r>   -0.3653    1.0000 </r>
       <r>    0.5879    1.0000 </r>
       <r>    0.6731    1.0000 </r>
       <r>    1.1597    1.0000 </r>
       <r>    1.2504    1.0000 </r>
       <r>    1.7908    1.0000 </r>
       <r>    1.8566    1.0000 </r>
       <r>    2.2042    1.0000 </r>
       <r>    2.5348    1.0000 </r>
       <r>    2.8621    1.0000 </r>
       <r>    2.9923    1.0000 </r>
       <r>    3.2112    1.0000 </r>
       <r>    3.5031    1.0000 </r>
       <r>    3.9027    1.0000 </r>
       <r>    4.3537    1.0000 </r>
       <r>    4.4815    1.0000 </r>
       <r>    4.8200    1.0000 </r>
       <r>    5.3896    1.0000 </r>
       <r>    5.6010    1.0000 </r>
       <r>    5.6111    1.0000 </r>
       <r>    6.0821    1.0000 </r>
       <r>    6.4708    1.0000 </r>
       <r>    6.6482    1.0000 </r>
       <r>    7.1222    1.0000 </r>
       <r>   10.6497    0.0000 </r>
       <r>   12.1692    0.0000 </r>
       <r>   12.3677    0.0000 </r>
       <r>   12.7187    0.0000 </r>
       <r>   13.0275    0.0000 </r>
       <r>   13.1366    0.0000 </r>
       <r>   13.4752    0.0000 </r>
       <r>   14.1056    0.0000 </r>
       <r>   14.1463    0.0000 </r>
       <r>   14.2874    0.0000 </r>
       <r>   14.6677    0.0000 </r>
       <r>   15.0783    0.0000 </r>
      </set>
      <set comment="kpoint 6">
       <r>   -8.2717    1.0000 </r>
       <r>   -8.2717    1.0000 </r>
       <r>   -7.1238    1.0000 </r>
       <r>   -7.1238    1.0000 </r>
       <r>   -3.9121    1.0000 </r>
       <r>   -3.9121    1.0000 </r>
       <r>   -2.3737    1.0000 </r>
       <r>   -2.3737    1.0000 </r>
       <r>    0.1528    1.0000 </r>
       <r>    0.1528    1.0000 </r>
       <r>    1.0501    1.0000 </r>
       <r>    1.0501    1.0000 </r>
       <r>    1.2191    1.0000 </r>
       <r>    1.2191    1.0000 </r>
       <r>    1.9913    1.0000 </r>
       <r>    1.9913    1.0000 </r>
       <r>    2.6848    1.0000 </r>
       <r>    2.6848    1.0000 </r>
       <r>    3.5002    1.0000 </r>
       <r>    3.5002    1.0000 </r>
       <r>    3.7448    1.0000 </r>
       <r>    3.7448    1.0000 </r>
       <r>    4.2816    1.0000 </r>
       <r>    4.2816    1.0000 </r>
       <r>    5.0272    1.0000 </r>
       <r>    5.0272    1.0000 </r>
       <r>    5.5545    1.0000 </r>
       <r>    5.5545    1.0000 </r>
       <r>    6.1301    1.0000 </r>
       <r>    6.1301    1.0000 </r>
       <r>    7.0154    1.0000 </r>
       <r>    7.0154    1.0000 </r>
       <r>   11.5602    0.0000 </r>
       <r>   11.5602    0.0000 </r>
       <r>   12.4615    0.0000 </r>
       <r>   12.4617    0.0000 </r>
       <r>   13.1686    0.0000 </r>
       <r>   13.1717    0.0000 </r>
       <r>   13.5780    0.0000 </r>
       <r>   13.5790    0.0000 </r>
       <r>   14.3518    0.0000 </r>
       <r>   14.4535    0.0000 </r>
       <r>   14.9592    0.0000 </r>
       <r>   15.1515    0.0000 </r>
      </set>
      <set comment="kpoint 7">
       <r>   -7.6551    1.0000 </r>
       <r>   -7.6551    1.0000 </r>
       <r>   -7.3038    1.0000 </r>
       <r>   -7.3038    1.0000 </r>
       <r>   -3.1162    1.0000 </r>
       <r>   -3.1162    1.0000 </r>
       <r>   -2.5877    1.0000 </r>
       <r>   -2.5877    1.0000 </r>
       <r>   -0.3602    1.0000 </r>
       <r>   -0.3602    1.0000 </r>
       <r>    0.8354    1.0000 </r>
       <r>    0.8354    1.0000 </r>
       <r>    1.5677    1.0000 </r>
       <r>    1.5677    1.0000 </r>
       <r>    2.1180    1.0000 </r>
       <r>    2.1180    1.0000 </r>
       <r>    2.1654    1.0000 </r>
       <r>    2.1654    1.0000 </r>
       <r>    2.9509    1.0000 </r>
       <r>    2.9509    1.0000 </r>
       <r>    3.6211    1.0000 </r>
       <r>    3.6211    1.0000 </r>
       <r>    4.1532    1.0000 </r>
       <r>    4.1532    1.0000 </r>
       <r>    4.8877    1.0000 </r>
       <r>    4.8877    1.0000 </r>
       <r>    5.1913    1.0000 </r>
       <r>    5.1913    1.0000 </r>
       <r>    5.9057    1.0000 </r>
       <r>    5.9057    1.0000 </r>
       <r>    6.5233    1.0000 </r>
       <r>    6.5233    1.0000 </r>
       <r>   11.3359    0.0000 </r>
       <r>   11.3359    0.0000 </r>
       <r>   11.9826    0.0000 </r>
       <r>   11.9826    0.0000 </r>
       <r>   13.1835    0.0000 </r>
       <r>   13.1839    0.0000 </r>
       <r>   13.9559    0.0000 </r>
       <r>   13.9606    0.0000 </r>
       <r>   14.3698    0.0000 </r>
       <r>   14.3722    0.0000 </r>
       <r>   14.6829    0.0000 </r>
       <r>   14.7682    0.0000 </r>
      </set>
      <set comment="kpoint 8">
       <r>   -7.6518    1.0000 </r>
       <r>   -7.6518    1.0000 </r>
       <r>   -7.3083    1.0000 </r>
       <r>   -7.3083    1.0000 </r>
       <r>   -3.1149    1.0000 </r>
       <r>   -3.1149    1.0000 </r>
       <r>   -2.5679    1.0000 </r>
       <r>   -2.5679    1.0000 </r>
       <r>   -0.4566    1.0000 </r>
       <r>   -0.4566    1.0000 </r>
       <r>    1.0366    1.0000 </r>
       <r>    1.0366    1.0000 </r>
       <r>    1.4776    1.0000 </r>
       <r>    1.4776    1.0000 </r>
       <r>    1.8777    1.0000 </r>
       <r>    1.8777    1.0000 </r>
       <r>    2.2611    1.0000 </r>
       <r>    2.2611    1.0000 </r>
       <r>    3.0335    1.0000 </r>
       <r>    3.0335    1.0000 </r>
       <r>    3.8904    1.0000 </r>
       <r>    3.8904    1.0000 </r>
       <r>    4.2482    1.0000 </r>
       <r>    4.2482    1.0000 </r>
       <r>    4.6063    1.0000 </r>
       <r>    4.6063    1.0000 </r>
       <r>    5.1034    1.0000 </r>
       <r>    5.1034    1.0000 </r>
       <r>    5.7842    1.0000 </r>
       <r>    5.7842    1.0000 </r>
       <r>    6.6147    1.0000 </r>
       <r>    6.6147    1.0000 </r>
       <r>   11.7430    0.0000 </r>
       <r>   11.7430    0.0000 </r>
       <r>   12.0391    0.0000 </r>
       <r>   12.0391    0.0000 </r>
       <r>   12.9312    0.0000 </r>
       <r>   12.9316    0.0000 </r>
       <r>   13.6188    0.0000 </r>
       <r>   13.6193    0.0000 </r>
       <r>   14.3295    0.0000 </r>
       <r>   14.5111    0.0000 </r>
       <r>   14.7268    0.0000 </r>
       <r>   14.7616    0.0000 </r>
      </set>
      <set comment="kpoint 9">
       <r>   -9.1127    1.0000 </r>
       <r>   -9.0141    1.0000 </r>
       <r>   -7.6033    1.0000 </r>
       <r>   -7.5704    1.0000 </r>
       <r>   -5.1269    1.0000 </r>
       <r>   -4.6351    1.0000 </r>
       <r>   -3.1633    1.0000 </r>
       <r>   -3.0925    1.0000 </r>
       <r>   -0.1538    1.0000 </r>
       <r>    0.3156    1.0000 </r>
       <r>    0.5219    1.0000 </r>
       <r>    1.5645    1.0000 </r>
       <r>    1.9931    1.0000 </r>
       <r>    2.6094    1.0000 </r>
       <r>    3.0890    1.0000 </r>
       <r>    3.5413    1.0000 </r>
       <r>    3.5987    1.0000 </r>
       <r>    3.7341    1.0000 </r>
       <r>    3.8134    1.0000 </r>
       <r>    4.0461    1.0000 </r>
       <r>    4.7203    1.0000 </r>
       <r>    5.0993    1.0000 </r>
       <r>    5.1005    1.0000 </r>
       <r>    5.8134    1.0000 </r>
       <r>    5.9570    1.0000 </r>
       <r>    6.2494    1.0000 </r>
       <r>    6.3999    1.0000 </r>
       <r>    6.7044    1.0000 </r>
       <r>    7.0803    1.0000 </r>
       <r>    7.1376    1.0000 </r>
       <r>    8.1396    1.0000 </r>
       <r>    8.1420    1.0000 </r>
       <r>   10.3106    0.0000 </r>
       <r>   10.6694    0.0000 </r>
       <r>   11.4273    0.0000 </r>
       <r>   12.0472    0.0000 </r>
       <r>   12.4498    0.0000 </r>
       <r>   12.6181    0.0000 </r>
       <r>   13.4072    0.0000 </r>
       <r>   14.0312    0.0000 </r>
       <r>   14.4220    0.0000 </r>
       <r>   14.7780    0.0000 </r>
       <r>   14.9998    0.0000 </r>
       <r>   15.7297    0.0000 </r>
      </set>
      <set comment="kpoint 10">
       <r>   -9.1291    1.0000 </r>
       <r>   -8.9939    1.0000 </r>
       <r>   -7.6350    1.0000 </r>
       <r>   -7.5450    1.0000 </r>
       <r>   -5.1677    1.0000 </r>
       <r>   -4.5326    1.0000 </r>
       <r>   -3.3288    1.0000 </r>
       <r>   -3.0125    1.0000 </r>
       <r>   -0.2894    1.0000 </r>
       <r>    0.4980    1.0000 </r>
       <r>    0.7880    1.0000 </r>
       <r>    1.6859    1.0000 </r>
       <r>    1.8339    1.0000 </r>
       <r>    1.9607    1.0000 </r>
       <r>    3.1335    1.0000 </r>
       <r>    3.5292    1.0000 </r>
       <r>    3.6125    1.0000 </r>
       <r>    3.8708    1.0000 </r>
       <r>    3.8856    1.0000 </r>
       <r>    4.3977    1.0000 </r>
       <r>    4.8751    1.0000 </r>
       <r>    5.0762    1.0000 </r>
       <r>    5.1198    1.0000 </r>
       <r>    5.4438    1.0000 </r>
       <r>    5.9489    1.0000 </r>
       <r>    6.2406    1.0000 </r>
       <r>    6.4135    1.0000 </r>
       <r>    6.5569    1.0000 </r>
       <r>    7.0560    1.0000 </r>
       <r>    7.3153    1.0000 </r>
       <r>    8.1213    1.0000 </r>
       <r>    8.1573    1.0000 </r>
       <r>   10.3106    0.0000 </r>
       <r>   10.6129    0.0000 </r>
       <r>   11.8215    0.0000 </r>
       <r>   12.1226    0.0000 </r>
       <r>   12.2302    0.0000 </r>
       <r>   12.4424    0.0000 </r>
       <r>   13.4002    0.0000 </r>
       <r>   13.7207    0.0000 </r>
       <r>   14.5104    0.0000 </r>
       <r>   14.6110    0.0000 </r>
       <r>   15.2247    0.0000 </r>
       <r>   15.7160    0.0000 </r>
      </set>
      <set comment="kpoint 11">
       <r>   -8.8621    1.0000 </r>
       <r>   -8.7712    1.0000 </r>
       <r>   -7.4708    1.0000 </r>
       <r>   -7.4424    1.0000 </r>
       <r>   -4.8091    1.0000 </r>
       <r>   -4.3522    1.0000 </r>
       <r>   -2.9480    1.0000 </r>
       <r>   -2.9199    1.0000 </r>
       <r>   -0.0077    1.0000 </r>
       <r>    0.4953    1.0000 </r>
       <r>    0.7426    1.0000 </r>
       <r>    1.5107    1.0000 </r>
       <r>    1.9930    1.0000 </r>
       <r>    2.1595    1.0000 </r>
       <r>    2.3780    1.0000 </r>
       <r>    2.8874    1.0000 </r>
       <r>    3.3649    1.0000 </r>
       <r>    3.5176    1.0000 </r>
       <r>    3.5723    1.0000 </r>
       <r>    4.0979    1.0000 </r>
       <r>    4.4530    1.0000 </r>
       <r>    4.5330    1.0000 </r>
       <r>    4.6115    1.0000 </r>
       <r>    4.9226    1.0000 </r>
       <r>    5.3653    1.0000 </r>
       <r>    5.8200    1.0000 </r>
       <r>    6.0121    1.0000 </r>
       <r>    6.3918    1.0000 </r>
       <r>    6.7598    1.0000 </r>
       <r>    6.8451    1.0000 </r>
       <r>    7.5238    1.0000 </r>
       <r>    7.6151    1.0000 </r>
       <r>   11.2934    0.0000 </r>
       <r>   11.6664    0.0000 </r>
       <r>   11.9760    0.0000 </r>
       <r>   12.2502    0.0000 </r>
       <r>   13.0409    0.0000 </r>
       <r>   13.3274    0.0000 </r>
       <r>   13.5623    0.0000 </r>
       <r>   13.7865    0.0000 </r>
       <r>   14.1297    0.0000 </r>
       <r>   14.5209    0.0000 </r>
       <r>   14.6724    0.0000 </r>
       <r>   14.9197    0.0000 </r>
      </set>
      <set comment="kpoint 12">
       <r>   -8.8776    1.0000 </r>
       <r>   -8.7522    1.0000 </r>
       <r>   -7.4982    1.0000 </r>
       <r>   -7.4202    1.0000 </r>
       <r>   -4.8527    1.0000 </r>
       <r>   -4.2534    1.0000 </r>
       <r>   -3.0925    1.0000 </r>
       <r>   -2.8502    1.0000 </r>
       <r>   -0.1401    1.0000 </r>
       <r>    0.6742    1.0000 </r>
       <r>    0.9172    1.0000 </r>
       <r>    1.6449    1.0000 </r>
       <r>    1.8675    1.0000 </r>
       <r>    1.9694    1.0000 </r>
       <r>    2.5150    1.0000 </r>
       <r>    2.6472    1.0000 </r>
       <r>    3.0271    1.0000 </r>
       <r>    3.4883    1.0000 </r>
       <r>    3.6297    1.0000 </r>
       <r>    4.2801    1.0000 </r>
       <r>    4.5663    1.0000 </r>
       <r>    4.5846    1.0000 </r>
       <r>    5.0263    1.0000 </r>
       <r>    5.0381    1.0000 </r>
       <r>    5.2445    1.0000 </r>
       <r>    5.5872    1.0000 </r>
       <r>    5.9743    1.0000 </r>
       <r>    6.2086    1.0000 </r>
       <r>    6.5734    1.0000 </r>
       <r>    7.1426    1.0000 </r>
       <r>    7.4869    1.0000 </r>
       <r>    7.6318    1.0000 </r>
       <r>   11.2560    0.0000 </r>
       <r>   11.5514    0.0000 </r>
       <r>   12.2741    0.0000 </r>
       <r>   12.3877    0.0000 </r>
       <r>   12.9384    0.0000 </r>
       <r>   12.9876    0.0000 </r>
       <r>   13.4447    0.0000 </r>
       <r>   13.7995    0.0000 </r>
       <r>   14.1941    0.0000 </r>
       <r>   14.5609    0.0000 </r>
       <r>   14.7832    0.0000 </r>
       <r>   15.2300    0.0000 </r>
      </set>
      <set comment="kpoint 13">
       <r>   -8.2123    1.0000 </r>
       <r>   -8.1463    1.0000 </r>
       <r>   -7.2483    1.0000 </r>
       <r>   -7.2294    1.0000 </r>
       <r>   -3.9335    1.0000 </r>
       <r>   -3.6132    1.0000 </r>
       <r>   -2.6412    1.0000 </r>
       <r>   -2.5403    1.0000 </r>
       <r>   -0.2241    1.0000 </r>
       <r>    0.0324    1.0000 </r>
       <r>    0.7758    1.0000 </r>
       <r>    0.9992    1.0000 </r>
       <r>    1.4944    1.0000 </r>
       <r>    1.6645    1.0000 </r>
       <r>    1.7819    1.0000 </r>
       <r>    2.3977    1.0000 </r>
       <r>    2.4921    1.0000 </r>
       <r>    2.8593    1.0000 </r>
       <r>    3.3123    1.0000 </r>
       <r>    3.6068    1.0000 </r>
       <r>    4.0459    1.0000 </r>
       <r>    4.0737    1.0000 </r>
       <r>    4.2775    1.0000 </r>
       <r>    4.3283    1.0000 </r>
       <r>    5.0184    1.0000 </r>
       <r>    5.1539    1.0000 </r>
       <r>    5.1926    1.0000 </r>
       <r>    6.0787    1.0000 </r>
       <r>    6.1904    1.0000 </r>
       <r>    6.4313    1.0000 </r>
       <r>    7.0581    1.0000 </r>
       <r>    7.1941    1.0000 </r>
       <r>   11.2289    0.0000 </r>
       <r>   11.3315    0.0000 </r>
       <r>   11.3444    0.0000 </r>
       <r>   12.0872    0.0000 </r>
       <r>   12.8575    0.0000 </r>
       <r>   13.0118    0.0000 </r>
       <r>   13.3461    0.0000 </r>
       <r>   13.4096    0.0000 </r>
       <r>   13.8885    0.0000 </r>
       <r>   14.1016    0.0000 </r>
       <r>   14.6375    0.0000 </r>
       <r>   14.9599    0.0000 </r>
      </set>
      <set comment="kpoint 14">
       <r>   -8.2251    1.0000 </r>
       <r>   -8.1311    1.0000 </r>
       <r>   -7.2660    1.0000 </r>
       <r>   -7.2146    1.0000 </r>
       <r>   -3.9712    1.0000 </r>
       <r>   -3.5547    1.0000 </r>
       <r>   -2.6337    1.0000 </r>
       <r>   -2.5584    1.0000 </r>
       <r>   -0.4174    1.0000 </r>
       <r>    0.1963    1.0000 </r>
       <r>    0.6966    1.0000 </r>
       <r>    1.2425    1.0000 </r>
       <r>    1.4291    1.0000 </r>
       <r>    1.5990    1.0000 </r>
       <r>    2.1410    1.0000 </r>
       <r>    2.2465    1.0000 </r>
       <r>    2.4990    1.0000 </r>
       <r>    2.5156    1.0000 </r>
       <r>    3.3385    1.0000 </r>
       <r>    3.4631    1.0000 </r>
       <r>    3.9477    1.0000 </r>
       <r>    4.0571    1.0000 </r>
       <r>    4.4344    1.0000 </r>
       <r>    4.5959    1.0000 </r>
       <r>    4.8926    1.0000 </r>
       <r>    5.3398    1.0000 </r>
       <r>    5.4730    1.0000 </r>
       <r>    5.6740    1.0000 </r>
       <r>    5.9761    1.0000 </r>
       <r>    6.6269    1.0000 </r>
       <r>    7.0094    1.0000 </r>
       <r>    7.2504    1.0000 </r>
       <r>   11.0978    0.0000 </r>
       <r>   11.3933    0.0000 </r>
       <r>   11.6807    0.0000 </r>
       <r>   11.7671    0.0000 </r>
       <r>   12.7868    0.0000 </r>
       <r>   12.7936    0.0000 </r>
       <r>   13.4872    0.0000 </r>
       <r>   13.7911    0.0000 </r>
       <r>   13.8166    0.0000 </r>
       <r>   14.2742    0.0000 </r>
       <r>   14.6511    0.0000 </r>
       <r>   14.9569    0.0000 </r>
      </set>
      <set comment="kpoint 15">
       <r>   -7.6410    1.0000 </r>
       <r>   -7.6410    1.0000 </r>
       <r>   -7.2854    1.0000 </r>
       <r>   -7.2854    1.0000 </r>
       <r>   -3.1082    1.0000 </r>
       <r>   -3.1082    1.0000 </r>
       <r>   -2.5572    1.0000 </r>
       <r>   -2.5572    1.0000 </r>
       <r>   -0.6739    1.0000 </r>
       <r>   -0.6739    1.0000 </r>
       <r>    0.6470    1.0000 </r>
       <r>    0.6470    1.0000 </r>
       <r>    1.0057    1.0000 </r>
       <r>    1.0057    1.0000 </r>
       <r>    2.2464    1.0000 </r>
       <r>    2.2464    1.0000 </r>
       <r>    2.7665    1.0000 </r>
       <r>    2.7665    1.0000 </r>
       <r>    2.9836    1.0000 </r>
       <r>    2.9836    1.0000 </r>
       <r>    3.6857    1.0000 </r>
       <r>    3.6857    1.0000 </r>
       <r>    4.4519    1.0000 </r>
       <r>    4.4519    1.0000 </r>
       <r>    4.8872    1.0000 </r>
       <r>    4.8872    1.0000 </r>
       <r>    5.7625    1.0000 </r>
       <r>    5.7625    1.0000 </r>
       <r>    6.1687    1.0000 </r>
       <r>    6.1687    1.0000 </r>
       <r>    6.6161    1.0000 </r>
       <r>    6.6161    1.0000 </r>
       <r>   10.9750    0.0000 </r>
       <r>   10.9750    0.0000 </r>
       <r>   11.4798    0.0000 </r>
       <r>   11.4798    0.0000 </r>
       <r>   12.4264    0.0000 </r>
       <r>   12.4265    0.0000 </r>
       <r>   12.9870    0.0000 </r>
       <r>   12.9870    0.0000 </r>
       <r>   13.7418    0.0000 </r>
       <r>   13.7424    0.0000 </r>
       <r>   14.9041    0.0000 </r>
       <r>   14.9666    0.0000 </r>
      </set>
      <set comment="kpoint 16">
       <r>   -7.6411    1.0000 </r>
       <r>   -7.6411    1.0000 </r>
       <r>   -7.2853    1.0000 </r>
       <r>   -7.2853    1.0000 </r>
       <r>   -3.1030    1.0000 </r>
       <r>   -3.1030    1.0000 </r>
       <r>   -2.5702    1.0000 </r>
       <r>   -2.5702    1.0000 </r>
       <r>   -0.6352    1.0000 </r>
       <r>   -0.6352    1.0000 </r>
       <r>    0.6144    1.0000 </r>
       <r>    0.6144    1.0000 </r>
       <r>    0.9666    1.0000 </r>
       <r>    0.9666    1.0000 </r>
       <r>    2.3154    1.0000 </r>
       <r>    2.3154    1.0000 </r>
       <r>    2.6056    1.0000 </r>
       <r>    2.6056    1.0000 </r>
       <r>    3.3546    1.0000 </r>
       <r>    3.3546    1.0000 </r>
       <r>    3.4357    1.0000 </r>
       <r>    3.4357    1.0000 </r>
       <r>    4.3790    1.0000 </r>
       <r>    4.3790    1.0000 </r>
       <r>    5.1391    1.0000 </r>
       <r>    5.1391    1.0000 </r>
       <r>    5.6534    1.0000 </r>
       <r>    5.6534    1.0000 </r>
       <r>    5.9586    1.0000 </r>
       <r>    5.9586    1.0000 </r>
       <r>    6.7616    1.0000 </r>
       <r>    6.7616    1.0000 </r>
       <r>   11.0752    0.0000 </r>
       <r>   11.0752    0.0000 </r>
       <r>   11.3682    0.0000 </r>
       <r>   11.3683    0.0000 </r>
       <r>   12.4823    0.0000 </r>
       <r>   12.4826    0.0000 </r>
       <r>   12.8910    0.0000 </r>
       <r>   12.8918    0.0000 </r>
       <r>   14.1326    0.0000 </r>
       <r>   14.1431    0.0000 </r>
       <r>   14.6343    0.0000 </r>
       <r>   14.8470    0.0000 </r>
      </set>
      <set comment="kpoint 17">
       <r>   -8.9066    1.0000 </r>
       <r>   -8.8517    1.0000 </r>
       <r>   -7.9232    1.0000 </r>
       <r>   -7.8501    1.0000 </r>
       <r>   -4.7107    1.0000 </r>
       <r>   -4.4669    1.0000 </r>
       <r>   -3.7890    1.0000 </r>
       <r>   -3.4560    1.0000 </r>
       <r>    0.4039    1.0000 </r>
       <r>    0.7500    1.0000 </r>
       <r>    1.3404    1.0000 </r>
       <r>    1.7081    1.0000 </r>
       <r>    2.3153    1.0000 </r>
       <r>    2.3967    1.0000 </r>
       <r>    2.8291    1.0000 </r>
       <r>    2.8656    1.0000 </r>
       <r>    3.6304    1.0000 </r>
       <r>    3.6602    1.0000 </r>
       <r>    3.9261    1.0000 </r>
       <r>    4.5749    1.0000 </r>
       <r>    4.8935    1.0000 </r>
       <r>    4.9503    1.0000 </r>
       <r>    4.9951    1.0000 </r>
       <r>    5.2425    1.0000 </r>
       <r>    5.4517    1.0000 </r>
       <r>    6.2458    1.0000 </r>
       <r>    6.3958    1.0000 </r>
       <r>    6.4244    1.0000 </r>
       <r>    6.5282    1.0000 </r>
       <r>    6.9362    1.0000 </r>
       <r>    7.9694    1.0000 </r>
       <r>    8.0125    1.0000 </r>
       <r>   10.8548    0.0000 </r>
       <r>   10.8730    0.0000 </r>
       <r>   12.2183    0.0000 </r>
       <r>   12.6513    0.0000 </r>
       <r>   12.8894    0.0000 </r>
       <r>   13.0476    0.0000 </r>
       <r>   13.2929    0.0000 </r>
       <r>   13.5404    0.0000 </r>
       <r>   13.9265    0.0000 </r>
       <r>   14.4922    0.0000 </r>
       <r>   14.5289    0.0000 </r>
       <r>   14.9467    0.0000 </r>
      </set>
      <set comment="kpoint 18">
       <r>   -8.8837    1.0000 </r>
       <r>   -8.8837    1.0000 </r>
       <r>   -7.8750    1.0000 </r>
       <r>   -7.8750    1.0000 </r>
       <r>   -4.7008    1.0000 </r>
       <r>   -4.7008    1.0000 </r>
       <r>   -3.4658    1.0000 </r>
       <r>   -3.4658    1.0000 </r>
       <r>    0.3481    1.0000 </r>
       <r>    0.3481    1.0000 </r>
       <r>    1.6391    1.0000 </r>
       <r>    1.6391    1.0000 </r>
       <r>    2.2165    1.0000 </r>
       <r>    2.2165    1.0000 </r>
       <r>    3.0732    1.0000 </r>
       <r>    3.0732    1.0000 </r>
       <r>    3.6439    1.0000 </r>
       <r>    3.6439    1.0000 </r>
       <r>    4.3693    1.0000 </r>
       <r>    4.3693    1.0000 </r>
       <r>    4.9801    1.0000 </r>
       <r>    4.9801    1.0000 </r>
       <r>    5.2049    1.0000 </r>
       <r>    5.2049    1.0000 </r>
       <r>    5.5599    1.0000 </r>
       <r>    5.5599    1.0000 </r>
       <r>    6.3939    1.0000 </r>
       <r>    6.3939    1.0000 </r>
       <r>    6.6392    1.0000 </r>
       <r>    6.6392    1.0000 </r>
       <r>    8.0048    1.0000 </r>
       <r>    8.0048    1.0000 </r>
       <r>   10.9876    0.0000 </r>
       <r>   10.9876    0.0000 </r>
       <r>   12.4202    0.0000 </r>
       <r>   12.4203    0.0000 </r>
       <r>   12.9646    0.0000 </r>
       <r>   12.9646    0.0000 </r>
       <r>   13.4929    0.0000 </r>
       <r>   13.4932    0.0000 </r>
       <r>   14.3100    0.0000 </r>
       <r>   14.3128    0.0000 </r>
       <r>   14.5190    0.0000 </r>
       <r>   14.5332    0.0000 </r>
      </set>
      <set comment="kpoint 19">
       <r>   -8.6695    1.0000 </r>
       <r>   -8.6181    1.0000 </r>
       <r>   -7.7557    1.0000 </r>
       <r>   -7.6906    1.0000 </r>
       <r>   -4.4204    1.0000 </r>
       <r>   -4.1768    1.0000 </r>
       <r>   -3.5480    1.0000 </r>
       <r>   -3.2377    1.0000 </r>
       <r>    0.3896    1.0000 </r>
       <r>    0.6177    1.0000 </r>
       <r>    1.3860    1.0000 </r>
       <r>    1.4701    1.0000 </r>
       <r>    2.1697    1.0000 </r>
       <r>    2.5198    1.0000 </r>
       <r>    2.6420    1.0000 </r>
       <r>    2.6439    1.0000 </r>
       <r>    3.1318    1.0000 </r>
       <r>    3.3295    1.0000 </r>
       <r>    3.5320    1.0000 </r>
       <r>    3.9998    1.0000 </r>
       <r>    4.2638    1.0000 </r>
       <r>    4.4023    1.0000 </r>
       <r>    4.8319    1.0000 </r>
       <r>    5.1664    1.0000 </r>
       <r>    5.4191    1.0000 </r>
       <r>    5.5175    1.0000 </r>
       <r>    5.7899    1.0000 </r>
       <r>    6.2977    1.0000 </r>
       <r>    6.6234    1.0000 </r>
       <r>    6.9831    1.0000 </r>
       <r>    7.0692    1.0000 </r>
       <r>    7.1881    1.0000 </r>
       <r>   11.9160    0.0000 </r>
       <r>   12.0568    0.0000 </r>
       <r>   12.3242    0.0000 </r>
       <r>   12.7171    0.0000 </r>
       <r>   12.9427    0.0000 </r>
       <r>   13.0703    0.0000 </r>
       <r>   13.6396    0.0000 </r>
       <r>   13.7465    0.0000 </r>
       <r>   14.1596    0.0000 </r>
       <r>   14.2313    0.0000 </r>
       <r>   14.5242    0.0000 </r>
       <r>   14.7353    0.0000 </r>
      </set>
      <set comment="kpoint 20">
       <r>   -8.6479    1.0000 </r>
       <r>   -8.6479    1.0000 </r>
       <r>   -7.7135    1.0000 </r>
       <r>   -7.7135    1.0000 </r>
       <r>   -4.3958    1.0000 </r>
       <r>   -4.3958    1.0000 </r>
       <r>   -3.2647    1.0000 </r>
       <r>   -3.2647    1.0000 </r>
       <r>    0.4552    1.0000 </r>
       <r>    0.4552    1.0000 </r>
       <r>    1.4187    1.0000 </r>
       <r>    1.4187    1.0000 </r>
       <r>    2.0897    1.0000 </r>
       <r>    2.0897    1.0000 </r>
       <r>    2.7212    1.0000 </r>
       <r>    2.7212    1.0000 </r>
       <r>    3.1763    1.0000 </r>
       <r>    3.1763    1.0000 </r>
       <r>    4.1166    1.0000 </r>
       <r>    4.1166    1.0000 </r>
       <r>    4.4784    1.0000 </r>
       <r>    4.4784    1.0000 </r>
       <r>    4.9694    1.0000 </r>
       <r>    4.9694    1.0000 </r>
       <r>    5.4970    1.0000 </r>
       <r>    5.4970    1.0000 </r>
       <r>    5.9786    1.0000 </r>
       <r>    5.9786    1.0000 </r>
       <r>    6.5493    1.0000 </r>
       <r>    6.5493    1.0000 </r>
       <r>    7.1075    1.0000 </r>
       <r>    7.1075    1.0000 </r>
       <r>   12.0660    0.0000 </r>
       <r>   12.0661    0.0000 </r>
       <r>   12.6944    0.0000 </r>
       <r>   12.6946    0.0000 </r>
       <r>   12.9439    0.0000 </r>
       <r>   12.9443    0.0000 </r>
       <r>   13.6185    0.0000 </r>
       <r>   13.6245    0.0000 </r>
       <r>   14.0846    0.0000 </r>
       <r>   14.0982    0.0000 </r>
       <r>   14.6426    0.0000 </r>
       <r>   14.7505    0.0000 </r>
      </set>
      <set comment="kpoint 21">
       <r>   -8.0759    1.0000 </r>
       <r>   -8.0362    1.0000 </r>
       <r>   -7.4097    1.0000 </r>
       <r>   -7.3657    1.0000 </r>
       <r>   -3.6376    1.0000 </r>
       <r>   -3.4810    1.0000 </r>
       <r>   -2.9277    1.0000 </r>
       <r>   -2.8286    1.0000 </r>
       <r>   -0.4515    1.0000 </r>
       <r>   -0.1826    1.0000 </r>
       <r>    0.6643    1.0000 </r>
       <r>    0.9168    1.0000 </r>
       <r>    1.6066    1.0000 </r>
       <r>    1.7211    1.0000 </r>
       <r>    2.1204    1.0000 </r>
       <r>    2.6691    1.0000 </r>
       <r>    2.7304    1.0000 </r>
       <r>    3.0623    1.0000 </r>
       <r>    3.2912    1.0000 </r>
       <r>    3.4970    1.0000 </r>
       <r>    3.8077    1.0000 </r>
       <r>    4.0442    1.0000 </r>
       <r>    4.1640    1.0000 </r>
       <r>    4.2346    1.0000 </r>
       <r>    5.3177    1.0000 </r>
       <r>    5.4007    1.0000 </r>
       <r>    5.9586    1.0000 </r>
       <r>    6.2083    1.0000 </r>
       <r>    6.4300    1.0000 </r>
       <r>    6.5332    1.0000 </r>
       <r>    6.8773    1.0000 </r>
       <r>    7.0307    1.0000 </r>
       <r>   10.7543    0.0000 </r>
       <r>   10.9202    0.0000 </r>
       <r>   11.3101    0.0000 </r>
       <r>   11.9192    0.0000 </r>
       <r>   12.3669    0.0000 </r>
       <r>   12.5126    0.0000 </r>
       <r>   12.9259    0.0000 </r>
       <r>   13.0094    0.0000 </r>
       <r>   13.8226    0.0000 </r>
       <r>   14.3196    0.0000 </r>
       <r>   14.4241    0.0000 </r>
       <r>   15.1578    0.0000 </r>
      </set>
      <set comment="kpoint 22">
       <r>   -8.0591    1.0000 </r>
       <r>   -8.0591    1.0000 </r>
       <r>   -7.3823    1.0000 </r>
       <r>   -7.3823    1.0000 </r>
       <r>   -3.5950    1.0000 </r>
       <r>   -3.5950    1.0000 </r>
       <r>   -2.8530    1.0000 </r>
       <r>   -2.8530    1.0000 </r>
       <r>   -0.2478    1.0000 </r>
       <r>   -0.2478    1.0000 </r>
       <r>    0.8785    1.0000 </r>
       <r>    0.8785    1.0000 </r>
       <r>    1.5162    1.0000 </r>
       <r>    1.5162    1.0000 </r>
       <r>    2.0426    1.0000 </r>
       <r>    2.0426    1.0000 </r>
       <r>    3.0375    1.0000 </r>
       <r>    3.0375    1.0000 </r>
       <r>    3.3696    1.0000 </r>
       <r>    3.3696    1.0000 </r>
       <r>    4.0167    1.0000 </r>
       <r>    4.0167    1.0000 </r>
       <r>    4.7014    1.0000 </r>
       <r>    4.7014    1.0000 </r>
       <r>    5.2094    1.0000 </r>
       <r>    5.2094    1.0000 </r>
       <r>    6.0756    1.0000 </r>
       <r>    6.0756    1.0000 </r>
       <r>    6.2023    1.0000 </r>
       <r>    6.2023    1.0000 </r>
       <r>    6.9530    1.0000 </r>
       <r>    6.9530    1.0000 </r>
       <r>   10.9882    0.0000 </r>
       <r>   10.9882    0.0000 </r>
       <r>   11.7489    0.0000 </r>
       <r>   11.7489    0.0000 </r>
       <r>   12.4962    0.0000 </r>
       <r>   12.4962    0.0000 </r>
       <r>   12.7227    0.0000 </r>
       <r>   12.7228    0.0000 </r>
       <r>   13.8436    0.0000 </r>
       <r>   13.8496    0.0000 </r>
       <r>   14.6969    0.0000 </r>
       <r>   14.7371    0.0000 </r>
      </set>
      <set comment="kpoint 23">
       <r>   -7.6273    1.0000 </r>
       <r>   -7.6273    1.0000 </r>
       <r>   -7.2657    1.0000 </r>
       <r>   -7.2657    1.0000 </r>
       <r>   -3.0989    1.0000 </r>
       <r>   -3.0989    1.0000 </r>
       <r>   -2.5486    1.0000 </r>
       <r>   -2.5486    1.0000 </r>
       <r>   -0.8291    1.0000 </r>
       <r>   -0.8291    1.0000 </r>
       <r>    0.4325    1.0000 </r>
       <r>    0.4325    1.0000 </r>
       <r>    0.6590    1.0000 </r>
       <r>    0.6590    1.0000 </r>
       <r>    1.9301    1.0000 </r>
       <r>    1.9301    1.0000 </r>
       <r>    3.2325    1.0000 </r>
       <r>    3.2325    1.0000 </r>
       <r>    3.5547    1.0000 </r>
       <r>    3.5547    1.0000 </r>
       <r>    3.8491    1.0000 </r>
       <r>    3.8491    1.0000 </r>
       <r>    4.2166    1.0000 </r>
       <r>    4.2166    1.0000 </r>
       <r>    5.2630    1.0000 </r>
       <r>    5.2630    1.0000 </r>
       <r>    5.9814    1.0000 </r>
       <r>    5.9814    1.0000 </r>
       <r>    6.3900    1.0000 </r>
       <r>    6.3900    1.0000 </r>
       <r>    7.1596    1.0000 </r>
       <r>    7.1596    1.0000 </r>
       <r>   10.3813    0.0000 </r>
       <r>   10.3813    0.0000 </r>
       <r>   10.7604    0.0000 </r>
       <r>   10.7604    0.0000 </r>
       <r>   11.7434    0.0000 </r>
       <r>   11.7434    0.0000 </r>
       <r>   12.0059    0.0000 </r>
       <r>   12.0059    0.0000 </r>
       <r>   14.3498    0.0000 </r>
       <r>   14.3555    0.0000 </r>
       <r>   14.7923    0.0000 </r>
       <r>   14.8841    0.0000 </r>
      </set>
      <set comment="kpoint 24">
       <r>   -7.6296    1.0000 </r>
       <r>   -7.6296    1.0000 </r>
       <r>   -7.2625    1.0000 </r>
       <r>   -7.2625    1.0000 </r>
       <r>   -3.1114    1.0000 </r>
       <r>   -3.1114    1.0000 </r>
       <r>   -2.5356    1.0000 </r>
       <r>   -2.5356    1.0000 </r>
       <r>   -0.8232    1.0000 </r>
       <r>   -0.8232    1.0000 </r>
       <r>    0.2683    1.0000 </r>
       <r>    0.2683    1.0000 </r>
       <r>    0.8092    1.0000 </r>
       <r>    0.8092    1.0000 </r>
       <r>    2.4291    1.0000 </r>
       <r>    2.4291    1.0000 </r>
       <r>    2.5062    1.0000 </r>
       <r>    2.5062    1.0000 </r>
       <r>    3.4132    1.0000 </r>
       <r>    3.4132    1.0000 </r>
       <r>    4.1252    1.0000 </r>
       <r>    4.1252    1.0000 </r>
       <r>    4.4245    1.0000 </r>
       <r>    4.4245    1.0000 </r>
       <r>    5.1178    1.0000 </r>
       <r>    5.1178    1.0000 </r>
       <r>    6.0915    1.0000 </r>
       <r>    6.0915    1.0000 </r>
       <r>    6.2880    1.0000 </r>
       <r>    6.2880    1.0000 </r>
       <r>    7.1409    1.0000 </r>
       <r>    7.1409    1.0000 </r>
       <r>   10.3840    0.0000 </r>
       <r>   10.3840    0.0000 </r>
       <r>   11.0237    0.0000 </r>
       <r>   11.0237    0.0000 </r>
       <r>   11.9209    0.0000 </r>
       <r>   11.9210    0.0000 </r>
       <r>   12.1794    0.0000 </r>
       <r>   12.1795    0.0000 </r>
       <r>   13.3875    0.0000 </r>
       <r>   13.4025    0.0000 </r>
       <r>   14.5446    0.0000 </r>
       <r>   14.6041    0.0000 </r>
      </set>
     </set>
    </set>
   </array>
  </eigenvalues>
  <separator name="orbital magnetization" >
   <v name="MAGDIPOLOUT">      0.00000000      0.00000000      0.00000000</v>
  </separator>
  <dos>
   <i name="efermi">      8.72751589 </i>
   <total>
    <array>
     <dimension dim="1">gridpoints</dimension>
     <dimension dim="2">spin</dimension>
     <field>energy</field>
     <field>total</field>
     <field>integrated</field>
     <set>
      <set comment="spin 1">
       <r>   -10.5393     0.0000     0.0000 </r>
       <r>   -10.4475     0.0000     0.0000 </r>
       <r>   -10.3558     0.0000     0.0000 </r>
       <r>   -10.2641     0.0000     0.0000 </r>
       <r>   -10.1723     0.0000     0.0000 </r>
       <r>   -10.0806     0.0000     0.0000 </r>
       <r>    -9.9889     0.0000     0.0000 </r>
       <r>    -9.8971     0.0000     0.0000 </r>
       <r>    -9.8054     0.0000     0.0000 </r>
       <r>    -9.7137     0.0000     0.0000 </r>
       <r>    -9.6219     0.0000     0.0000 </r>
       <r>    -9.5302     0.0001     0.0000 </r>
       <r>    -9.4385     0.0078     0.0007 </r>
       <r>    -9.3467     0.1014     0.0100 </r>
       <r>    -9.2550     0.4438     0.0507 </r>
       <r>    -9.1633     1.1236     0.1538 </r>
       <r>    -9.0715     1.9375     0.3315 </r>
       <r>    -8.9798     2.7317     0.5821 </r>
       <r>    -8.8881     3.9861     0.9478 </r>
       <r>    -8.7963     4.3816     1.3497 </r>
       <r>    -8.7046     3.3783     1.6596 </r>
       <r>    -8.6129     2.4592     1.8852 </r>
       <r>    -8.5211     1.0948     1.9856 </r>
       <r>    -8.4294     0.2693     2.0103 </r>
       <r>    -8.3377     0.8651     2.0897 </r>
       <r>    -8.2459     2.7746     2.3442 </r>
       <r>    -8.1542     4.3594     2.7441 </r>
       <r>    -8.0625     3.9316     3.1048 </r>
       <r>    -7.9707     2.2569     3.3118 </r>
       <r>    -7.8790     1.1937     3.4213 </r>
       <r>    -7.7873     1.4738     3.5565 </r>
       <r>    -7.6955     3.5565     3.8827 </r>
       <r>    -7.6038     6.0635     4.4390 </r>
       <r>    -7.5121     5.3466     4.9294 </r>
       <r>    -7.4203     5.5649     5.4399 </r>
       <r>    -7.3286     7.3784     6.1167 </r>
       <r>    -7.2369     9.7079     7.0073 </r>
       <r>    -7.1451     7.2798     7.6751 </r>
       <r>    -7.0534     2.8690     7.9383 </r>
       <r>    -6.9617     0.6256     7.9956 </r>
       <r>    -6.8699     0.0467     7.9999 </r>
       <r>    -6.7782     0.0009     8.0000 </r>
       <r>    -6.6865     0.0000     8.0000 </r>
       <r>    -6.5947     0.0000     8.0000 </r>
       <r>    -6.5030     0.0000     8.0000 </r>
       <r>    -6.4113     0.0000     8.0000 </r>
       <r>    -6.3195     0.0000     8.0000 </r>
       <r>    -6.2278     0.0000     8.0000 </r>
       <r>    -6.1361     0.0000     8.0000 </r>
       <r>    -6.0443     0.0000     8.0000 </r>
       <r>    -5.9526     0.0000     8.0000 </r>
       <r>    -5.8609     0.0000     8.0000 </r>
       <r>    -5.7691     0.0000     8.0000 </r>
       <r>    -5.6774     0.0007     8.0001 </r>
       <r>    -5.5857     0.0220     8.0021 </r>
       <r>    -5.4939     0.1428     8.0152 </r>
       <r>    -5.4022     0.2116     8.0346 </r>
       <r>    -5.3105     0.1033     8.0441 </r>
       <r>    -5.2187     0.4109     8.0818 </r>
       <r>    -5.1270     1.3465     8.2053 </r>
       <r>    -5.0353     1.3442     8.3286 </r>
       <r>    -4.9435     0.6899     8.3919 </r>
       <r>    -4.8518     1.3974     8.5201 </r>
       <r>    -4.7601     2.5909     8.7577 </r>
       <r>    -4.6683     2.2912     8.9679 </r>
       <r>    -4.5766     1.4505     9.1010 </r>
       <r>    -4.4849     1.4269     9.2319 </r>
       <r>    -4.3931     2.2238     9.4359 </r>
       <r>    -4.3014     2.7476     9.6879 </r>
       <r>    -4.2097     2.5212     9.9192 </r>
       <r>    -4.1180     1.4951    10.0563 </r>
       <r>    -4.0262     0.9392    10.1425 </r>
       <r>    -3.9345     2.2135    10.3455 </r>
       <r>    -3.8428     2.1562    10.5433 </r>
       <r>    -3.7510     0.8577    10.6220 </r>
       <r>    -3.6593     1.4475    10.7548 </r>
       <r>    -3.5676     3.6840    11.0927 </r>
       <r>    -3.4758     3.5595    11.4193 </r>
       <r>    -3.3841     1.7964    11.5841 </r>
       <r>    -3.2924     1.5133    11.7229 </r>
       <r>    -3.2006     2.6199    11.9632 </r>
       <r>    -3.1089     4.9637    12.4185 </r>
       <r>    -3.0172     5.3088    12.9055 </r>
       <r>    -2.9254     4.0124    13.2736 </r>
       <r>    -2.8337     4.3617    13.6737 </r>
       <r>    -2.7420     3.3186    13.9781 </r>
       <r>    -2.6502     4.0785    14.3523 </r>
       <r>    -2.5585     7.7843    15.0663 </r>
       <r>    -2.4668     6.1156    15.6273 </r>
       <r>    -2.3750     2.1465    15.8242 </r>
       <r>    -2.2833     0.9656    15.9128 </r>
       <r>    -2.1916     0.5905    15.9670 </r>
       <r>    -2.0998     0.3087    15.9953 </r>
       <r>    -2.0081     0.0495    15.9998 </r>
       <r>    -1.9164     0.0018    16.0000 </r>
       <r>    -1.8246     0.0000    16.0000 </r>
       <r>    -1.7329     0.0000    16.0000 </r>
       <r>    -1.6412     0.0000    16.0000 </r>
       <r>    -1.5494     0.0000    16.0000 </r>
       <r>    -1.4577     0.0000    16.0000 </r>
       <r>    -1.3660     0.0000    16.0000 </r>
       <r>    -1.2742     0.0000    16.0000 </r>
       <r>    -1.1825     0.0000    16.0000 </r>
       <r>    -1.0908     0.0002    16.0000 </r>
       <r>    -0.9990     0.0131    16.0012 </r>
       <r>    -0.9073     0.2167    16.0211 </r>
       <r>    -0.8156     0.8583    16.0998 </r>
       <r>    -0.7238     1.3817    16.2266 </r>
       <r>    -0.6321     1.9954    16.4096 </r>
       <r>    -0.5404     1.6841    16.5641 </r>
       <r>    -0.4486     2.1410    16.7605 </r>
       <r>    -0.3569     2.9304    17.0293 </r>
       <r>    -0.2652     3.1369    17.3171 </r>
       <r>    -0.1734     3.8276    17.6682 </r>
       <r>    -0.0817     2.9328    17.9372 </r>
       <r>     0.0100     2.6011    18.1758 </r>
       <r>     0.1018     3.0943    18.4597 </r>
       <r>     0.1935     2.7045    18.7078 </r>
       <r>     0.2852     2.3739    18.9255 </r>
       <r>     0.3770     2.9342    19.1947 </r>
       <r>     0.4687     4.0387    19.5652 </r>
       <r>     0.5604     4.4186    19.9705 </r>
       <r>     0.6522     6.0940    20.5295 </r>
       <r>     0.7439     7.3015    21.1993 </r>
       <r>     0.8356     5.8536    21.7363 </r>
       <r>     0.9274     5.6428    22.2539 </r>
       <r>     1.0191     5.8572    22.7912 </r>
       <r>     1.1108     3.8383    23.1433 </r>
       <r>     1.2026     2.8657    23.4062 </r>
       <r>     1.2943     3.0677    23.6876 </r>
       <r>     1.3860     2.9172    23.9552 </r>
       <r>     1.4778     4.9898    24.4129 </r>
       <r>     1.5695     6.3217    24.9928 </r>
       <r>     1.6612     6.2556    25.5667 </r>
       <r>     1.7530     5.5057    26.0717 </r>
       <r>     1.8447     5.4031    26.5674 </r>
       <r>     1.9364     5.8168    27.1010 </r>
       <r>     2.0282     6.1262    27.6629 </r>
       <r>     2.1199     6.4566    28.2552 </r>
       <r>     2.2116     7.6130    28.9536 </r>
       <r>     2.3033     7.0019    29.5959 </r>
       <r>     2.3951     5.4779    30.0984 </r>
       <r>     2.4868     5.9760    30.6466 </r>
       <r>     2.5785     7.0404    31.2924 </r>
       <r>     2.6703     6.7133    31.9083 </r>
       <r>     2.7620     5.4392    32.4072 </r>
       <r>     2.8537     4.1195    32.7851 </r>
       <r>     2.9455     4.2687    33.1767 </r>
       <r>     3.0372     5.2681    33.6600 </r>
       <r>     3.1289     5.3397    34.1498 </r>
       <r>     3.2207     4.4106    34.5544 </r>
       <r>     3.3124     5.2335    35.0345 </r>
       <r>     3.4041     7.5987    35.7315 </r>
       <r>     3.4959     9.7708    36.6278 </r>
       <r>     3.5876    10.8653    37.6245 </r>
       <r>     3.6793     8.0352    38.3616 </r>
       <r>     3.7711     5.0701    38.8267 </r>
       <r>     3.8628     4.8900    39.2753 </r>
       <r>     3.9545     5.6103    39.7899 </r>
       <r>     4.0463     7.3540    40.4645 </r>
       <r>     4.1380     8.1231    41.2097 </r>
       <r>     4.2297     6.4933    41.8053 </r>
       <r>     4.3215     7.5317    42.4962 </r>
       <r>     4.4132     8.4155    43.2682 </r>
       <r>     4.5049     8.7468    44.0706 </r>
       <r>     4.5967     8.1888    44.8218 </r>
       <r>     4.6884     5.7961    45.3535 </r>
       <r>     4.7801     4.4451    45.7612 </r>
       <r>     4.8719     5.8109    46.2943 </r>
       <r>     4.9636     7.3462    46.9681 </r>
       <r>     5.0553     8.3608    47.7351 </r>
       <r>     5.1471     9.2460    48.5833 </r>
       <r>     5.2388     9.1846    49.4258 </r>
       <r>     5.3305     6.9985    50.0678 </r>
       <r>     5.4223     6.4437    50.6589 </r>
       <r>     5.5140     6.9987    51.3009 </r>
       <r>     5.6057     6.2392    51.8732 </r>
       <r>     5.6975     4.8065    52.3142 </r>
       <r>     5.7892     4.0685    52.6874 </r>
       <r>     5.8809     4.2839    53.0803 </r>
       <r>     5.9727     6.7507    53.6996 </r>
       <r>     6.0644     8.4197    54.4720 </r>
       <r>     6.1561     8.2213    55.2261 </r>
       <r>     6.2479     8.4519    56.0015 </r>
       <r>     6.3396     6.0987    56.5609 </r>
       <r>     6.4313     5.8722    57.0996 </r>
       <r>     6.5231     6.1374    57.6626 </r>
       <r>     6.6148     6.6090    58.2689 </r>
       <r>     6.7065     5.5059    58.7739 </r>
       <r>     6.7983     3.7022    59.1135 </r>
       <r>     6.8900     3.2827    59.4147 </r>
       <r>     6.9817     4.8351    59.8582 </r>
       <r>     7.0735     7.8884    60.5818 </r>
       <r>     7.1652     8.9829    61.4059 </r>
       <r>     7.2569     5.7494    61.9333 </r>
       <r>     7.3487     2.1113    62.1269 </r>
       <r>     7.4404     1.0935    62.2272 </r>
       <r>     7.5321     2.1235    62.4220 </r>
       <r>     7.6239     3.0259    62.6996 </r>
       <r>     7.7156     2.6613    62.9437 </r>
       <r>     7.8073     1.6609    63.0961 </r>
       <r>     7.8991     1.1979    63.2060 </r>
       <r>     7.9908     1.6271    63.3553 </r>
       <r>     8.0825     1.9893    63.5377 </r>
       <r>     8.1743     2.1819    63.7379 </r>
       <r>     8.2660     1.7008    63.8939 </r>
       <r>     8.3577     0.9262    63.9789 </r>
       <r>     8.4495     0.2173    63.9988 </r>
       <r>     8.5412     0.0129    64.0000 </r>
       <r>     8.6329     0.0002    64.0000 </r>
       <r>     8.7246     0.0000    64.0000 </r>
       <r>     8.8164     0.0000    64.0000 </r>
       <r>     8.9081     0.0000    64.0000 </r>
       <r>     8.9998     0.0000    64.0000 </r>
       <r>     9.0916     0.0000    64.0000 </r>
       <r>     9.1833     0.0000    64.0000 </r>
       <r>     9.2750     0.0000    64.0000 </r>
       <r>     9.3668     0.0000    64.0000 </r>
       <r>     9.4585     0.0000    64.0000 </r>
       <r>     9.5502     0.0015    64.0001 </r>
       <r>     9.6420     0.0336    64.0032 </r>
       <r>     9.7337     0.1691    64.0187 </r>
       <r>     9.8254     0.1952    64.0366 </r>
       <r>     9.9172     0.0541    64.0416 </r>
       <r>    10.0089     0.0606    64.0471 </r>
       <r>    10.1006     0.3215    64.0766 </r>
       <r>    10.1924     0.4950    64.1220 </r>
       <r>    10.2841     0.8494    64.2000 </r>
       <r>    10.3758     1.7145    64.3572 </r>
       <r>    10.4676     1.2907    64.4756 </r>
       <r>    10.5593     0.6046    64.5311 </r>
       <r>    10.6510     1.2472    64.6455 </r>
       <r>    10.7428     1.7359    64.8047 </r>
       <r>    10.8345     1.8181    64.9715 </r>
       <r>    10.9262     2.7015    65.2193 </r>
       <r>    11.0180     4.0210    65.5882 </r>
       <r>    11.1097     4.1555    65.9694 </r>
       <r>    11.2014     3.8766    66.3250 </r>
       <r>    11.2932     5.5336    66.8326 </r>
       <r>    11.3849     6.5973    67.4378 </r>
       <r>    11.4766     4.5348    67.8538 </r>
       <r>    11.5684     3.2915    68.1557 </r>
       <r>    11.6601     3.5742    68.4836 </r>
       <r>    11.7518     4.6528    68.9104 </r>
       <r>    11.8436     4.1424    69.2904 </r>
       <r>    11.9353     4.4580    69.6994 </r>
       <r>    12.0270     6.0168    70.2513 </r>
       <r>    12.1188     5.8388    70.7869 </r>
       <r>    12.2105     4.6395    71.2125 </r>
       <r>    12.3022     4.2339    71.6009 </r>
       <r>    12.3940     5.0436    72.0636 </r>
       <r>    12.4857     6.2535    72.6372 </r>
       <r>    12.5774     4.1513    73.0180 </r>
       <r>    12.6692     2.8932    73.2834 </r>
       <r>    12.7609     4.5670    73.7024 </r>
       <r>    12.8526     5.5962    74.2157 </r>
       <r>    12.9444     7.4898    74.9028 </r>
       <r>    13.0361     8.4730    75.6800 </r>
       <r>    13.1278     5.6222    76.1958 </r>
       <r>    13.2196     3.8815    76.5518 </r>
       <r>    13.3113     3.5066    76.8735 </r>
       <r>    13.4030     4.8400    77.3175 </r>
       <r>    13.4948     5.6251    77.8335 </r>
       <r>    13.5865     5.0827    78.2998 </r>
       <r>    13.6782     4.5022    78.7128 </r>
       <r>    13.7700     5.7276    79.2382 </r>
       <r>    13.8617     7.6478    79.9397 </r>
       <r>    13.9534     5.9636    80.4868 </r>
       <r>    14.0452     4.2032    80.8724 </r>
       <r>    14.1369     5.9868    81.4215 </r>
       <r>    14.2286     6.7396    82.0398 </r>
       <r>    14.3204     5.4065    82.5357 </r>
       <r>    14.4121     4.8860    82.9839 </r>
       <r>    14.5038     5.1465    83.4560 </r>
       <r>    14.5956     6.5763    84.0593 </r>
       <r>    14.6873     7.8738    84.7816 </r>
       <r>    14.7790     7.4721    85.4670 </r>
       <r>    14.8708     5.9882    86.0163 </r>
       <r>    14.9625     6.1447    86.5800 </r>
       <r>    15.0542     4.3783    86.9816 </r>
       <r>    15.1459     2.7953    87.2381 </r>
       <r>    15.2377     3.1219    87.5244 </r>
       <r>    15.3294     2.1307    87.7199 </r>
       <r>    15.4211     0.8604    87.7988 </r>
       <r>    15.5129     0.3115    87.8274 </r>
       <r>    15.6046     0.1479    87.8410 </r>
       <r>    15.6963     0.5606    87.8924 </r>
       <r>    15.7881     0.8471    87.9701 </r>
       <r>    15.8798     0.3012    87.9977 </r>
       <r>    15.9715     0.0242    88.0000 </r>
       <r>    16.0633     0.0004    88.0000 </r>
       <r>    16.1550     0.0000    88.0000 </r>
       <r>    16.2467     0.0000    88.0000 </r>
       <r>    16.3385     0.0000    88.0000 </r>
       <r>    16.4302     0.0000    88.0000 </r>
       <r>    16.5219     0.0000    88.0000 </r>
       <r>    16.6137     0.0000    88.0000 </r>
       <r>    16.7054     0.0000    88.0000 </r>
       <r>    16.7971     0.0000    88.0000 </r>
       <r>    16.8889     0.0000    88.0000 </r>
       <r>    16.9806     0.0000    88.0000 </r>
      </set>
     </set>
    </array>
   </total>
  </dos>
 </calculation>
 <structure name="finalpos" >
  <crystal>
   <varray name="basis" >
    <v>      11.47983937       0.00000000      -0.01720133 </v>
    <v>       0.00000000       3.10956792       0.00000000 </v>
    <v>      -2.60777164       0.00000000       4.78207346 </v>
   </varray>
   <i name="volume">    170.56781693 </i>
   <varray name="rec_basis" >
    <v>       0.08718047       0.00000000       0.04754146 </v>
    <v>       0.00000000       0.32158809       0.00000000 </v>
    <v>       0.00031359       0.00000000       0.20928532 </v>
   </varray>
  </crystal>
  <varray name="positions" >
   <v>       0.00625223       0.50000000       0.83954099 </v>
   <v>       0.74733818       0.00000000       0.40321290 </v>
   <v>       0.50625223       0.00000000       0.83954099 </v>
   <v>       0.24733818       0.50000000       0.40321290 </v>
   <v>       0.00395878       0.00000000       0.33870128 </v>
   <v>       0.74752185       0.50000000       0.92138271 </v>
   <v>       0.50395878       0.50000000       0.33870128 </v>
   <v>       0.24752185       0.00000000       0.92138271 </v>
   <v>       0.55386121       0.50000000       0.73213412 </v>
   <v>       0.56654317       0.00000000       0.22070550 </v>
   <v>       0.05386121       0.00000000       0.73213412 </v>
   <v>       0.06654317       0.50000000       0.22070550 </v>
   <v>       0.81074793       0.00000000       0.15826722 </v>
   <v>       0.81377664       0.50000000       0.63605529 </v>
   <v>       0.31074793       0.50000000       0.15826722 </v>
   <v>       0.31377664       0.00000000       0.63605529 </v>
  </varray>
 </structure>
</modeling>
