<?xml version="1.0" encoding="ISO-8859-1"?>
<modeling>
 <generator>
  <i name="program" type="string">vasp </i>
  <i name="version" type="string">5.3.5  </i>
  <i name="subversion" type="string">31Mar14 (build Jun 20 2014 13:15:13) complex                          parallel </i>
  <i name="platform" type="string">LinuxIFC </i>
  <i name="date" type="string">2025 12 16 </i>
  <i name="time" type="string">15:52:50 </i>
 </generator>
 <incar>
  <i type="string" name="PREC">accurate</i>
  <i type="int" name="IALGO">    68</i>
  <i type="logical" name="ADDGRID"> T  </i>
  <i type="int" name="NELM">   100</i>
  <i type="int" name="NELMIN">     4</i>
  <i type="int" name="IBRION">     2</i>
  <i name="EDIFF">      0.00000100</i>
  <i name="EDIFFG">     -0.02000000</i>
  <i type="int" name="NSW">    30</i>
  <i type="int" name="ISIF">     3</i>
  <i name="ENCUT">    600.00000000</i>
  <i type="logical" name="LREAL"> F  </i>
  <i type="int" name="ISMEAR">     0</i>
  <i name="SIGMA">      0.10000000</i>
  <i type="logical" name="LWAVE"> F  </i>
  <i type="logical" name="LCHARG"> F  </i>
  <i type="int" name="NELM">   100</i>
 </incar>
 <kpoints>
  <generation param="Auto">
   <i name="subdivisionlength">     20.00000000 </i>
   <v type="int" name="divisions">       2        6        4 </v>
   <v name="usershift">      0.00000000       0.00000000       0.00000000 </v>
   <v name="genvec1">      0.50000000       0.00000000       0.00000000 </v>
   <v name="genvec2">      0.00000000       0.16666667       0.00000000 </v>
   <v name="genvec3">      0.00000000       0.00000000       0.25000000 </v>
   <v name="shift">      0.00000000       0.00000000       0.00000000 </v>
  </generation>
  <varray name="kpointlist" >
   <v>       0.00000000       0.00000000       0.00000000 </v>
   <v>       0.50000000       0.00000000       0.00000000 </v>
   <v>       0.00000000       0.16666667       0.00000000 </v>
   <v>       0.50000000       0.16666667       0.00000000 </v>
   <v>       0.00000000       0.33333333       0.00000000 </v>
   <v>       0.50000000       0.33333333       0.00000000 </v>
   <v>       0.00000000       0.50000000       0.00000000 </v>
   <v>       0.50000000       0.50000000       0.00000000 </v>
   <v>       0.00000000       0.00000000       0.25000000 </v>
   <v>       0.50000000       0.00000000       0.25000000 </v>
   <v>       0.00000000       0.16666667       0.25000000 </v>
   <v>       0.50000000       0.16666667       0.25000000 </v>
   <v>       0.00000000       0.33333333       0.25000000 </v>
   <v>       0.50000000       0.33333333       0.25000000 </v>
   <v>       0.00000000       0.50000000       0.25000000 </v>
   <v>       0.50000000       0.50000000       0.25000000 </v>
   <v>       0.00000000       0.00000000       0.50000000 </v>
   <v>       0.50000000       0.00000000       0.50000000 </v>
   <v>       0.00000000       0.16666667       0.50000000 </v>
   <v>       0.50000000       0.16666667       0.50000000 </v>
   <v>       0.00000000       0.33333333       0.50000000 </v>
   <v>       0.50000000       0.33333333       0.50000000 </v>
   <v>       0.00000000       0.50000000       0.50000000 </v>
   <v>       0.50000000       0.50000000       0.50000000 </v>
  </varray>
  <varray name="weights" >
   <v>       0.02083333 </v>
   <v>       0.02083333 </v>
   <v>       0.04166667 </v>
   <v>       0.04166667 </v>
   <v>       0.04166667 </v>
   <v>       0.04166667 </v>
   <v>       0.02083333 </v>
   <v>       0.02083333 </v>
   <v>       0.04166667 </v>
   <v>       0.04166667 </v>
   <v>       0.08333333 </v>
   <v>       0.08333333 </v>
   <v>       0.08333333 </v>
   <v>       0.08333333 </v>
   <v>       0.04166667 </v>
   <v>       0.04166667 </v>
   <v>       0.02083333 </v>
   <v>       0.02083333 </v>
   <v>       0.04166667 </v>
   <v>       0.04166667 </v>
   <v>       0.04166667 </v>
   <v>       0.04166667 </v>
   <v>       0.02083333 </v>
   <v>       0.02083333 </v>
  </varray>
 </kpoints>
 <parameters>
  <separator name="general" >
   <i type="string" name="SYSTEM">unknown system</i>
   <i type="logical" name="LCOMPAT"> F  </i>
  </separator>
  <separator name="electronic" >
   <i type="string" name="PREC">accura</i>
   <i name="ENMAX">    600.00000000</i>
   <i name="ENAUG">    644.87300000</i>
   <i name="EDIFF">      0.00000100</i>
   <i type="int" name="IALGO">    68</i>
   <i type="int" name="IWAVPR">    11</i>
   <i type="int" name="NBANDS">    44</i>
   <i name="NELECT">     64.00000000</i>
   <i type="int" name="TURBO">     0</i>
   <i type="int" name="IRESTART">     0</i>
   <i type="int" name="NREBOOT">     0</i>
   <i type="int" name="NMIN">     0</i>
   <i name="EREF">      0.00000000</i>
   <separator name="electronic smearing" >
    <i type="int" name="ISMEAR">     0</i>
    <i name="SIGMA">      0.10000000</i>
    <i name="KSPACING">      0.50000000</i>
    <i type="logical" name="KGAMMA"> T  </i>
   </separator>
   <separator name="electronic projectors" >
    <i type="logical" name="LREAL"> F  </i>
    <v name="ROPT">      0.00000000      0.00000000      0.00000000      0.00000000</v>
    <i type="int" name="LMAXPAW">  -100</i>
    <i type="int" name="LMAXMIX">     2</i>
    <i type="logical" name="NLSPLINE"> F  </i>
   </separator>
   <separator name="electronic startup" >
    <i type="int" name="ISTART">     0</i>
    <i type="int" name="ICHARG">     2</i>
    <i type="int" name="INIWAV">     1</i>
   </separator>
   <separator name="electronic spin" >
    <i type="int" name="ISPIN">     1</i>
    <i type="logical" name="LNONCOLLINEAR"> F  </i>
    <v name="MAGMOM">      1.00000000      1.00000000      1.00000000      1.00000000      1.00000000      1.00000000      1.00000000      1.00000000      1.00000000      1.00000000      1.00000000      1.00000000      1.00000000      1.00000000      1.00000000      1.00000000</v>
    <i name="NUPDOWN">     -1.00000000</i>
    <i type="logical" name="LSORBIT"> F  </i>
    <v name="SAXIS">      0.00000000      0.00000000      1.00000000</v>
    <i type="logical" name="LSPIRAL"> F  </i>
    <v name="QSPIRAL">      0.00000000      0.00000000      0.00000000</v>
    <i type="logical" name="LZEROZ"> F  </i>
   </separator>
   <separator name="electronic exchange-correlation" >
    <i type="logical" name="LASPH"> F  </i>
    <i type="logical" name="LMETAGGA"> F  </i>
   </separator>
   <separator name="electronic convergence" >
    <i type="int" name="NELM">   100</i>
    <i type="int" name="NELMDL">     0</i>
    <i type="int" name="NELMIN">     4</i>
    <i name="ENINI">    600.00000000</i>
    <separator name="electronic convergence detail" >
     <i type="logical" name="LDIAG"> T  </i>
     <i type="logical" name="LSUBROT"> F  </i>
     <i name="WEIMIN">      0.00100000</i>
     <i name="EBREAK">      0.00000001</i>
     <i name="DEPER">      0.30000000</i>
     <i type="int" name="NRMM">     4</i>
     <i name="TIME">      0.40000000</i>
    </separator>
   </separator>
   <separator name="electronic mixer" >
    <i name="AMIX">      0.40000000</i>
    <i name="BMIX">      1.00000000</i>
    <i name="AMIN">      0.10000000</i>
    <i name="AMIX_MAG">      1.60000000</i>
    <i name="BMIX_MAG">      1.00000000</i>
    <separator name="electronic mixer details" >
     <i type="int" name="IMIX">     4</i>
     <i type="int" name="MAXMIX">   -45</i>
     <i name="WC">    100.00000000</i>
     <i type="int" name="INIMIX">     1</i>
     <i type="int" name="MIXPRE">     1</i>
     <i type="int" name="MREMOVE">     5</i>
    </separator>
   </separator>
   <separator name="electronic dipolcorrection" >
    <i type="logical" name="LDIPOL"> F  </i>
    <i type="logical" name="LMONO"> F  </i>
    <i type="int" name="IDIPOL">     0</i>
    <i name="EPSILON">      1.00000000</i>
    <v name="DIPOL">   -100.00000000   -100.00000000   -100.00000000</v>
    <i name="EFIELD">      0.00000000</i>
   </separator>
  </separator>
  <separator name="grids" >
   <i type="int" name="NGX">    96</i>
   <i type="int" name="NGY">    28</i>
   <i type="int" name="NGZ">    48</i>
   <i type="int" name="NGXF">   192</i>
   <i type="int" name="NGYF">    56</i>
   <i type="int" name="NGZF">    96</i>
   <i type="logical" name="ADDGRID"> T  </i>
  </separator>
  <separator name="ionic" >
   <i type="int" name="NSW">    30</i>
   <i type="int" name="IBRION">     2</i>
   <i type="int" name="ISIF">     3</i>
   <i name="PSTRESS">      0.00000000</i>
   <i name="EDIFFG">     -0.02000000</i>
   <i type="int" name="NFREE">     1</i>
   <i name="POTIM">      0.50000000</i>
   <i name="SMASS">     -3.00000000</i>
   <i name="SCALEE">      1.00000000</i>
  </separator>
  <separator name="ionic md" >
   <i name="TEBEG">      0.00010000</i>
   <i name="TEEND">      0.00010000</i>
   <i type="int" name="NBLOCK">     1</i>
   <i type="int" name="KBLOCK">    30</i>
   <i type="int" name="NPACO">   256</i>
   <i name="APACO">     16.00000000</i>
  </separator>
  <separator name="symmetry" >
   <i type="int" name="ISYM">     2</i>
   <i name="SYMPREC">      0.00001000</i>
  </separator>
  <separator name="dos" >
   <i type="logical" name="LORBIT"> F  </i>
   <v name="RWIGS">     -1.00000000     -1.00000000     -1.00000000     -1.00000000</v>
   <i type="int" name="NEDOS">   301</i>
   <i name="EMIN">     10.00000000</i>
   <i name="EMAX">    -10.00000000</i>
   <i name="EFERMI">      0.00000000</i>
  </separator>
  <separator name="writing" >
   <i type="int" name="NWRITE">     2</i>
   <i type="logical" name="LWAVE"> F  </i>
   <i type="logical" name="LCHARG"> F  </i>
   <i type="logical" name="LPARD"> F  </i>
   <i type="logical" name="LVTOT"> F  </i>
   <i type="logical" name="LVHAR"> F  </i>
   <i type="logical" name="LELF"> F  </i>
   <i type="logical" name="LOPTICS"> F  </i>
   <v name="STM">      0.00000000      0.00000000      0.00000000      0.00000000      0.00000000      0.00000000      0.00000000</v>
  </separator>
  <separator name="performance" >
   <i type="int" name="NPAR">     4</i>
   <i type="int" name="NSIM">     4</i>
   <i type="int" name="NBLK">    -1</i>
   <i type="logical" name="LPLANE"> T  </i>
   <i type="logical" name="LSCALAPACK"> T  </i>
   <i type="logical" name="LSCAAWARE"> F  </i>
   <i type="logical" name="LSCALU"> F  </i>
   <i type="logical" name="LASYNC"> F  </i>
   <i type="logical" name="LORBITALREAL"> F  </i>
  </separator>
  <separator name="miscellaneous" >
   <i type="int" name="IDIOT">     3</i>
   <i type="logical" name="LMUSIC"> F  </i>
   <v name="POMASS">     28.08500000     26.98100000     12.01100000     14.00100000</v>
   <v name="DARWINR">      0.00000000      0.00000000      0.00000000      0.00000000</v>
   <v name="DARWINV">      1.00000000      1.00000000      1.00000000      1.00000000</v>
   <i type="logical" name="LCORR"> T  </i>
  </separator>
  <i type="logical" name="GGA_COMPAT"> T  </i>
  <i type="logical" name="LBERRY"> F  </i>
  <i type="int" name="ICORELEVEL">     0</i>
  <i type="logical" name="LDAU"> F  </i>
  <i type="int" name="I_CONSTRAINED_M">     0</i>
  <separator name="electronic exchange-correlation" >
   <i type="string" name="GGA">--</i>
   <i type="int" name="VOSKOWN">     0</i>
   <i type="logical" name="LHFCALC"> F  </i>
   <i type="string" name="PRECFOCK"></i>
   <i type="logical" name="LSYMGRAD"> F  </i>
   <i type="logical" name="LHFONE"> F  </i>
   <i type="logical" name="LRHFCALC"> F  </i>
   <i type="logical" name="LTHOMAS"> F  </i>
   <i type="logical" name="LMODELHF"> F  </i>
   <i name="ENCUT4O">     -1.00000000</i>
   <i type="int" name="EXXOEP">     0</i>
   <i type="int" name="FOURORBIT">     0</i>
   <i name="AEXX">      0.00000000</i>
   <i name="HFALPHA">      0.00000000</i>
   <i name="MCALPHA">      0.00000000</i>
   <i name="ALDAX">      1.00000000</i>
   <i name="AGGAX">      1.00000000</i>
   <i name="ALDAC">      1.00000000</i>
   <i name="AGGAC">      1.00000000</i>
   <i type="int" name="NKREDX">     1</i>
   <i type="int" name="NKREDY">     1</i>
   <i type="int" name="NKREDZ">     1</i>
   <i type="logical" name="SHIFTRED"> F  </i>
   <i type="logical" name="ODDONLY"> F  </i>
   <i type="logical" name="EVENONLY"> F  </i>
   <i type="int" name="LMAXFOCK">     0</i>
   <i type="int" name="NMAXFOCKAE">     0</i>
   <i type="logical" name="LFOCKAEDFT"> F  </i>
   <i name="HFSCREEN">      0.00000000</i>
   <i name="HFSCREENC">      0.00000000</i>
   <i type="int" name="NBANDSGWLOW">     0</i>
  </separator>
  <separator name="vdW DFT" >
   <i type="logical" name="LUSE_VDW"> F  </i>
   <i name="Zab_VDW">     -0.84910000</i>
   <i name="PARAM1">      0.12340000</i>
   <i name="PARAM2">      1.00000000</i>
   <i name="PARAM3">      0.00000000</i>
  </separator>
  <separator name="model GW" >
   <i type="int" name="MODEL_GW">     0</i>
   <i name="MODEL_EPS0">      6.41726122</i>
   <i name="MODEL_ALPHA">      1.00000000</i>
  </separator>
  <separator name="linear response parameters" >
   <i type="logical" name="LEPSILON"> F  </i>
   <i type="logical" name="LRPA"> F  </i>
   <i type="logical" name="LNABLA"> F  </i>
   <i type="logical" name="LVEL"> F  </i>
   <i type="int" name="KINTER">     0</i>
   <i name="CSHIFT">      0.10000000</i>
   <i name="OMEGAMAX">     -1.00000000</i>
   <i name="DEG_THRESHOLD">      0.00200000</i>
  </separator>
  <separator name="orbital magnetization" >
   <i type="logical" name="NUCIND"> F  </i>
   <v name="MAGPOS">      0.00000000      0.00000000      0.00000000</v>
   <i type="logical" name="LNICSALL"> T  </i>
   <i type="logical" name="ORBITALMAG"> F  </i>
   <i type="logical" name="LMAGBLOCH"> F  </i>
   <i type="logical" name="LCHIMAG"> F  </i>
   <i type="logical" name="LGAUGE"> T  </i>
   <i type="int" name="MAGATOM">     0</i>
   <v name="MAGDIPOL">      0.00000000      0.00000000      0.00000000</v>
   <v name="AVECCONST">      0.00000000      0.00000000      0.00000000</v>
  </separator>
  <separator name="response functions" >
   <i type="logical" name="LADDER"> F  </i>
   <i type="logical" name="LFXC"> F  </i>
   <i type="logical" name="LHARTREE"> T  </i>
   <i type="int" name="IBSE">     0</i>
   <i type="logical" name="LTCTE"> F  </i>
   <i type="logical" name="LTETE"> F  </i>
   <i type="logical" name="LTRIPLET"> F  </i>
   <i type="logical" name="LFXCEPS"> F  </i>
   <i type="logical" name="LFXHEG"> F  </i>
   <i type="logical" name="L2ORDER"> F  </i>
   <i type="logical" name="LUSEW"> F  </i>
   <i name="ENCUTGW">     -2.00000000</i>
   <i name="ENCUTGWSOFT">     -2.00000000</i>
   <i name="ENCUTLF">     -1.00000000</i>
   <i type="int" name="LMAXMP2">    -1</i>
   <i name="SCISSOR">      0.00000000</i>
   <i type="int" name="NOMEGA">     0</i>
   <i type="int" name="NOMEGAR">     0</i>
   <i type="int" name="NBANDSGW">    -1</i>
   <i type="int" name="NBANDSO">    -1</i>
   <i type="int" name="NBANDSV">    -1</i>
   <i type="int" name="NELM">   100</i>
   <i type="int" name="DIM">     3</i>
   <i type="int" name="ANTIRES">     0</i>
   <i name="OMEGAMAX">    -30.00000000</i>
   <i name="OMEGAMIN">    -30.00000000</i>
   <i name="OMEGATL">   -200.00000000</i>
   <i type="int" name="OMEGAGRID">     0</i>
   <i name="CSHIFT">     -0.10000000</i>
   <i type="logical" name="SELFENERGY"> F  </i>
   <i type="logical" name="LSPECTRAL"> F  </i>
   <i type="logical" name="ODDONLYGW"> F  </i>
   <i type="logical" name="EVENONLYGW"> F  </i>
   <i type="int" name="NKREDLFX">     1</i>
   <i type="int" name="NKREDLFY">     1</i>
   <i type="int" name="NKREDLFZ">     1</i>
   <i type="int" name="MAXMEM">  1800</i>
   <i type="int" name="TELESCOPE">     0</i>
   <i type="int" name="TAUPAR">     1</i>
  </separator>
  <separator name="External order field" >
   <i name="OFIELD_KAPPA">      0.00000000</i>
   <v name="OFIELD_K">      0.00000000      0.00000000      0.00000000</v>
   <i name="OFIELD_Q6_NEAR">      0.00000000</i>
   <i name="OFIELD_Q6_FAR">      0.00000000</i>
   <i name="OFIELD_A">      0.00000000</i>
  </separator>
 </parameters>
 <atominfo>
  <atoms>      16 </atoms>
  <types>       4 </types>
  <array name="atoms" >
   <dimension dim="1">ion</dimension>
   <field type="string">element</field>
   <field type="int">atomtype</field>
   <set>
    <rc><c>Si</c><c>   1</c></rc>
    <rc><c>Si</c><c>   1</c></rc>
    <rc><c>Si</c><c>   1</c></rc>
    <rc><c>Si</c><c>   1</c></rc>
    <rc><c>Al</c><c>   2</c></rc>
    <rc><c>Al</c><c>   2</c></rc>
    <rc><c>Al</c><c>   2</c></rc>
    <rc><c>Al</c><c>   2</c></rc>
    <rc><c>C </c><c>   3</c></rc>
    <rc><c>C </c><c>   3</c></rc>
    <rc><c>C </c><c>   3</c></rc>
    <rc><c>C </c><c>   3</c></rc>
    <rc><c>N </c><c>   4</c></rc>
    <rc><c>N </c><c>   4</c></rc>
    <rc><c>N </c><c>   4</c></rc>
    <rc><c>N </c><c>   4</c></rc>
   </set>
  </array>
  <array name="atomtypes" >
   <dimension dim="1">type</dimension>
   <field type="int">atomspertype</field>
   <field type="string">element</field>
   <field>mass</field>
   <field>valence</field>
   <field type="string">pseudopotential</field>
   <set>
    <rc><c>   4</c><c>Si</c><c>     28.08500000</c><c>      4.00000000</c><c>  PAW_PBE Si 05Jan2001                  </c></rc>
    <rc><c>   4</c><c>Al</c><c>     26.98100000</c><c>      3.00000000</c><c>  PAW_PBE Al 04Jan2001                  </c></rc>
    <rc><c>   4</c><c>C </c><c>     12.01100000</c><c>      4.00000000</c><c>  PAW_PBE C 08Apr2002                   </c></rc>
    <rc><c>   4</c><c>N </c><c>     14.00100000</c><c>      5.00000000</c><c>  PAW_PBE N_s 07Sep2000                 </c></rc>
   </set>
  </array>
 </atominfo>
 <structure name="initialpos" >
  <crystal>
   <varray name="basis" >
    <v>      11.53947599       0.00000000       0.11619911 </v>
    <v>       0.00000000       3.13094304       0.00000000 </v>
    <v>      -2.56560705       0.00000000       4.71066133 </v>
   </varray>
   <i name="volume">    171.12696591 </i>
   <varray name="rec_basis" >
    <v>       0.08618637       0.00000000       0.04694041 </v>
    <v>       0.00000000       0.31939259       0.00000000 </v>
    <v>      -0.00212598       0.00000000       0.21112653 </v>
   </varray>
  </crystal>
  <varray name="positions" >
   <v>       0.74229570       0.50000000       0.90380897 </v>
   <v>       0.74544228       0.00000000       0.41435670 </v>
   <v>       0.24229570       0.00000000       0.90380897 </v>
   <v>       0.24544228       0.50000000       0.41435670 </v>
   <v>       0.00927378       0.00000000       0.34534391 </v>
   <v>       0.00235852       0.50000000       0.83355261 </v>
   <v>       0.50927378       0.50000000       0.34534391 </v>
   <v>       0.50235852       0.00000000       0.83355261 </v>
   <v>       0.80363137       0.50000000       0.63311213 </v>
   <v>       0.56878100       0.50000000       0.74278689 </v>
   <v>       0.30363137       0.00000000       0.63311213 </v>
   <v>       0.06878100       0.00000000       0.74278689 </v>
   <v>       0.80988131       0.00000000       0.14331439 </v>
   <v>       0.56833604       0.00000000       0.23372441 </v>
   <v>       0.30988131       0.50000000       0.14331439 </v>
   <v>       0.06833604       0.50000000       0.23372441 </v>
  </varray>
 </structure>
 <calculation>
  <scstep>
   <time name="dav">    0.54    0.54</time>
   <time name="total">    0.60    0.61</time>
   <energy>
    <i name="alphaZ">     63.55863178 </i>
    <i name="ewald">  -2272.81528706 </i>
    <i name="hartreedc">   -354.49621660 </i>
    <i name="XCdc">     -5.77450056 </i>
    <i name="pawpsdc">   1871.13760811 </i>
    <i name="pawaedc">  -1679.96522576 </i>
    <i name="eentropy">     -0.00847819 </i>
    <i name="bandstr">    438.53968958 </i>
    <i name="atom">   2273.20978491 </i>
    <i name="e_fr_energy">    333.38600621 </i>
    <i name="e_wo_entrp">    333.39448440 </i>
    <i name="e_0_energy">    333.39024530 </i>
   </energy>
  </scstep>
  <scstep>
   <time name="dav">    0.61    0.61</time>
   <time name="total">    0.62    0.63</time>
   <energy>
    <i name="e_fr_energy">   -101.66963907 </i>
    <i name="e_wo_entrp">   -101.66963907 </i>
    <i name="e_0_energy">   -101.66963907 </i>
   </energy>
  </scstep>
  <scstep>
   <time name="dav">    0.67    0.67</time>
   <time name="total">    0.67    0.69</time>
   <energy>
    <i name="e_fr_energy">   -134.11475618 </i>
    <i name="e_wo_entrp">   -134.11475618 </i>
    <i name="e_0_energy">   -134.11475618 </i>
   </energy>
  </scstep>
  <scstep>
   <time name="dav">    0.63    0.63</time>
   <time name="total">    0.63    0.64</time>
   <energy>
    <i name="e_fr_energy">   -134.92601265 </i>
    <i name="e_wo_entrp">   -134.92601265 </i>
    <i name="e_0_energy">   -134.92601265 </i>
   </energy>
  </scstep>
  <scstep>
   <time name="dav">    0.62    0.63</time>
   <time name="total">    0.72    0.73</time>
   <energy>
    <i name="e_fr_energy">   -134.95164543 </i>
    <i name="e_wo_entrp">   -134.95164543 </i>
    <i name="e_0_energy">   -134.95164543 </i>
   </energy>
  </scstep>
  <scstep>
   <time name="diag">    0.13    0.13</time>
   <time name="diis">    0.37    0.37</time>
   <time name="orth">    0.02    0.02</time>
   <time name="total">    0.67    0.69</time>
   <energy>
    <i name="e_fr_energy">   -116.45069317 </i>
    <i name="e_wo_entrp">   -116.45069317 </i>
    <i name="e_0_energy">   -116.45069317 </i>
   </energy>
  </scstep>
  <scstep>
   <time name="diag">    0.13    0.13</time>
   <time name="diis">    0.40    0.40</time>
   <time name="orth">    0.02    0.02</time>
   <time name="total">    0.70    0.72</time>
   <energy>
    <i name="e_fr_energy">   -116.27828840 </i>
    <i name="e_wo_entrp">   -116.27828840 </i>
    <i name="e_0_energy">   -116.27828840 </i>
   </energy>
  </scstep>
  <scstep>
   <time name="diag">    0.13    0.13</time>
   <time name="diis">    0.38    0.38</time>
   <time name="orth">    0.02    0.02</time>
   <time name="total">    0.67    0.69</time>
   <energy>
    <i name="e_fr_energy">   -116.78572947 </i>
    <i name="e_wo_entrp">   -116.78572947 </i>
    <i name="e_0_energy">   -116.78572947 </i>
   </energy>
  </scstep>
  <scstep>
   <time name="diag">    0.14    0.14</time>
   <time name="diis">    0.37    0.37</time>
   <time name="orth">    0.02    0.02</time>
   <time name="total">    0.68    0.69</time>
   <energy>
    <i name="e_fr_energy">   -116.14952336 </i>
    <i name="e_wo_entrp">   -116.14952336 </i>
    <i name="e_0_energy">   -116.14952336 </i>
   </energy>
  </scstep>
  <scstep>
   <time name="diag">    0.13    0.13</time>
   <time name="diis">    0.38    0.38</time>
   <time name="orth">    0.02    0.02</time>
   <time name="total">    0.68    0.69</time>
   <energy>
    <i name="e_fr_energy">   -116.15759429 </i>
    <i name="e_wo_entrp">   -116.15759429 </i>
    <i name="e_0_energy">   -116.15759429 </i>
   </energy>
  </scstep>
  <scstep>
   <time name="diag">    0.13    0.13</time>
   <time name="diis">    0.38    0.38</time>
   <time name="orth">    0.02    0.02</time>
   <time name="total">    0.68    0.69</time>
   <energy>
    <i name="e_fr_energy">   -116.15647868 </i>
    <i name="e_wo_entrp">   -116.15647868 </i>
    <i name="e_0_energy">   -116.15647868 </i>
   </energy>
  </scstep>
  <scstep>
   <time name="diag">    0.13    0.13</time>
   <time name="diis">    0.37    0.37</time>
   <time name="orth">    0.02    0.02</time>
   <time name="total">    0.67    0.68</time>
   <energy>
    <i name="e_fr_energy">   -116.15533810 </i>
    <i name="e_wo_entrp">   -116.15533810 </i>
    <i name="e_0_energy">   -116.15533810 </i>
   </energy>
  </scstep>
  <scstep>
   <time name="diag">    0.13    0.13</time>
   <time name="diis">    0.37    0.37</time>
   <time name="orth">    0.02    0.02</time>
   <time name="total">    0.67    0.69</time>
   <energy>
    <i name="e_fr_energy">   -116.15537474 </i>
    <i name="e_wo_entrp">   -116.15537474 </i>
    <i name="e_0_energy">   -116.15537474 </i>
   </energy>
  </scstep>
  <scstep>
   <time name="diag">    0.13    0.13</time>
   <time name="diis">    0.37    0.37</time>
   <time name="orth">    0.02    0.02</time>
   <time name="total">    0.67    0.69</time>
   <energy>
    <i name="e_fr_energy">   -116.15536493 </i>
    <i name="e_wo_entrp">   -116.15536493 </i>
    <i name="e_0_energy">   -116.15536493 </i>
   </energy>
  </scstep>
  <scstep>
   <time name="diag">    0.13    0.13</time>
   <time name="diis">    0.34    0.34</time>
   <time name="orth">    0.02    0.02</time>
   <time name="total">    0.64    0.65</time>
   <energy>
    <i name="e_fr_energy">   -116.15536641 </i>
    <i name="e_wo_entrp">   -116.15536641 </i>
    <i name="e_0_energy">   -116.15536641 </i>
   </energy>
  </scstep>
  <scstep>
   <time name="diag">    0.13    0.13</time>
   <time name="diis">    0.27    0.27</time>
   <time name="orth">    0.02    0.02</time>
   <time name="total">    0.47    0.48</time>
   <energy>
    <i name="alphaZ">     63.55863178 </i>
    <i name="ewald">  -2272.81528706 </i>
    <i name="hartreedc">   -462.28997795 </i>
    <i name="XCdc">      3.79999541 </i>
    <i name="pawpsdc">   9854.16898570 </i>
    <i name="pawaedc">  -9667.13013127 </i>
    <i name="eentropy">      0.00000000 </i>
    <i name="bandstr">     91.34263277 </i>
    <i name="atom">   2273.20978491 </i>
    <i name="e_fr_energy">   -116.15536570 </i>
    <i name="e_wo_entrp">   -116.15536570 </i>
    <i name="e_0_energy">   -116.15536570 </i>
   </energy>
  </scstep>
  <structure>
   <crystal>
    <varray name="basis" >
     <v>      11.53947599       0.00000000       0.11619911 </v>
     <v>       0.00000000       3.13094304       0.00000000 </v>
     <v>      -2.56560705       0.00000000       4.71066133 </v>
    </varray>
    <i name="volume">    171.12696591 </i>
    <varray name="rec_basis" >
     <v>       0.08618637       0.00000000       0.04694041 </v>
     <v>       0.00000000       0.31939259       0.00000000 </v>
     <v>      -0.00212598       0.00000000       0.21112653 </v>
    </varray>
   </crystal>
   <varray name="positions" >
    <v>       0.74229570       0.50000000       0.90380897 </v>
    <v>       0.74544228       0.00000000       0.41435670 </v>
    <v>       0.24229570       0.00000000       0.90380897 </v>
    <v>       0.24544228       0.50000000       0.41435670 </v>
    <v>       0.00927378       0.00000000       0.34534391 </v>
    <v>       0.00235852       0.50000000       0.83355261 </v>
    <v>       0.50927378       0.50000000       0.34534391 </v>
    <v>       0.50235852       0.00000000       0.83355261 </v>
    <v>       0.80363137       0.50000000       0.63311213 </v>
    <v>       0.56878100       0.50000000       0.74278689 </v>
    <v>       0.30363137       0.00000000       0.63311213 </v>
    <v>       0.06878100       0.00000000       0.74278689 </v>
    <v>       0.80988131       0.00000000       0.14331439 </v>
    <v>       0.56833604       0.00000000       0.23372441 </v>
    <v>       0.30988131       0.50000000       0.14331439 </v>
    <v>       0.06833604       0.50000000       0.23372441 </v>
   </varray>
  </structure>
  <varray name="forces" >
   <v>      -0.01004627       0.00000000      -0.01068716 </v>
   <v>      -0.00169315       0.00000000      -0.01215681 </v>
   <v>      -0.01004627       0.00000000      -0.01068716 </v>
   <v>      -0.00169315       0.00000000      -0.01215681 </v>
   <v>      -0.00973433       0.00000000       0.00953021 </v>
   <v>      -0.00500867       0.00000000       0.00684202 </v>
   <v>      -0.00973433       0.00000000       0.00953021 </v>
   <v>      -0.00500867       0.00000000       0.00684202 </v>
   <v>       0.01361838       0.00000000       0.00398659 </v>
   <v>       0.01640335       0.00000000       0.00749036 </v>
   <v>       0.01361838       0.00000000       0.00398659 </v>
   <v>       0.01640335       0.00000000       0.00749036 </v>
   <v>       0.00135511       0.00000000      -0.00710722 </v>
   <v>      -0.00489441       0.00000000       0.00210201 </v>
   <v>       0.00135511       0.00000000      -0.00710722 </v>
   <v>      -0.00489441       0.00000000       0.00210201 </v>
  </varray>
  <varray name="stress" >
   <v>      -0.70675327       0.00000000       0.12369388 </v>
   <v>       0.00000000       0.11334799       0.00000000 </v>
   <v>       0.12369366       0.00000000      -0.37872728 </v>
  </varray>
  <energy>
   <i name="e_fr_energy">   -116.15536570 </i>
   <i name="e_wo_entrp">   -116.15536570 </i>
   <i name="e_0_energy">      0.00000000 </i>
  </energy>
  <time name="totalsc">   12.09   12.34</time>
  <eigenvalues>
   <array>
    <dimension dim="1">band</dimension>
    <dimension dim="2">kpoint</dimension>
    <dimension dim="3">spin</dimension>
    <field>eigene</field>
    <field>occ</field>
    <set>
     <set comment="spin 1">
      <set comment="kpoint 1">
       <r>   -9.1555    1.0000 </r>
       <r>   -8.8249    1.0000 </r>
       <r>   -7.8201    1.0000 </r>
       <r>   -7.3565    1.0000 </r>
       <r>   -4.5947    1.0000 </r>
       <r>   -4.4484    1.0000 </r>
       <r>   -3.5394    1.0000 </r>
       <r>   -2.9652    1.0000 </r>
       <r>   -0.8408    1.0000 </r>
       <r>   -0.2432    1.0000 </r>
       <r>   -0.1386    1.0000 </r>
       <r>    1.2668    1.0000 </r>
       <r>    2.2602    1.0000 </r>
       <r>    2.3266    1.0000 </r>
       <r>    2.8179    1.0000 </r>
       <r>    3.5006    1.0000 </r>
       <r>    3.6625    1.0000 </r>
       <r>    3.8349    1.0000 </r>
       <r>    4.3657    1.0000 </r>
       <r>    4.9202    1.0000 </r>
       <r>    4.9757    1.0000 </r>
       <r>    5.0951    1.0000 </r>
       <r>    5.1831    1.0000 </r>
       <r>    5.6945    1.0000 </r>
       <r>    5.7585    1.0000 </r>
       <r>    6.1970    1.0000 </r>
       <r>    6.3014    1.0000 </r>
       <r>    7.1215    1.0000 </r>
       <r>    7.3389    1.0000 </r>
       <r>    7.6175    1.0000 </r>
       <r>    8.0817    1.0000 </r>
       <r>    8.1720    1.0000 </r>
       <r>    9.5759    0.0000 </r>
       <r>   10.0830    0.0000 </r>
       <r>   11.3323    0.0000 </r>
       <r>   11.8364    0.0000 </r>
       <r>   11.9613    0.0000 </r>
       <r>   12.1249    0.0000 </r>
       <r>   13.2105    0.0000 </r>
       <r>   13.5850    0.0000 </r>
       <r>   13.6872    0.0000 </r>
       <r>   14.6602    0.0000 </r>
       <r>   14.9777    0.0000 </r>
       <r>   15.4497    0.0000 </r>
      </set>
      <set comment="kpoint 2">
       <r>   -9.0158    1.0000 </r>
       <r>   -9.0158    1.0000 </r>
       <r>   -7.5642    1.0000 </r>
       <r>   -7.5642    1.0000 </r>
       <r>   -4.5109    1.0000 </r>
       <r>   -4.5109    1.0000 </r>
       <r>   -3.3152    1.0000 </r>
       <r>   -3.3152    1.0000 </r>
       <r>   -0.6108    1.0000 </r>
       <r>   -0.6108    1.0000 </r>
       <r>    0.8977    1.0000 </r>
       <r>    0.8977    1.0000 </r>
       <r>    1.7615    1.0000 </r>
       <r>    1.7615    1.0000 </r>
       <r>    3.4354    1.0000 </r>
       <r>    3.4354    1.0000 </r>
       <r>    3.5761    1.0000 </r>
       <r>    3.5761    1.0000 </r>
       <r>    4.8655    1.0000 </r>
       <r>    4.8655    1.0000 </r>
       <r>    5.0117    1.0000 </r>
       <r>    5.0117    1.0000 </r>
       <r>    5.6585    1.0000 </r>
       <r>    5.6585    1.0000 </r>
       <r>    6.2139    1.0000 </r>
       <r>    6.2139    1.0000 </r>
       <r>    6.2542    1.0000 </r>
       <r>    6.2542    1.0000 </r>
       <r>    7.4728    1.0000 </r>
       <r>    7.4728    1.0000 </r>
       <r>    8.1190    1.0000 </r>
       <r>    8.1190    1.0000 </r>
       <r>    9.7666    0.0000 </r>
       <r>    9.7666    0.0000 </r>
       <r>   11.5047    0.0000 </r>
       <r>   11.5047    0.0000 </r>
       <r>   12.0055    0.0000 </r>
       <r>   12.0055    0.0000 </r>
       <r>   13.4532    0.0000 </r>
       <r>   13.4537    0.0000 </r>
       <r>   14.6110    0.0000 </r>
       <r>   14.7396    0.0000 </r>
       <r>   14.8759    0.0000 </r>
       <r>   15.2686    0.0000 </r>
      </set>
      <set comment="kpoint 3">
       <r>   -8.9068    1.0000 </r>
       <r>   -8.5963    1.0000 </r>
       <r>   -7.6325    1.0000 </r>
       <r>   -7.2146    1.0000 </r>
       <r>   -4.3807    1.0000 </r>
       <r>   -4.2776    1.0000 </r>
       <r>   -3.3752    1.0000 </r>
       <r>   -2.7469    1.0000 </r>
       <r>   -0.6112    1.0000 </r>
       <r>    0.0109    1.0000 </r>
       <r>    0.1641    1.0000 </r>
       <r>    1.4984    1.0000 </r>
       <r>    1.9676    1.0000 </r>
       <r>    2.3304    1.0000 </r>
       <r>    2.3777    1.0000 </r>
       <r>    2.8780    1.0000 </r>
       <r>    2.9308    1.0000 </r>
       <r>    3.5810    1.0000 </r>
       <r>    3.6883    1.0000 </r>
       <r>    4.3281    1.0000 </r>
       <r>    4.6128    1.0000 </r>
       <r>    4.8936    1.0000 </r>
       <r>    4.9143    1.0000 </r>
       <r>    4.9894    1.0000 </r>
       <r>    5.1348    1.0000 </r>
       <r>    5.4441    1.0000 </r>
       <r>    5.8133    1.0000 </r>
       <r>    6.8550    1.0000 </r>
       <r>    7.0323    1.0000 </r>
       <r>    7.1102    1.0000 </r>
       <r>    7.1575    1.0000 </r>
       <r>    7.5714    1.0000 </r>
       <r>   10.7332    0.0000 </r>
       <r>   11.0038    0.0000 </r>
       <r>   12.0093    0.0000 </r>
       <r>   12.0921    0.0000 </r>
       <r>   13.0623    0.0000 </r>
       <r>   13.2259    0.0000 </r>
       <r>   13.3311    0.0000 </r>
       <r>   13.5900    0.0000 </r>
       <r>   14.1057    0.0000 </r>
       <r>   14.1343    0.0000 </r>
       <r>   14.4504    0.0000 </r>
       <r>   14.8024    0.0000 </r>
      </set>
      <set comment="kpoint 4">
       <r>   -8.7747    1.0000 </r>
       <r>   -8.7747    1.0000 </r>
       <r>   -7.4012    1.0000 </r>
       <r>   -7.4012    1.0000 </r>
       <r>   -4.3251    1.0000 </r>
       <r>   -4.3251    1.0000 </r>
       <r>   -3.1131    1.0000 </r>
       <r>   -3.1131    1.0000 </r>
       <r>   -0.3574    1.0000 </r>
       <r>   -0.3574    1.0000 </r>
       <r>    1.0871    1.0000 </r>
       <r>    1.0871    1.0000 </r>
       <r>    1.8799    1.0000 </r>
       <r>    1.8799    1.0000 </r>
       <r>    2.3678    1.0000 </r>
       <r>    2.3678    1.0000 </r>
       <r>    3.6579    1.0000 </r>
       <r>    3.6579    1.0000 </r>
       <r>    3.9389    1.0000 </r>
       <r>    3.9389    1.0000 </r>
       <r>    4.6757    1.0000 </r>
       <r>    4.6757    1.0000 </r>
       <r>    5.0241    1.0000 </r>
       <r>    5.0241    1.0000 </r>
       <r>    5.3887    1.0000 </r>
       <r>    5.3887    1.0000 </r>
       <r>    6.2921    1.0000 </r>
       <r>    6.2921    1.0000 </r>
       <r>    7.0813    1.0000 </r>
       <r>    7.0813    1.0000 </r>
       <r>    7.2989    1.0000 </r>
       <r>    7.2989    1.0000 </r>
       <r>   10.8663    0.0000 </r>
       <r>   10.8663    0.0000 </r>
       <r>   12.2491    0.0000 </r>
       <r>   12.2491    0.0000 </r>
       <r>   13.0591    0.0000 </r>
       <r>   13.0595    0.0000 </r>
       <r>   13.4565    0.0000 </r>
       <r>   13.4571    0.0000 </r>
       <r>   14.0029    0.0000 </r>
       <r>   14.0065    0.0000 </r>
       <r>   14.9544    0.0000 </r>
       <r>   14.9909    0.0000 </r>
      </set>
      <set comment="kpoint 5">
       <r>   -8.2794    1.0000 </r>
       <r>   -8.0539    1.0000 </r>
       <r>   -7.1904    1.0000 </r>
       <r>   -6.9254    1.0000 </r>
       <r>   -4.0736    1.0000 </r>
       <r>   -4.0204    1.0000 </r>
       <r>   -2.8580    1.0000 </r>
       <r>   -2.2128    1.0000 </r>
       <r>   -0.3272    1.0000 </r>
       <r>    0.5199    1.0000 </r>
       <r>    0.8480    1.0000 </r>
       <r>    0.8793    1.0000 </r>
       <r>    1.2604    1.0000 </r>
       <r>    1.3737    1.0000 </r>
       <r>    1.9393    1.0000 </r>
       <r>    2.1451    1.0000 </r>
       <r>    2.6413    1.0000 </r>
       <r>    3.0453    1.0000 </r>
       <r>    3.1011    1.0000 </r>
       <r>    3.3457    1.0000 </r>
       <r>    3.6499    1.0000 </r>
       <r>    3.8252    1.0000 </r>
       <r>    4.1443    1.0000 </r>
       <r>    4.5800    1.0000 </r>
       <r>    4.6001    1.0000 </r>
       <r>    5.0399    1.0000 </r>
       <r>    5.1625    1.0000 </r>
       <r>    5.7923    1.0000 </r>
       <r>    5.9083    1.0000 </r>
       <r>    6.4910    1.0000 </r>
       <r>    6.5384    1.0000 </r>
       <r>    7.2845    1.0000 </r>
       <r>   10.6019    0.0000 </r>
       <r>   12.2985    0.0000 </r>
       <r>   12.4376    0.0000 </r>
       <r>   12.7570    0.0000 </r>
       <r>   12.9566    0.0000 </r>
       <r>   13.0384    0.0000 </r>
       <r>   13.5449    0.0000 </r>
       <r>   13.7885    0.0000 </r>
       <r>   13.8638    0.0000 </r>
       <r>   14.0149    0.0000 </r>
       <r>   14.6714    0.0000 </r>
       <r>   14.9918    0.0000 </r>
      </set>
      <set comment="kpoint 6">
       <r>   -8.1799    1.0000 </r>
       <r>   -8.1799    1.0000 </r>
       <r>   -7.0449    1.0000 </r>
       <r>   -7.0449    1.0000 </r>
       <r>   -4.0522    1.0000 </r>
       <r>   -4.0522    1.0000 </r>
       <r>   -2.5615    1.0000 </r>
       <r>   -2.5615    1.0000 </r>
       <r>    0.0285    1.0000 </r>
       <r>    0.0285    1.0000 </r>
       <r>    0.9599    1.0000 </r>
       <r>    0.9599    1.0000 </r>
       <r>    1.2565    1.0000 </r>
       <r>    1.2565    1.0000 </r>
       <r>    2.3217    1.0000 </r>
       <r>    2.3217    1.0000 </r>
       <r>    2.5804    1.0000 </r>
       <r>    2.5804    1.0000 </r>
       <r>    3.3012    1.0000 </r>
       <r>    3.3012    1.0000 </r>
       <r>    3.9361    1.0000 </r>
       <r>    3.9361    1.0000 </r>
       <r>    3.9771    1.0000 </r>
       <r>    3.9771    1.0000 </r>
       <r>    4.9092    1.0000 </r>
       <r>    4.9092    1.0000 </r>
       <r>    5.3759    1.0000 </r>
       <r>    5.3759    1.0000 </r>
       <r>    6.3485    1.0000 </r>
       <r>    6.3485    1.0000 </r>
       <r>    6.8714    1.0000 </r>
       <r>    6.8714    1.0000 </r>
       <r>   11.5618    0.0000 </r>
       <r>   11.5618    0.0000 </r>
       <r>   12.5469    0.0000 </r>
       <r>   12.5469    0.0000 </r>
       <r>   12.8670    0.0000 </r>
       <r>   12.8671    0.0000 </r>
       <r>   13.8831    0.0000 </r>
       <r>   13.8876    0.0000 </r>
       <r>   14.0551    0.0000 </r>
       <r>   14.0646    0.0000 </r>
       <r>   14.8148    0.0000 </r>
       <r>   14.8591    0.0000 </r>
      </set>
      <set comment="kpoint 7">
       <r>   -7.7813    1.0000 </r>
       <r>   -7.7813    1.0000 </r>
       <r>   -6.8565    1.0000 </r>
       <r>   -6.8565    1.0000 </r>
       <r>   -4.0847    1.0000 </r>
       <r>   -4.0847    1.0000 </r>
       <r>   -2.0710    1.0000 </r>
       <r>   -2.0710    1.0000 </r>
       <r>   -0.0694    1.0000 </r>
       <r>   -0.0694    1.0000 </r>
       <r>    0.5209    1.0000 </r>
       <r>    0.5209    1.0000 </r>
       <r>    1.5910    1.0000 </r>
       <r>    1.5910    1.0000 </r>
       <r>    1.8261    1.0000 </r>
       <r>    1.8261    1.0000 </r>
       <r>    2.4354    1.0000 </r>
       <r>    2.4354    1.0000 </r>
       <r>    2.8191    1.0000 </r>
       <r>    2.8191    1.0000 </r>
       <r>    3.4662    1.0000 </r>
       <r>    3.4662    1.0000 </r>
       <r>    4.1181    1.0000 </r>
       <r>    4.1181    1.0000 </r>
       <r>    4.5183    1.0000 </r>
       <r>    4.5183    1.0000 </r>
       <r>    5.3158    1.0000 </r>
       <r>    5.3158    1.0000 </r>
       <r>    5.7405    1.0000 </r>
       <r>    5.7405    1.0000 </r>
       <r>    6.7430    1.0000 </r>
       <r>    6.7430    1.0000 </r>
       <r>   11.3617    0.0000 </r>
       <r>   11.3617    0.0000 </r>
       <r>   12.4588    0.0000 </r>
       <r>   12.4590    0.0000 </r>
       <r>   12.6271    0.0000 </r>
       <r>   12.6272    0.0000 </r>
       <r>   13.7855    0.0000 </r>
       <r>   13.7950    0.0000 </r>
       <r>   14.4138    0.0000 </r>
       <r>   14.4320    0.0000 </r>
       <r>   14.7943    0.0000 </r>
       <r>   14.8516    0.0000 </r>
      </set>
      <set comment="kpoint 8">
       <r>   -7.7805    1.0000 </r>
       <r>   -7.7805    1.0000 </r>
       <r>   -6.8583    1.0000 </r>
       <r>   -6.8583    1.0000 </r>
       <r>   -4.0834    1.0000 </r>
       <r>   -4.0834    1.0000 </r>
       <r>   -2.0572    1.0000 </r>
       <r>   -2.0572    1.0000 </r>
       <r>    0.0515    1.0000 </r>
       <r>    0.0515    1.0000 </r>
       <r>    0.2605    1.0000 </r>
       <r>    0.2605    1.0000 </r>
       <r>    1.6680    1.0000 </r>
       <r>    1.6680    1.0000 </r>
       <r>    1.8037    1.0000 </r>
       <r>    1.8037    1.0000 </r>
       <r>    2.4654    1.0000 </r>
       <r>    2.4654    1.0000 </r>
       <r>    3.1037    1.0000 </r>
       <r>    3.1037    1.0000 </r>
       <r>    3.3393    1.0000 </r>
       <r>    3.3393    1.0000 </r>
       <r>    4.1270    1.0000 </r>
       <r>    4.1270    1.0000 </r>
       <r>    4.6731    1.0000 </r>
       <r>    4.6731    1.0000 </r>
       <r>    4.8535    1.0000 </r>
       <r>    4.8535    1.0000 </r>
       <r>    5.8917    1.0000 </r>
       <r>    5.8917    1.0000 </r>
       <r>    6.6910    1.0000 </r>
       <r>    6.6910    1.0000 </r>
       <r>   11.7859    0.0000 </r>
       <r>   11.7859    0.0000 </r>
       <r>   12.2422    0.0000 </r>
       <r>   12.2422    0.0000 </r>
       <r>   13.1431    0.0000 </r>
       <r>   13.1436    0.0000 </r>
       <r>   13.4620    0.0000 </r>
       <r>   13.4623    0.0000 </r>
       <r>   13.9785    0.0000 </r>
       <r>   13.9803    0.0000 </r>
       <r>   14.9060    0.0000 </r>
       <r>   14.9658    0.0000 </r>
      </set>
      <set comment="kpoint 9">
       <r>   -9.0095    1.0000 </r>
       <r>   -8.7566    1.0000 </r>
       <r>   -7.8544    1.0000 </r>
       <r>   -7.4411    1.0000 </r>
       <r>   -5.0180    1.0000 </r>
       <r>   -4.8820    1.0000 </r>
       <r>   -3.3699    1.0000 </r>
       <r>   -3.0919    1.0000 </r>
       <r>   -0.0073    1.0000 </r>
       <r>    0.2002    1.0000 </r>
       <r>    0.4122    1.0000 </r>
       <r>    1.7618    1.0000 </r>
       <r>    1.9399    1.0000 </r>
       <r>    2.0691    1.0000 </r>
       <r>    3.1896    1.0000 </r>
       <r>    3.6271    1.0000 </r>
       <r>    3.7211    1.0000 </r>
       <r>    3.7353    1.0000 </r>
       <r>    4.2576    1.0000 </r>
       <r>    4.4720    1.0000 </r>
       <r>    4.8572    1.0000 </r>
       <r>    5.0264    1.0000 </r>
       <r>    5.0681    1.0000 </r>
       <r>    5.1688    1.0000 </r>
       <r>    5.7246    1.0000 </r>
       <r>    6.1181    1.0000 </r>
       <r>    6.1438    1.0000 </r>
       <r>    6.1830    1.0000 </r>
       <r>    6.6858    1.0000 </r>
       <r>    7.4782    1.0000 </r>
       <r>    8.0451    1.0000 </r>
       <r>    8.0989    1.0000 </r>
       <r>   10.2095    0.0000 </r>
       <r>   10.4190    0.0000 </r>
       <r>   11.9688    0.0000 </r>
       <r>   11.9965    0.0000 </r>
       <r>   12.4413    0.0000 </r>
       <r>   12.5889    0.0000 </r>
       <r>   13.4326    0.0000 </r>
       <r>   13.7298    0.0000 </r>
       <r>   14.0001    0.0000 </r>
       <r>   14.0382    0.0000 </r>
       <r>   14.5292    0.0000 </r>
       <r>   15.3752    0.0000 </r>
      </set>
      <set comment="kpoint 10">
       <r>   -8.9636    1.0000 </r>
       <r>   -8.8325    1.0000 </r>
       <r>   -7.6804    1.0000 </r>
       <r>   -7.5913    1.0000 </r>
       <r>   -5.1391    1.0000 </r>
       <r>   -4.7314    1.0000 </r>
       <r>   -3.2424    1.0000 </r>
       <r>   -3.2400    1.0000 </r>
       <r>   -0.1543    1.0000 </r>
       <r>    0.2359    1.0000 </r>
       <r>    0.4307    1.0000 </r>
       <r>    1.7713    1.0000 </r>
       <r>    2.0221    1.0000 </r>
       <r>    2.5767    1.0000 </r>
       <r>    2.8424    1.0000 </r>
       <r>    3.6396    1.0000 </r>
       <r>    3.7007    1.0000 </r>
       <r>    3.7189    1.0000 </r>
       <r>    3.7975    1.0000 </r>
       <r>    4.4771    1.0000 </r>
       <r>    4.8333    1.0000 </r>
       <r>    4.9337    1.0000 </r>
       <r>    4.9530    1.0000 </r>
       <r>    5.5167    1.0000 </r>
       <r>    5.8158    1.0000 </r>
       <r>    6.0534    1.0000 </r>
       <r>    6.2112    1.0000 </r>
       <r>    6.5459    1.0000 </r>
       <r>    6.9418    1.0000 </r>
       <r>    7.0092    1.0000 </r>
       <r>    8.0665    1.0000 </r>
       <r>    8.0756    1.0000 </r>
       <r>   10.0922    0.0000 </r>
       <r>   10.4715    0.0000 </r>
       <r>   11.5868    0.0000 </r>
       <r>   12.2853    0.0000 </r>
       <r>   12.3421    0.0000 </r>
       <r>   12.7255    0.0000 </r>
       <r>   13.4942    0.0000 </r>
       <r>   13.6425    0.0000 </r>
       <r>   14.0690    0.0000 </r>
       <r>   14.2439    0.0000 </r>
       <r>   15.1573    0.0000 </r>
       <r>   15.4682    0.0000 </r>
      </set>
      <set comment="kpoint 11">
       <r>   -8.7733    1.0000 </r>
       <r>   -8.5341    1.0000 </r>
       <r>   -7.6661    1.0000 </r>
       <r>   -7.2850    1.0000 </r>
       <r>   -4.7836    1.0000 </r>
       <r>   -4.6253    1.0000 </r>
       <r>   -3.2100    1.0000 </r>
       <r>   -2.8645    1.0000 </r>
       <r>    0.0864    1.0000 </r>
       <r>    0.3616    1.0000 </r>
       <r>    0.6465    1.0000 </r>
       <r>    1.7053    1.0000 </r>
       <r>    2.0134    1.0000 </r>
       <r>    2.0267    1.0000 </r>
       <r>    2.5663    1.0000 </r>
       <r>    2.5793    1.0000 </r>
       <r>    3.2760    1.0000 </r>
       <r>    3.3448    1.0000 </r>
       <r>    3.6853    1.0000 </r>
       <r>    4.1924    1.0000 </r>
       <r>    4.3750    1.0000 </r>
       <r>    4.4777    1.0000 </r>
       <r>    4.9579    1.0000 </r>
       <r>    5.0963    1.0000 </r>
       <r>    5.3131    1.0000 </r>
       <r>    5.3149    1.0000 </r>
       <r>    5.7866    1.0000 </r>
       <r>    6.2099    1.0000 </r>
       <r>    6.6532    1.0000 </r>
       <r>    7.0637    1.0000 </r>
       <r>    7.2365    1.0000 </r>
       <r>    7.5666    1.0000 </r>
       <r>   11.1859    0.0000 </r>
       <r>   11.3467    0.0000 </r>
       <r>   12.3595    0.0000 </r>
       <r>   12.3600    0.0000 </r>
       <r>   12.7864    0.0000 </r>
       <r>   12.9310    0.0000 </r>
       <r>   13.4941    0.0000 </r>
       <r>   13.7038    0.0000 </r>
       <r>   14.0756    0.0000 </r>
       <r>   14.1382    0.0000 </r>
       <r>   14.6162    0.0000 </r>
       <r>   14.6571    0.0000 </r>
      </set>
      <set comment="kpoint 12">
       <r>   -8.7268    1.0000 </r>
       <r>   -8.6093    1.0000 </r>
       <r>   -7.4991    1.0000 </r>
       <r>   -7.4280    1.0000 </r>
       <r>   -4.8833    1.0000 </r>
       <r>   -4.5075    1.0000 </r>
       <r>   -3.0657    1.0000 </r>
       <r>   -3.0219    1.0000 </r>
       <r>   -0.0247    1.0000 </r>
       <r>    0.3967    1.0000 </r>
       <r>    0.6499    1.0000 </r>
       <r>    1.7531    1.0000 </r>
       <r>    1.9840    1.0000 </r>
       <r>    2.1866    1.0000 </r>
       <r>    2.6331    1.0000 </r>
       <r>    2.6692    1.0000 </r>
       <r>    3.2479    1.0000 </r>
       <r>    3.4621    1.0000 </r>
       <r>    3.4742    1.0000 </r>
       <r>    3.9047    1.0000 </r>
       <r>    4.4038    1.0000 </r>
       <r>    4.4904    1.0000 </r>
       <r>    4.6978    1.0000 </r>
       <r>    4.9753    1.0000 </r>
       <r>    5.3055    1.0000 </r>
       <r>    5.5948    1.0000 </r>
       <r>    5.9263    1.0000 </r>
       <r>    6.4634    1.0000 </r>
       <r>    6.7710    1.0000 </r>
       <r>    6.9456    1.0000 </r>
       <r>    7.2162    1.0000 </r>
       <r>    7.4298    1.0000 </r>
       <r>   11.1034    0.0000 </r>
       <r>   11.5145    0.0000 </r>
       <r>   12.1485    0.0000 </r>
       <r>   12.3421    0.0000 </r>
       <r>   12.6930    0.0000 </r>
       <r>   12.9161    0.0000 </r>
       <r>   13.3821    0.0000 </r>
       <r>   13.6767    0.0000 </r>
       <r>   14.0877    0.0000 </r>
       <r>   14.3783    0.0000 </r>
       <r>   14.8960    0.0000 </r>
       <r>   15.0249    0.0000 </r>
      </set>
      <set comment="kpoint 13">
       <r>   -8.1885    1.0000 </r>
       <r>   -8.0110    1.0000 </r>
       <r>   -7.2205    1.0000 </r>
       <r>   -6.9603    1.0000 </r>
       <r>   -4.2461    1.0000 </r>
       <r>   -4.0746    1.0000 </r>
       <r>   -2.8228    1.0000 </r>
       <r>   -2.3541    1.0000 </r>
       <r>   -0.2954    1.0000 </r>
       <r>    0.1338    1.0000 </r>
       <r>    0.7119    1.0000 </r>
       <r>    0.7594    1.0000 </r>
       <r>    1.6520    1.0000 </r>
       <r>    1.7359    1.0000 </r>
       <r>    1.8671    1.0000 </r>
       <r>    2.2903    1.0000 </r>
       <r>    2.3189    1.0000 </r>
       <r>    2.7779    1.0000 </r>
       <r>    3.2692    1.0000 </r>
       <r>    3.6006    1.0000 </r>
       <r>    3.7623    1.0000 </r>
       <r>    4.1308    1.0000 </r>
       <r>    4.4753    1.0000 </r>
       <r>    4.4793    1.0000 </r>
       <r>    4.8917    1.0000 </r>
       <r>    5.1508    1.0000 </r>
       <r>    5.3651    1.0000 </r>
       <r>    5.5207    1.0000 </r>
       <r>    6.1339    1.0000 </r>
       <r>    6.6204    1.0000 </r>
       <r>    6.7904    1.0000 </r>
       <r>    7.2559    1.0000 </r>
       <r>   11.0260    0.0000 </r>
       <r>   11.1977    0.0000 </r>
       <r>   11.4140    0.0000 </r>
       <r>   12.0242    0.0000 </r>
       <r>   12.5774    0.0000 </r>
       <r>   12.8497    0.0000 </r>
       <r>   13.0702    0.0000 </r>
       <r>   13.5428    0.0000 </r>
       <r>   14.0369    0.0000 </r>
       <r>   14.0824    0.0000 </r>
       <r>   14.4892    0.0000 </r>
       <r>   15.2419    0.0000 </r>
      </set>
      <set comment="kpoint 14">
       <r>   -8.1450    1.0000 </r>
       <r>   -8.0735    1.0000 </r>
       <r>   -7.0926    1.0000 </r>
       <r>   -7.0702    1.0000 </r>
       <r>   -4.2904    1.0000 </r>
       <r>   -4.0384    1.0000 </r>
       <r>   -2.6698    1.0000 </r>
       <r>   -2.5087    1.0000 </r>
       <r>   -0.2875    1.0000 </r>
       <r>    0.1287    1.0000 </r>
       <r>    0.7212    1.0000 </r>
       <r>    0.7326    1.0000 </r>
       <r>    1.5678    1.0000 </r>
       <r>    1.7523    1.0000 </r>
       <r>    1.9602    1.0000 </r>
       <r>    2.3401    1.0000 </r>
       <r>    2.3844    1.0000 </r>
       <r>    2.7328    1.0000 </r>
       <r>    3.3364    1.0000 </r>
       <r>    3.3955    1.0000 </r>
       <r>    4.0341    1.0000 </r>
       <r>    4.1843    1.0000 </r>
       <r>    4.3147    1.0000 </r>
       <r>    4.3348    1.0000 </r>
       <r>    4.6537    1.0000 </r>
       <r>    5.1268    1.0000 </r>
       <r>    5.2999    1.0000 </r>
       <r>    6.0290    1.0000 </r>
       <r>    6.3172    1.0000 </r>
       <r>    6.4169    1.0000 </r>
       <r>    6.7781    1.0000 </r>
       <r>    7.1610    1.0000 </r>
       <r>   11.0366    0.0000 </r>
       <r>   11.1219    0.0000 </r>
       <r>   11.3940    0.0000 </r>
       <r>   12.0586    0.0000 </r>
       <r>   12.3321    0.0000 </r>
       <r>   12.9153    0.0000 </r>
       <r>   13.4220    0.0000 </r>
       <r>   13.5505    0.0000 </r>
       <r>   14.0232    0.0000 </r>
       <r>   14.1744    0.0000 </r>
       <r>   14.3891    0.0000 </r>
       <r>   15.1277    0.0000 </r>
      </set>
      <set comment="kpoint 15">
       <r>   -7.7457    1.0000 </r>
       <r>   -7.7457    1.0000 </r>
       <r>   -6.8729    1.0000 </r>
       <r>   -6.8729    1.0000 </r>
       <r>   -3.9440    1.0000 </r>
       <r>   -3.9440    1.0000 </r>
       <r>   -2.2052    1.0000 </r>
       <r>   -2.2052    1.0000 </r>
       <r>   -0.4786    1.0000 </r>
       <r>   -0.4786    1.0000 </r>
       <r>   -0.0371    1.0000 </r>
       <r>   -0.0371    1.0000 </r>
       <r>    1.5242    1.0000 </r>
       <r>    1.5242    1.0000 </r>
       <r>    2.0536    1.0000 </r>
       <r>    2.0536    1.0000 </r>
       <r>    2.7053    1.0000 </r>
       <r>    2.7053    1.0000 </r>
       <r>    3.3088    1.0000 </r>
       <r>    3.3088    1.0000 </r>
       <r>    3.6682    1.0000 </r>
       <r>    3.6682    1.0000 </r>
       <r>    4.1412    1.0000 </r>
       <r>    4.1412    1.0000 </r>
       <r>    4.9661    1.0000 </r>
       <r>    4.9661    1.0000 </r>
       <r>    5.3481    1.0000 </r>
       <r>    5.3481    1.0000 </r>
       <r>    6.1008    1.0000 </r>
       <r>    6.1008    1.0000 </r>
       <r>    6.8284    1.0000 </r>
       <r>    6.8284    1.0000 </r>
       <r>   10.9225    0.0000 </r>
       <r>   10.9225    0.0000 </r>
       <r>   11.6292    0.0000 </r>
       <r>   11.6292    0.0000 </r>
       <r>   12.3572    0.0000 </r>
       <r>   12.3572    0.0000 </r>
       <r>   12.4901    0.0000 </r>
       <r>   12.4901    0.0000 </r>
       <r>   13.9087    0.0000 </r>
       <r>   13.9099    0.0000 </r>
       <r>   14.6491    0.0000 </r>
       <r>   14.6573    0.0000 </r>
      </set>
      <set comment="kpoint 16">
       <r>   -7.7457    1.0000 </r>
       <r>   -7.7457    1.0000 </r>
       <r>   -6.8730    1.0000 </r>
       <r>   -6.8730    1.0000 </r>
       <r>   -3.9428    1.0000 </r>
       <r>   -3.9428    1.0000 </r>
       <r>   -2.2081    1.0000 </r>
       <r>   -2.2081    1.0000 </r>
       <r>   -0.4937    1.0000 </r>
       <r>   -0.4937    1.0000 </r>
       <r>   -0.0179    1.0000 </r>
       <r>   -0.0179    1.0000 </r>
       <r>    1.5106    1.0000 </r>
       <r>    1.5106    1.0000 </r>
       <r>    2.1704    1.0000 </r>
       <r>    2.1704    1.0000 </r>
       <r>    2.7509    1.0000 </r>
       <r>    2.7509    1.0000 </r>
       <r>    2.9784    1.0000 </r>
       <r>    2.9784    1.0000 </r>
       <r>    3.6943    1.0000 </r>
       <r>    3.6943    1.0000 </r>
       <r>    4.2445    1.0000 </r>
       <r>    4.2445    1.0000 </r>
       <r>    5.0787    1.0000 </r>
       <r>    5.0787    1.0000 </r>
       <r>    5.4109    1.0000 </r>
       <r>    5.4109    1.0000 </r>
       <r>    6.0148    1.0000 </r>
       <r>    6.0148    1.0000 </r>
       <r>    6.7879    1.0000 </r>
       <r>    6.7879    1.0000 </r>
       <r>   10.8795    0.0000 </r>
       <r>   10.8795    0.0000 </r>
       <r>   11.5838    0.0000 </r>
       <r>   11.5838    0.0000 </r>
       <r>   12.2760    0.0000 </r>
       <r>   12.2760    0.0000 </r>
       <r>   12.5989    0.0000 </r>
       <r>   12.5989    0.0000 </r>
       <r>   14.0906    0.0000 </r>
       <r>   14.0943    0.0000 </r>
       <r>   14.9365    0.0000 </r>
       <r>   14.9635    0.0000 </r>
      </set>
      <set comment="kpoint 17">
       <r>   -8.8284    1.0000 </r>
       <r>   -8.6569    1.0000 </r>
       <r>   -7.9453    1.0000 </r>
       <r>   -7.5543    1.0000 </r>
       <r>   -5.4621    1.0000 </r>
       <r>   -4.9579    1.0000 </r>
       <r>   -3.4661    1.0000 </r>
       <r>   -3.2453    1.0000 </r>
       <r>    0.8795    1.0000 </r>
       <r>    1.1077    1.0000 </r>
       <r>    1.3647    1.0000 </r>
       <r>    1.5174    1.0000 </r>
       <r>    2.0732    1.0000 </r>
       <r>    2.3077    1.0000 </r>
       <r>    3.1091    1.0000 </r>
       <r>    3.1203    1.0000 </r>
       <r>    3.7458    1.0000 </r>
       <r>    3.7862    1.0000 </r>
       <r>    3.8294    1.0000 </r>
       <r>    3.8929    1.0000 </r>
       <r>    4.3911    1.0000 </r>
       <r>    4.7493    1.0000 </r>
       <r>    4.9190    1.0000 </r>
       <r>    5.1486    1.0000 </r>
       <r>    5.3182    1.0000 </r>
       <r>    5.9468    1.0000 </r>
       <r>    5.9777    1.0000 </r>
       <r>    6.1351    1.0000 </r>
       <r>    6.4583    1.0000 </r>
       <r>    7.3559    1.0000 </r>
       <r>    7.9864    1.0000 </r>
       <r>    8.0309    1.0000 </r>
       <r>   10.8513    0.0000 </r>
       <r>   11.1635    0.0000 </r>
       <r>   11.7177    0.0000 </r>
       <r>   11.9595    0.0000 </r>
       <r>   12.3762    0.0000 </r>
       <r>   13.4088    0.0000 </r>
       <r>   13.5007    0.0000 </r>
       <r>   14.0484    0.0000 </r>
       <r>   14.2689    0.0000 </r>
       <r>   14.3986    0.0000 </r>
       <r>   14.5075    0.0000 </r>
       <r>   15.3479    0.0000 </r>
      </set>
      <set comment="kpoint 18">
       <r>   -8.7591    1.0000 </r>
       <r>   -8.7591    1.0000 </r>
       <r>   -7.7347    1.0000 </r>
       <r>   -7.7347    1.0000 </r>
       <r>   -5.2579    1.0000 </r>
       <r>   -5.2579    1.0000 </r>
       <r>   -3.2621    1.0000 </r>
       <r>   -3.2621    1.0000 </r>
       <r>    0.6323    1.0000 </r>
       <r>    0.6323    1.0000 </r>
       <r>    1.7273    1.0000 </r>
       <r>    1.7273    1.0000 </r>
       <r>    2.2188    1.0000 </r>
       <r>    2.2188    1.0000 </r>
       <r>    3.0816    1.0000 </r>
       <r>    3.0816    1.0000 </r>
       <r>    3.8048    1.0000 </r>
       <r>    3.8048    1.0000 </r>
       <r>    4.0407    1.0000 </r>
       <r>    4.0407    1.0000 </r>
       <r>    4.5708    1.0000 </r>
       <r>    4.5708    1.0000 </r>
       <r>    4.8392    1.0000 </r>
       <r>    4.8392    1.0000 </r>
       <r>    5.6762    1.0000 </r>
       <r>    5.6762    1.0000 </r>
       <r>    6.0309    1.0000 </r>
       <r>    6.0309    1.0000 </r>
       <r>    6.8045    1.0000 </r>
       <r>    6.8045    1.0000 </r>
       <r>    8.0203    1.0000 </r>
       <r>    8.0203    1.0000 </r>
       <r>   11.0829    0.0000 </r>
       <r>   11.0829    0.0000 </r>
       <r>   11.8912    0.0000 </r>
       <r>   11.8912    0.0000 </r>
       <r>   12.7476    0.0000 </r>
       <r>   12.7476    0.0000 </r>
       <r>   13.7952    0.0000 </r>
       <r>   13.7954    0.0000 </r>
       <r>   14.3431    0.0000 </r>
       <r>   14.3469    0.0000 </r>
       <r>   14.8597    0.0000 </r>
       <r>   14.9038    0.0000 </r>
      </set>
      <set comment="kpoint 19">
       <r>   -8.6116    1.0000 </r>
       <r>   -8.4457    1.0000 </r>
       <r>   -7.7454    1.0000 </r>
       <r>   -7.3762    1.0000 </r>
       <r>   -5.1947    1.0000 </r>
       <r>   -4.7029    1.0000 </r>
       <r>   -3.2416    1.0000 </r>
       <r>   -3.0000    1.0000 </r>
       <r>    0.7677    1.0000 </r>
       <r>    1.0725    1.0000 </r>
       <r>    1.2344    1.0000 </r>
       <r>    1.3550    1.0000 </r>
       <r>    2.0853    1.0000 </r>
       <r>    2.3247    1.0000 </r>
       <r>    2.5956    1.0000 </r>
       <r>    2.6513    1.0000 </r>
       <r>    3.3517    1.0000 </r>
       <r>    3.4324    1.0000 </r>
       <r>    3.5859    1.0000 </r>
       <r>    3.6692    1.0000 </r>
       <r>    3.9418    1.0000 </r>
       <r>    4.0681    1.0000 </r>
       <r>    4.6815    1.0000 </r>
       <r>    4.7753    1.0000 </r>
       <r>    5.0633    1.0000 </r>
       <r>    5.6524    1.0000 </r>
       <r>    5.8535    1.0000 </r>
       <r>    6.2047    1.0000 </r>
       <r>    6.5203    1.0000 </r>
       <r>    6.8773    1.0000 </r>
       <r>    7.1819    1.0000 </r>
       <r>    7.4184    1.0000 </r>
       <r>   12.0151    0.0000 </r>
       <r>   12.1734    0.0000 </r>
       <r>   12.4990    0.0000 </r>
       <r>   12.6192    0.0000 </r>
       <r>   12.7810    0.0000 </r>
       <r>   12.8297    0.0000 </r>
       <r>   13.2752    0.0000 </r>
       <r>   13.5025    0.0000 </r>
       <r>   13.9839    0.0000 </r>
       <r>   14.1645    0.0000 </r>
       <r>   14.5567    0.0000 </r>
       <r>   14.6446    0.0000 </r>
      </set>
      <set comment="kpoint 20">
       <r>   -8.5439    1.0000 </r>
       <r>   -8.5439    1.0000 </r>
       <r>   -7.5473    1.0000 </r>
       <r>   -7.5473    1.0000 </r>
       <r>   -4.9894    1.0000 </r>
       <r>   -4.9894    1.0000 </r>
       <r>   -3.0488    1.0000 </r>
       <r>   -3.0488    1.0000 </r>
       <r>    0.8391    1.0000 </r>
       <r>    0.8391    1.0000 </r>
       <r>    1.3243    1.0000 </r>
       <r>    1.3243    1.0000 </r>
       <r>    1.9878    1.0000 </r>
       <r>    1.9878    1.0000 </r>
       <r>    2.7894    1.0000 </r>
       <r>    2.7894    1.0000 </r>
       <r>    3.2542    1.0000 </r>
       <r>    3.2542    1.0000 </r>
       <r>    3.7730    1.0000 </r>
       <r>    3.7730    1.0000 </r>
       <r>    4.2020    1.0000 </r>
       <r>    4.2020    1.0000 </r>
       <r>    4.8506    1.0000 </r>
       <r>    4.8506    1.0000 </r>
       <r>    5.1617    1.0000 </r>
       <r>    5.1617    1.0000 </r>
       <r>    6.0818    1.0000 </r>
       <r>    6.0818    1.0000 </r>
       <r>    6.7227    1.0000 </r>
       <r>    6.7227    1.0000 </r>
       <r>    7.0841    1.0000 </r>
       <r>    7.0841    1.0000 </r>
       <r>   12.0472    0.0000 </r>
       <r>   12.0473    0.0000 </r>
       <r>   12.6428    0.0000 </r>
       <r>   12.6430    0.0000 </r>
       <r>   12.9047    0.0000 </r>
       <r>   12.9064    0.0000 </r>
       <r>   13.3900    0.0000 </r>
       <r>   13.3938    0.0000 </r>
       <r>   13.9368    0.0000 </r>
       <r>   13.9426    0.0000 </r>
       <r>   14.5941    0.0000 </r>
       <r>   14.7525    0.0000 </r>
      </set>
      <set comment="kpoint 21">
       <r>   -8.0862    1.0000 </r>
       <r>   -7.9564    1.0000 </r>
       <r>   -7.2690    1.0000 </r>
       <r>   -7.0009    1.0000 </r>
       <r>   -4.4724    1.0000 </r>
       <r>   -4.0574    1.0000 </r>
       <r>   -2.7644    1.0000 </r>
       <r>   -2.4667    1.0000 </r>
       <r>   -0.0641    1.0000 </r>
       <r>   -0.0509    1.0000 </r>
       <r>    0.1923    1.0000 </r>
       <r>    0.2956    1.0000 </r>
       <r>    1.8549    1.0000 </r>
       <r>    2.0362    1.0000 </r>
       <r>    2.1022    1.0000 </r>
       <r>    2.5357    1.0000 </r>
       <r>    2.6136    1.0000 </r>
       <r>    3.0505    1.0000 </r>
       <r>    3.1876    1.0000 </r>
       <r>    3.6459    1.0000 </r>
       <r>    3.8262    1.0000 </r>
       <r>    3.9788    1.0000 </r>
       <r>    4.2524    1.0000 </r>
       <r>    4.4544    1.0000 </r>
       <r>    4.8227    1.0000 </r>
       <r>    5.5621    1.0000 </r>
       <r>    5.8669    1.0000 </r>
       <r>    6.0526    1.0000 </r>
       <r>    6.3719    1.0000 </r>
       <r>    6.3817    1.0000 </r>
       <r>    6.8498    1.0000 </r>
       <r>    7.1085    1.0000 </r>
       <r>   10.7519    0.0000 </r>
       <r>   10.7907    0.0000 </r>
       <r>   11.3920    0.0000 </r>
       <r>   11.5514    0.0000 </r>
       <r>   12.0944    0.0000 </r>
       <r>   12.3390    0.0000 </r>
       <r>   12.6957    0.0000 </r>
       <r>   12.8743    0.0000 </r>
       <r>   13.7605    0.0000 </r>
       <r>   14.0292    0.0000 </r>
       <r>   14.3960    0.0000 </r>
       <r>   15.2494    0.0000 </r>
      </set>
      <set comment="kpoint 22">
       <r>   -8.0307    1.0000 </r>
       <r>   -8.0307    1.0000 </r>
       <r>   -7.1269    1.0000 </r>
       <r>   -7.1269    1.0000 </r>
       <r>   -4.2855    1.0000 </r>
       <r>   -4.2855    1.0000 </r>
       <r>   -2.6060    1.0000 </r>
       <r>   -2.6060    1.0000 </r>
       <r>   -0.0498    1.0000 </r>
       <r>   -0.0498    1.0000 </r>
       <r>    0.4253    1.0000 </r>
       <r>    0.4253    1.0000 </r>
       <r>    1.6950    1.0000 </r>
       <r>    1.6950    1.0000 </r>
       <r>    2.0025    1.0000 </r>
       <r>    2.0025    1.0000 </r>
       <r>    2.8961    1.0000 </r>
       <r>    2.8961    1.0000 </r>
       <r>    3.6415    1.0000 </r>
       <r>    3.6415    1.0000 </r>
       <r>    4.1174    1.0000 </r>
       <r>    4.1174    1.0000 </r>
       <r>    4.3492    1.0000 </r>
       <r>    4.3492    1.0000 </r>
       <r>    5.2955    1.0000 </r>
       <r>    5.2955    1.0000 </r>
       <r>    5.9046    1.0000 </r>
       <r>    5.9046    1.0000 </r>
       <r>    6.1678    1.0000 </r>
       <r>    6.1678    1.0000 </r>
       <r>    6.9812    1.0000 </r>
       <r>    6.9812    1.0000 </r>
       <r>   10.9030    0.0000 </r>
       <r>   10.9030    0.0000 </r>
       <r>   11.5586    0.0000 </r>
       <r>   11.5586    0.0000 </r>
       <r>   12.0115    0.0000 </r>
       <r>   12.0115    0.0000 </r>
       <r>   12.6802    0.0000 </r>
       <r>   12.6802    0.0000 </r>
       <r>   14.0597    0.0000 </r>
       <r>   14.0650    0.0000 </r>
       <r>   14.7610    0.0000 </r>
       <r>   14.8030    0.0000 </r>
      </set>
      <set comment="kpoint 23">
       <r>   -7.7078    1.0000 </r>
       <r>   -7.7078    1.0000 </r>
       <r>   -6.8915    1.0000 </r>
       <r>   -6.8915    1.0000 </r>
       <r>   -3.7583    1.0000 </r>
       <r>   -3.7583    1.0000 </r>
       <r>   -2.4302    1.0000 </r>
       <r>   -2.4302    1.0000 </r>
       <r>   -0.6694    1.0000 </r>
       <r>   -0.6694    1.0000 </r>
       <r>   -0.3995    1.0000 </r>
       <r>   -0.3995    1.0000 </r>
       <r>    1.4232    1.0000 </r>
       <r>    1.4232    1.0000 </r>
       <r>    1.7488    1.0000 </r>
       <r>    1.7488    1.0000 </r>
       <r>    3.0304    1.0000 </r>
       <r>    3.0304    1.0000 </r>
       <r>    3.8406    1.0000 </r>
       <r>    3.8406    1.0000 </r>
       <r>    3.9473    1.0000 </r>
       <r>    3.9473    1.0000 </r>
       <r>    4.4526    1.0000 </r>
       <r>    4.4526    1.0000 </r>
       <r>    5.0679    1.0000 </r>
       <r>    5.0679    1.0000 </r>
       <r>    5.7519    1.0000 </r>
       <r>    5.7519    1.0000 </r>
       <r>    6.2882    1.0000 </r>
       <r>    6.2882    1.0000 </r>
       <r>    7.1118    1.0000 </r>
       <r>    7.1118    1.0000 </r>
       <r>    9.9862    0.0000 </r>
       <r>    9.9862    0.0000 </r>
       <r>   10.7594    0.0000 </r>
       <r>   10.7594    0.0000 </r>
       <r>   11.6628    0.0000 </r>
       <r>   11.6628    0.0000 </r>
       <r>   11.9558    0.0000 </r>
       <r>   11.9558    0.0000 </r>
       <r>   14.2053    0.0000 </r>
       <r>   14.2085    0.0000 </r>
       <r>   15.1865    0.0000 </r>
       <r>   15.2726    0.0000 </r>
      </set>
      <set comment="kpoint 24">
       <r>   -7.7083    1.0000 </r>
       <r>   -7.7083    1.0000 </r>
       <r>   -6.8906    1.0000 </r>
       <r>   -6.8906    1.0000 </r>
       <r>   -3.7547    1.0000 </r>
       <r>   -3.7547    1.0000 </r>
       <r>   -2.4354    1.0000 </r>
       <r>   -2.4354    1.0000 </r>
       <r>   -0.8679    1.0000 </r>
       <r>   -0.8679    1.0000 </r>
       <r>   -0.0846    1.0000 </r>
       <r>   -0.0846    1.0000 </r>
       <r>    1.1155    1.0000 </r>
       <r>    1.1155    1.0000 </r>
       <r>    2.1603    1.0000 </r>
       <r>    2.1603    1.0000 </r>
       <r>    2.7331    1.0000 </r>
       <r>    2.7331    1.0000 </r>
       <r>    3.6879    1.0000 </r>
       <r>    3.6879    1.0000 </r>
       <r>    4.0114    1.0000 </r>
       <r>    4.0114    1.0000 </r>
       <r>    4.5167    1.0000 </r>
       <r>    4.5167    1.0000 </r>
       <r>    5.3652    1.0000 </r>
       <r>    5.3652    1.0000 </r>
       <r>    5.6580    1.0000 </r>
       <r>    5.6580    1.0000 </r>
       <r>    6.1283    1.0000 </r>
       <r>    6.1283    1.0000 </r>
       <r>    7.1561    1.0000 </r>
       <r>    7.1561    1.0000 </r>
       <r>   10.0538    0.0000 </r>
       <r>   10.0538    0.0000 </r>
       <r>   10.9032    0.0000 </r>
       <r>   10.9032    0.0000 </r>
       <r>   11.4594    0.0000 </r>
       <r>   11.4594    0.0000 </r>
       <r>   12.3379    0.0000 </r>
       <r>   12.3379    0.0000 </r>
       <r>   13.5600    0.0000 </r>
       <r>   13.5605    0.0000 </r>
       <r>   14.6495    0.0000 </r>
       <r>   14.6726    0.0000 </r>
      </set>
     </set>
    </set>
   </array>
  </eigenvalues>
  <separator name="orbital magnetization" >
   <v name="MAGDIPOLOUT">      0.00000000      0.00000000      0.00000000</v>
  </separator>
  <dos>
   <i name="efermi">      8.66527829 </i>
   <total>
    <array>
     <dimension dim="1">gridpoints</dimension>
     <dimension dim="2">spin</dimension>
     <field>energy</field>
     <field>total</field>
     <field>integrated</field>
     <set>
      <set comment="spin 1">
       <r>   -10.3867     0.0000     0.0000 </r>
       <r>   -10.2964     0.0000     0.0000 </r>
       <r>   -10.2061     0.0000     0.0000 </r>
       <r>   -10.1159     0.0000     0.0000 </r>
       <r>   -10.0256     0.0000     0.0000 </r>
       <r>    -9.9353     0.0000     0.0000 </r>
       <r>    -9.8450     0.0000     0.0000 </r>
       <r>    -9.7547     0.0000     0.0000 </r>
       <r>    -9.6644     0.0000     0.0000 </r>
       <r>    -9.5741     0.0000     0.0000 </r>
       <r>    -9.4838     0.0000     0.0000 </r>
       <r>    -9.3936     0.0002     0.0000 </r>
       <r>    -9.3033     0.0083     0.0008 </r>
       <r>    -9.2130     0.0921     0.0091 </r>
       <r>    -9.1227     0.3357     0.0394 </r>
       <r>    -9.0324     0.9182     0.1223 </r>
       <r>    -8.9421     1.6606     0.2722 </r>
       <r>    -8.8518     2.3016     0.4800 </r>
       <r>    -8.7616     4.0039     0.8415 </r>
       <r>    -8.6713     4.1437     1.2157 </r>
       <r>    -8.5810     3.6700     1.5470 </r>
       <r>    -8.4907     3.2287     1.8385 </r>
       <r>    -8.4004     1.4923     1.9733 </r>
       <r>    -8.3101     0.7339     2.0395 </r>
       <r>    -8.2198     1.7843     2.2006 </r>
       <r>    -8.1295     3.6673     2.5317 </r>
       <r>    -8.0393     4.4929     2.9374 </r>
       <r>    -7.9490     3.5637     3.2592 </r>
       <r>    -7.8587     2.2646     3.4636 </r>
       <r>    -7.7684     3.8886     3.8147 </r>
       <r>    -7.6781     5.7462     4.3335 </r>
       <r>    -7.5878     4.6788     4.7559 </r>
       <r>    -7.4975     3.9767     5.1150 </r>
       <r>    -7.4072     3.9389     5.4706 </r>
       <r>    -7.3170     3.5066     5.7872 </r>
       <r>    -7.2267     3.4493     6.0986 </r>
       <r>    -7.1364     3.8536     6.4466 </r>
       <r>    -7.0461     4.3205     6.8367 </r>
       <r>    -6.9558     4.3438     7.2289 </r>
       <r>    -6.8655     4.7890     7.6612 </r>
       <r>    -6.7752     3.0992     7.9411 </r>
       <r>    -6.6849     0.6211     7.9971 </r>
       <r>    -6.5947     0.0314     8.0000 </r>
       <r>    -6.5044     0.0004     8.0000 </r>
       <r>    -6.4141     0.0000     8.0000 </r>
       <r>    -6.3238     0.0000     8.0000 </r>
       <r>    -6.2335     0.0000     8.0000 </r>
       <r>    -6.1432     0.0000     8.0000 </r>
       <r>    -6.0529     0.0000     8.0000 </r>
       <r>    -5.9627     0.0000     8.0000 </r>
       <r>    -5.8724     0.0000     8.0000 </r>
       <r>    -5.7821     0.0000     8.0000 </r>
       <r>    -5.6918     0.0003     8.0000 </r>
       <r>    -5.6015     0.0110     8.0010 </r>
       <r>    -5.5112     0.1013     8.0102 </r>
       <r>    -5.4209     0.2300     8.0309 </r>
       <r>    -5.3306     0.2729     8.0556 </r>
       <r>    -5.2404     0.7083     8.1195 </r>
       <r>    -5.1501     1.1373     8.2222 </r>
       <r>    -5.0598     1.2222     8.3326 </r>
       <r>    -4.9695     1.8759     8.5019 </r>
       <r>    -4.8792     2.3349     8.7127 </r>
       <r>    -4.7889     2.2558     8.9164 </r>
       <r>    -4.6986     2.1311     9.1088 </r>
       <r>    -4.6083     2.0513     9.2940 </r>
       <r>    -4.5181     2.2920     9.5010 </r>
       <r>    -4.4278     2.4598     9.7231 </r>
       <r>    -4.3375     2.9498     9.9894 </r>
       <r>    -4.2472     4.0663    10.3565 </r>
       <r>    -4.1569     3.0786    10.6345 </r>
       <r>    -4.0666     4.2373    11.0170 </r>
       <r>    -3.9763     5.2127    11.4877 </r>
       <r>    -3.8860     3.0245    11.7608 </r>
       <r>    -3.7958     1.2687    11.8753 </r>
       <r>    -3.7055     0.9500    11.9611 </r>
       <r>    -3.6152     0.4630    12.0029 </r>
       <r>    -3.5249     0.3593    12.0353 </r>
       <r>    -3.4346     0.7602    12.1040 </r>
       <r>    -3.3443     1.6797    12.2556 </r>
       <r>    -3.2540     3.0506    12.5310 </r>
       <r>    -3.1637     3.6892    12.8641 </r>
       <r>    -3.0735     4.0261    13.2276 </r>
       <r>    -2.9832     4.0686    13.5950 </r>
       <r>    -2.8929     2.7515    13.8434 </r>
       <r>    -2.8026     2.8357    14.0994 </r>
       <r>    -2.7123     2.5960    14.3338 </r>
       <r>    -2.6220     2.5594    14.5649 </r>
       <r>    -2.5317     3.0450    14.8398 </r>
       <r>    -2.4415     2.9819    15.1091 </r>
       <r>    -2.3512     2.3099    15.3176 </r>
       <r>    -2.2609     1.9609    15.4947 </r>
       <r>    -2.1706     2.4858    15.7191 </r>
       <r>    -2.0803     1.8573    15.8868 </r>
       <r>    -1.9900     0.9752    15.9748 </r>
       <r>    -1.8997     0.2597    15.9983 </r>
       <r>    -1.8094     0.0188    16.0000 </r>
       <r>    -1.7192     0.0003    16.0000 </r>
       <r>    -1.6289     0.0000    16.0000 </r>
       <r>    -1.5386     0.0000    16.0000 </r>
       <r>    -1.4483     0.0000    16.0000 </r>
       <r>    -1.3580     0.0000    16.0000 </r>
       <r>    -1.2677     0.0000    16.0000 </r>
       <r>    -1.1774     0.0000    16.0000 </r>
       <r>    -1.0871     0.0010    16.0001 </r>
       <r>    -0.9969     0.0367    16.0034 </r>
       <r>    -0.9066     0.3135    16.0317 </r>
       <r>    -0.8163     0.6709    16.0923 </r>
       <r>    -0.7260     0.6103    16.1474 </r>
       <r>    -0.6357     1.1183    16.2484 </r>
       <r>    -0.5454     1.8134    16.4121 </r>
       <r>    -0.4551     2.4561    16.6338 </r>
       <r>    -0.3648     2.9924    16.9040 </r>
       <r>    -0.2746     3.4596    17.2164 </r>
       <r>    -0.1843     2.6081    17.4519 </r>
       <r>    -0.0940     3.6981    17.7857 </r>
       <r>    -0.0037     7.0760    18.4246 </r>
       <r>     0.0866     6.7731    19.0361 </r>
       <r>     0.1769     5.0390    19.4911 </r>
       <r>     0.2672     3.6477    19.8204 </r>
       <r>     0.3574     3.2920    20.1177 </r>
       <r>     0.4477     3.9022    20.4700 </r>
       <r>     0.5380     2.9050    20.7323 </r>
       <r>     0.6283     3.0185    21.0048 </r>
       <r>     0.7186     5.1038    21.4656 </r>
       <r>     0.8089     5.3215    21.9461 </r>
       <r>     0.8992     3.9027    22.2985 </r>
       <r>     0.9895     2.6268    22.5356 </r>
       <r>     1.0797     2.2570    22.7394 </r>
       <r>     1.1700     2.3702    22.9534 </r>
       <r>     1.2603     2.7572    23.2023 </r>
       <r>     1.3506     3.4530    23.5141 </r>
       <r>     1.4409     3.1302    23.7967 </r>
       <r>     1.5312     3.7720    24.1373 </r>
       <r>     1.6215     4.6795    24.5598 </r>
       <r>     1.7118     6.6879    25.1636 </r>
       <r>     1.8020     8.2222    25.9060 </r>
       <r>     1.8923     6.8313    26.5228 </r>
       <r>     1.9826     8.0703    27.2514 </r>
       <r>     2.0729     9.0853    28.0717 </r>
       <r>     2.1632     6.5152    28.6599 </r>
       <r>     2.2535     5.4719    29.1540 </r>
       <r>     2.3438     7.1143    29.7963 </r>
       <r>     2.4341     6.3269    30.3675 </r>
       <r>     2.5243     4.4078    30.7655 </r>
       <r>     2.6146     6.5120    31.3534 </r>
       <r>     2.7049     7.5913    32.0388 </r>
       <r>     2.7952     6.8884    32.6608 </r>
       <r>     2.8855     5.1143    33.1225 </r>
       <r>     2.9758     3.7160    33.4580 </r>
       <r>     3.0661     3.7031    33.7924 </r>
       <r>     3.1564     3.9321    34.1474 </r>
       <r>     3.2466     5.5746    34.6507 </r>
       <r>     3.3369     8.4819    35.4165 </r>
       <r>     3.4272     7.6294    36.1054 </r>
       <r>     3.5175     5.6804    36.6182 </r>
       <r>     3.6078     7.0119    37.2513 </r>
       <r>     3.6981    11.1749    38.2603 </r>
       <r>     3.7884    10.2945    39.1897 </r>
       <r>     3.8786     7.3512    39.8534 </r>
       <r>     3.9689     6.9029    40.4767 </r>
       <r>     4.0592     6.7613    41.0871 </r>
       <r>     4.1495     7.4447    41.7593 </r>
       <r>     4.2398     7.7264    42.4569 </r>
       <r>     4.3301     6.9911    43.0881 </r>
       <r>     4.4204     7.7469    43.7875 </r>
       <r>     4.5107     8.4157    44.5474 </r>
       <r>     4.6009     6.6000    45.1433 </r>
       <r>     4.6912     5.4757    45.6376 </r>
       <r>     4.7815     5.0221    46.0911 </r>
       <r>     4.8718     7.0956    46.7317 </r>
       <r>     4.9621     9.9756    47.6324 </r>
       <r>     5.0524    10.1114    48.5453 </r>
       <r>     5.1427     9.1190    49.3686 </r>
       <r>     5.2330     7.0464    50.0048 </r>
       <r>     5.3232     8.0868    50.7350 </r>
       <r>     5.4135     8.8429    51.5334 </r>
       <r>     5.5038     5.1709    52.0003 </r>
       <r>     5.5941     3.6965    52.3340 </r>
       <r>     5.6844     4.1390    52.7077 </r>
       <r>     5.7747     4.9171    53.1516 </r>
       <r>     5.8650     5.4662    53.6452 </r>
       <r>     5.9553     5.5594    54.1471 </r>
       <r>     6.0455     6.2489    54.7113 </r>
       <r>     6.1358     7.9136    55.4258 </r>
       <r>     6.2261     7.9554    56.1441 </r>
       <r>     6.3164     6.5509    56.7356 </r>
       <r>     6.4067     5.3708    57.2205 </r>
       <r>     6.4970     4.3530    57.6135 </r>
       <r>     6.5873     3.6717    57.9450 </r>
       <r>     6.6776     4.3144    58.3345 </r>
       <r>     6.7678     6.6649    58.9363 </r>
       <r>     6.8581     7.7152    59.6329 </r>
       <r>     6.9484     5.9008    60.1656 </r>
       <r>     7.0387     5.5543    60.6671 </r>
       <r>     7.1290     6.9573    61.2953 </r>
       <r>     7.2193     6.8582    61.9145 </r>
       <r>     7.3096     5.2632    62.3897 </r>
       <r>     7.3998     3.4089    62.6975 </r>
       <r>     7.4901     2.8940    62.9588 </r>
       <r>     7.5804     2.4627    63.1811 </r>
       <r>     7.6707     1.3718    63.3050 </r>
       <r>     7.7610     0.2959    63.3317 </r>
       <r>     7.8513     0.0463    63.3359 </r>
       <r>     7.9416     0.4209    63.3739 </r>
       <r>     8.0319     1.9563    63.5505 </r>
       <r>     8.1221     3.0203    63.8232 </r>
       <r>     8.2124     1.6200    63.9695 </r>
       <r>     8.3027     0.3156    63.9980 </r>
       <r>     8.3930     0.0221    64.0000 </r>
       <r>     8.4833     0.0005    64.0000 </r>
       <r>     8.5736     0.0000    64.0000 </r>
       <r>     8.6639     0.0000    64.0000 </r>
       <r>     8.7542     0.0000    64.0000 </r>
       <r>     8.8444     0.0000    64.0000 </r>
       <r>     8.9347     0.0000    64.0000 </r>
       <r>     9.0250     0.0000    64.0000 </r>
       <r>     9.1153     0.0000    64.0000 </r>
       <r>     9.2056     0.0000    64.0000 </r>
       <r>     9.2959     0.0000    64.0000 </r>
       <r>     9.3862     0.0017    64.0002 </r>
       <r>     9.4765     0.0352    64.0033 </r>
       <r>     9.5667     0.1724    64.0189 </r>
       <r>     9.6570     0.2503    64.0415 </r>
       <r>     9.7473     0.3610    64.0741 </r>
       <r>     9.8376     0.4360    64.1135 </r>
       <r>     9.9279     0.3568    64.1457 </r>
       <r>    10.0182     0.8989    64.2268 </r>
       <r>    10.1085     1.3881    64.3522 </r>
       <r>    10.1987     1.0170    64.4440 </r>
       <r>    10.2890     0.5315    64.4920 </r>
       <r>    10.3793     0.4360    64.5313 </r>
       <r>    10.4696     0.8368    64.6069 </r>
       <r>    10.5599     0.8103    64.6801 </r>
       <r>    10.6502     0.8037    64.7526 </r>
       <r>    10.7405     1.6149    64.8984 </r>
       <r>    10.8308     3.2584    65.1926 </r>
       <r>    10.9210     4.8254    65.6283 </r>
       <r>    11.0113     4.6597    66.0490 </r>
       <r>    11.1016     4.6390    66.4678 </r>
       <r>    11.1919     4.2706    66.8534 </r>
       <r>    11.2822     2.9055    67.1158 </r>
       <r>    11.3725     3.4241    67.4249 </r>
       <r>    11.4628     4.6857    67.8480 </r>
       <r>    11.5531     5.5219    68.3465 </r>
       <r>    11.6433     5.2622    68.8216 </r>
       <r>    11.7336     2.6118    69.0574 </r>
       <r>    11.8239     1.3496    69.1793 </r>
       <r>    11.9142     2.2297    69.3806 </r>
       <r>    12.0045     5.5189    69.8789 </r>
       <r>    12.0948     7.0098    70.5118 </r>
       <r>    12.1851     4.9789    70.9613 </r>
       <r>    12.2754     5.6896    71.4750 </r>
       <r>    12.3656     8.4615    72.2390 </r>
       <r>    12.4559     7.0486    72.8754 </r>
       <r>    12.5462     5.5279    73.3745 </r>
       <r>    12.6365     6.4460    73.9565 </r>
       <r>    12.7268     6.5769    74.5503 </r>
       <r>    12.8171     6.1875    75.1089 </r>
       <r>    12.9074     6.9265    75.7343 </r>
       <r>    12.9977     5.9007    76.2671 </r>
       <r>    13.0879     4.0366    76.6315 </r>
       <r>    13.1782     2.6170    76.8678 </r>
       <r>    13.2685     1.9118    77.0404 </r>
       <r>    13.3588     3.2279    77.3319 </r>
       <r>    13.4491     6.3825    77.9081 </r>
       <r>    13.5394     7.7072    78.6040 </r>
       <r>    13.6297     5.8845    79.1353 </r>
       <r>    13.7199     4.4929    79.5409 </r>
       <r>    13.8102     4.1612    79.9166 </r>
       <r>    13.9005     4.5711    80.3293 </r>
       <r>    13.9908     7.7267    81.0270 </r>
       <r>    14.0811    11.9827    82.1089 </r>
       <r>    14.1714     9.8647    82.9995 </r>
       <r>    14.2617     4.5824    83.4132 </r>
       <r>    14.3520     3.1650    83.6990 </r>
       <r>    14.4422     4.3147    84.0886 </r>
       <r>    14.5325     4.2459    84.4719 </r>
       <r>    14.6228     5.0373    84.9267 </r>
       <r>    14.7131     5.6360    85.4356 </r>
       <r>    14.8034     4.6999    85.8599 </r>
       <r>    14.8937     4.9336    86.3054 </r>
       <r>    14.9840     5.0643    86.7626 </r>
       <r>    15.0743     3.7112    87.0977 </r>
       <r>    15.1645     2.6263    87.3348 </r>
       <r>    15.2548     2.6983    87.5784 </r>
       <r>    15.3451     2.1426    87.7719 </r>
       <r>    15.4354     1.3817    87.8966 </r>
       <r>    15.5257     0.8694    87.9751 </r>
       <r>    15.6160     0.2542    87.9981 </r>
       <r>    15.7063     0.0212    88.0000 </r>
       <r>    15.7966     0.0004    88.0000 </r>
       <r>    15.8868     0.0000    88.0000 </r>
       <r>    15.9771     0.0000    88.0000 </r>
       <r>    16.0674     0.0000    88.0000 </r>
       <r>    16.1577     0.0000    88.0000 </r>
       <r>    16.2480     0.0000    88.0000 </r>
       <r>    16.3383     0.0000    88.0000 </r>
       <r>    16.4286     0.0000    88.0000 </r>
       <r>    16.5188     0.0000    88.0000 </r>
       <r>    16.6091     0.0000    88.0000 </r>
       <r>    16.6994     0.0000    88.0000 </r>
      </set>
     </set>
    </array>
   </total>
  </dos>
 </calculation>
 <structure name="finalpos" >
  <crystal>
   <varray name="basis" >
    <v>      11.53947599       0.00000000       0.11619911 </v>
    <v>       0.00000000       3.13094304       0.00000000 </v>
    <v>      -2.56560705       0.00000000       4.71066133 </v>
   </varray>
   <i name="volume">    171.12696591 </i>
   <varray name="rec_basis" >
    <v>       0.08618637       0.00000000       0.04694041 </v>
    <v>       0.00000000       0.31939259       0.00000000 </v>
    <v>      -0.00212598       0.00000000       0.21112653 </v>
   </varray>
  </crystal>
  <varray name="positions" >
   <v>       0.74229570       0.50000000       0.90380897 </v>
   <v>       0.74544228       0.00000000       0.41435670 </v>
   <v>       0.24229570       0.00000000       0.90380897 </v>
   <v>       0.24544228       0.50000000       0.41435670 </v>
   <v>       0.00927378       0.00000000       0.34534391 </v>
   <v>       0.00235852       0.50000000       0.83355261 </v>
   <v>       0.50927378       0.50000000       0.34534391 </v>
   <v>       0.50235852       0.00000000       0.83355261 </v>
   <v>       0.80363137       0.50000000       0.63311213 </v>
   <v>       0.56878100       0.50000000       0.74278689 </v>
   <v>       0.30363137       0.00000000       0.63311213 </v>
   <v>       0.06878100       0.00000000       0.74278689 </v>
   <v>       0.80988131       0.00000000       0.14331439 </v>
   <v>       0.56833604       0.00000000       0.23372441 </v>
   <v>       0.30988131       0.50000000       0.14331439 </v>
   <v>       0.06833604       0.50000000       0.23372441 </v>
  </varray>
 </structure>
</modeling>
