<?xml version="1.0" encoding="ISO-8859-1"?>
<modeling>
 <generator>
  <i name="program" type="string">vasp </i>
  <i name="version" type="string">5.3.5  </i>
  <i name="subversion" type="string">31Mar14 (build Jun 20 2014 13:15:13) complex                          parallel </i>
  <i name="platform" type="string">LinuxIFC </i>
  <i name="date" type="string">2025 11 29 </i>
  <i name="time" type="string">02:22:45 </i>
 </generator>
 <incar>
  <i type="string" name="PREC">accurate</i>
  <i type="int" name="IALGO">    68</i>
  <i type="logical" name="ADDGRID"> T  </i>
  <i type="int" name="NELM">   200</i>
  <i type="int" name="NELMIN">     4</i>
  <i type="int" name="IBRION">     2</i>
  <i name="EDIFF">      0.00000100</i>
  <i name="EDIFFG">     -0.02000000</i>
  <i type="int" name="NSW">    30</i>
  <i type="int" name="ISIF">     3</i>
  <i name="ENCUT">    500.00000000</i>
  <i type="logical" name="LREAL"> F  </i>
  <i type="int" name="ISMEAR">     1</i>
  <i name="SIGMA">      0.30000000</i>
  <i type="logical" name="LWAVE"> F  </i>
  <i type="logical" name="LCHARG"> F  </i>
  <i type="int" name="NELM">   200</i>
 </incar>
 <kpoints>
  <generation param="Auto">
   <i name="subdivisionlength">     70.00000000 </i>
   <v type="int" name="divisions">      25       16       10 </v>
   <v name="usershift">      0.00000000       0.00000000       0.00000000 </v>
   <v name="genvec1">      0.04000000       0.00000000       0.00000000 </v>
   <v name="genvec2">      0.00000000       0.06250000       0.00000000 </v>
   <v name="genvec3">      0.00000000       0.00000000       0.10000000 </v>
   <v name="shift">      0.00000000       0.00000000       0.00000000 </v>
  </generation>
  <varray name="kpointlist" >
   <v>       0.00000000       0.00000000       0.00000000 </v>
   <v>       0.04000000       0.00000000       0.00000000 </v>
   <v>       0.08000000       0.00000000       0.00000000 </v>
   <v>       0.12000000       0.00000000       0.00000000 </v>
   <v>       0.16000000       0.00000000       0.00000000 </v>
   <v>       0.20000000       0.00000000       0.00000000 </v>
   <v>       0.24000000       0.00000000       0.00000000 </v>
   <v>       0.28000000       0.00000000       0.00000000 </v>
   <v>       0.32000000       0.00000000       0.00000000 </v>
   <v>       0.36000000       0.00000000       0.00000000 </v>
   <v>       0.40000000       0.00000000       0.00000000 </v>
   <v>       0.44000000       0.00000000       0.00000000 </v>
   <v>       0.48000000       0.00000000       0.00000000 </v>
   <v>       0.00000000       0.06250000       0.00000000 </v>
   <v>       0.04000000       0.06250000       0.00000000 </v>
   <v>       0.08000000       0.06250000       0.00000000 </v>
   <v>       0.12000000       0.06250000       0.00000000 </v>
   <v>       0.16000000       0.06250000       0.00000000 </v>
   <v>       0.20000000       0.06250000       0.00000000 </v>
   <v>       0.24000000       0.06250000       0.00000000 </v>
   <v>       0.28000000       0.06250000       0.00000000 </v>
   <v>       0.32000000       0.06250000       0.00000000 </v>
   <v>       0.36000000       0.06250000       0.00000000 </v>
   <v>       0.40000000       0.06250000       0.00000000 </v>
   <v>       0.44000000       0.06250000       0.00000000 </v>
   <v>       0.48000000       0.06250000       0.00000000 </v>
   <v>      -0.48000000       0.06250000       0.00000000 </v>
   <v>      -0.44000000       0.06250000       0.00000000 </v>
   <v>      -0.40000000       0.06250000       0.00000000 </v>
   <v>      -0.36000000       0.06250000       0.00000000 </v>
   <v>      -0.32000000       0.06250000       0.00000000 </v>
   <v>      -0.28000000       0.06250000       0.00000000 </v>
   <v>      -0.24000000       0.06250000       0.00000000 </v>
   <v>      -0.20000000       0.06250000       0.00000000 </v>
   <v>      -0.16000000       0.06250000       0.00000000 </v>
   <v>      -0.12000000       0.06250000       0.00000000 </v>
   <v>      -0.08000000       0.06250000       0.00000000 </v>
   <v>      -0.04000000       0.06250000       0.00000000 </v>
   <v>       0.00000000       0.12500000       0.00000000 </v>
   <v>       0.04000000       0.12500000       0.00000000 </v>
   <v>       0.08000000       0.12500000       0.00000000 </v>
   <v>       0.12000000       0.12500000       0.00000000 </v>
   <v>       0.16000000       0.12500000       0.00000000 </v>
   <v>       0.20000000       0.12500000       0.00000000 </v>
   <v>       0.24000000       0.12500000       0.00000000 </v>
   <v>       0.28000000       0.12500000       0.00000000 </v>
   <v>       0.32000000       0.12500000       0.00000000 </v>
   <v>       0.36000000       0.12500000       0.00000000 </v>
   <v>       0.40000000       0.12500000       0.00000000 </v>
   <v>       0.44000000       0.12500000       0.00000000 </v>
   <v>       0.48000000       0.12500000       0.00000000 </v>
   <v>      -0.48000000       0.12500000       0.00000000 </v>
   <v>      -0.44000000       0.12500000       0.00000000 </v>
   <v>      -0.40000000       0.12500000       0.00000000 </v>
   <v>      -0.36000000       0.12500000       0.00000000 </v>
   <v>      -0.32000000       0.12500000       0.00000000 </v>
   <v>      -0.28000000       0.12500000       0.00000000 </v>
   <v>      -0.24000000       0.12500000       0.00000000 </v>
   <v>      -0.20000000       0.12500000       0.00000000 </v>
   <v>      -0.16000000       0.12500000       0.00000000 </v>
   <v>      -0.12000000       0.12500000       0.00000000 </v>
   <v>      -0.08000000       0.12500000       0.00000000 </v>
   <v>      -0.04000000       0.12500000       0.00000000 </v>
   <v>       0.00000000       0.18750000       0.00000000 </v>
   <v>       0.04000000       0.18750000       0.00000000 </v>
   <v>       0.08000000       0.18750000       0.00000000 </v>
   <v>       0.12000000       0.18750000       0.00000000 </v>
   <v>       0.16000000       0.18750000       0.00000000 </v>
   <v>       0.20000000       0.18750000       0.00000000 </v>
   <v>       0.24000000       0.18750000       0.00000000 </v>
   <v>       0.28000000       0.18750000       0.00000000 </v>
   <v>       0.32000000       0.18750000       0.00000000 </v>
   <v>       0.36000000       0.18750000       0.00000000 </v>
   <v>       0.40000000       0.18750000       0.00000000 </v>
   <v>       0.44000000       0.18750000       0.00000000 </v>
   <v>       0.48000000       0.18750000       0.00000000 </v>
   <v>      -0.48000000       0.18750000       0.00000000 </v>
   <v>      -0.44000000       0.18750000       0.00000000 </v>
   <v>      -0.40000000       0.18750000       0.00000000 </v>
   <v>      -0.36000000       0.18750000       0.00000000 </v>
   <v>      -0.32000000       0.18750000       0.00000000 </v>
   <v>      -0.28000000       0.18750000       0.00000000 </v>
   <v>      -0.24000000       0.18750000       0.00000000 </v>
   <v>      -0.20000000       0.18750000       0.00000000 </v>
   <v>      -0.16000000       0.18750000       0.00000000 </v>
   <v>      -0.12000000       0.18750000       0.00000000 </v>
   <v>      -0.08000000       0.18750000       0.00000000 </v>
   <v>      -0.04000000       0.18750000       0.00000000 </v>
   <v>       0.00000000       0.25000000       0.00000000 </v>
   <v>       0.04000000       0.25000000       0.00000000 </v>
   <v>       0.08000000       0.25000000       0.00000000 </v>
   <v>       0.12000000       0.25000000       0.00000000 </v>
   <v>       0.16000000       0.25000000       0.00000000 </v>
   <v>       0.20000000       0.25000000       0.00000000 </v>
   <v>       0.24000000       0.25000000       0.00000000 </v>
   <v>       0.28000000       0.25000000       0.00000000 </v>
   <v>       0.32000000       0.25000000       0.00000000 </v>
   <v>       0.36000000       0.25000000       0.00000000 </v>
   <v>       0.40000000       0.25000000       0.00000000 </v>
   <v>       0.44000000       0.25000000       0.00000000 </v>
   <v>       0.48000000       0.25000000       0.00000000 </v>
   <v>      -0.48000000       0.25000000       0.00000000 </v>
   <v>      -0.44000000       0.25000000       0.00000000 </v>
   <v>      -0.40000000       0.25000000       0.00000000 </v>
   <v>      -0.36000000       0.25000000       0.00000000 </v>
   <v>      -0.32000000       0.25000000       0.00000000 </v>
   <v>      -0.28000000       0.25000000       0.00000000 </v>
   <v>      -0.24000000       0.25000000       0.00000000 </v>
   <v>      -0.20000000       0.25000000       0.00000000 </v>
   <v>      -0.16000000       0.25000000       0.00000000 </v>
   <v>      -0.12000000       0.25000000       0.00000000 </v>
   <v>      -0.08000000       0.25000000       0.00000000 </v>
   <v>      -0.04000000       0.25000000       0.00000000 </v>
   <v>       0.00000000       0.31250000       0.00000000 </v>
   <v>       0.04000000       0.31250000       0.00000000 </v>
   <v>       0.08000000       0.31250000       0.00000000 </v>
   <v>       0.12000000       0.31250000       0.00000000 </v>
   <v>       0.16000000       0.31250000       0.00000000 </v>
   <v>       0.20000000       0.31250000       0.00000000 </v>
   <v>       0.24000000       0.31250000       0.00000000 </v>
   <v>       0.28000000       0.31250000       0.00000000 </v>
   <v>       0.32000000       0.31250000       0.00000000 </v>
   <v>       0.36000000       0.31250000       0.00000000 </v>
   <v>       0.40000000       0.31250000       0.00000000 </v>
   <v>       0.44000000       0.31250000       0.00000000 </v>
   <v>       0.48000000       0.31250000       0.00000000 </v>
   <v>      -0.48000000       0.31250000       0.00000000 </v>
   <v>      -0.44000000       0.31250000       0.00000000 </v>
   <v>      -0.40000000       0.31250000       0.00000000 </v>
   <v>      -0.36000000       0.31250000       0.00000000 </v>
   <v>      -0.32000000       0.31250000       0.00000000 </v>
   <v>      -0.28000000       0.31250000       0.00000000 </v>
   <v>      -0.24000000       0.31250000       0.00000000 </v>
   <v>      -0.20000000       0.31250000       0.00000000 </v>
   <v>      -0.16000000       0.31250000       0.00000000 </v>
   <v>      -0.12000000       0.31250000       0.00000000 </v>
   <v>      -0.08000000       0.31250000       0.00000000 </v>
   <v>      -0.04000000       0.31250000       0.00000000 </v>
   <v>       0.00000000       0.37500000       0.00000000 </v>
   <v>       0.04000000       0.37500000       0.00000000 </v>
   <v>       0.08000000       0.37500000       0.00000000 </v>
   <v>       0.12000000       0.37500000       0.00000000 </v>
   <v>       0.16000000       0.37500000       0.00000000 </v>
   <v>       0.20000000       0.37500000       0.00000000 </v>
   <v>       0.24000000       0.37500000       0.00000000 </v>
   <v>       0.28000000       0.37500000       0.00000000 </v>
   <v>       0.32000000       0.37500000       0.00000000 </v>
   <v>       0.36000000       0.37500000       0.00000000 </v>
   <v>       0.40000000       0.37500000       0.00000000 </v>
   <v>       0.44000000       0.37500000       0.00000000 </v>
   <v>       0.48000000       0.37500000       0.00000000 </v>
   <v>      -0.48000000       0.37500000       0.00000000 </v>
   <v>      -0.44000000       0.37500000       0.00000000 </v>
   <v>      -0.40000000       0.37500000       0.00000000 </v>
   <v>      -0.36000000       0.37500000       0.00000000 </v>
   <v>      -0.32000000       0.37500000       0.00000000 </v>
   <v>      -0.28000000       0.37500000       0.00000000 </v>
   <v>      -0.24000000       0.37500000       0.00000000 </v>
   <v>      -0.20000000       0.37500000       0.00000000 </v>
   <v>      -0.16000000       0.37500000       0.00000000 </v>
   <v>      -0.12000000       0.37500000       0.00000000 </v>
   <v>      -0.08000000       0.37500000       0.00000000 </v>
   <v>      -0.04000000       0.37500000       0.00000000 </v>
   <v>       0.00000000       0.43750000       0.00000000 </v>
   <v>       0.04000000       0.43750000       0.00000000 </v>
   <v>       0.08000000       0.43750000       0.00000000 </v>
   <v>       0.12000000       0.43750000       0.00000000 </v>
   <v>       0.16000000       0.43750000       0.00000000 </v>
   <v>       0.20000000       0.43750000       0.00000000 </v>
   <v>       0.24000000       0.43750000       0.00000000 </v>
   <v>       0.28000000       0.43750000       0.00000000 </v>
   <v>       0.32000000       0.43750000       0.00000000 </v>
   <v>       0.36000000       0.43750000       0.00000000 </v>
   <v>       0.40000000       0.43750000       0.00000000 </v>
   <v>       0.44000000       0.43750000       0.00000000 </v>
   <v>       0.48000000       0.43750000       0.00000000 </v>
   <v>      -0.48000000       0.43750000       0.00000000 </v>
   <v>      -0.44000000       0.43750000       0.00000000 </v>
   <v>      -0.40000000       0.43750000       0.00000000 </v>
   <v>      -0.36000000       0.43750000       0.00000000 </v>
   <v>      -0.32000000       0.43750000       0.00000000 </v>
   <v>      -0.28000000       0.43750000       0.00000000 </v>
   <v>      -0.24000000       0.43750000       0.00000000 </v>
   <v>      -0.20000000       0.43750000       0.00000000 </v>
   <v>      -0.16000000       0.43750000       0.00000000 </v>
   <v>      -0.12000000       0.43750000       0.00000000 </v>
   <v>      -0.08000000       0.43750000       0.00000000 </v>
   <v>      -0.04000000       0.43750000       0.00000000 </v>
   <v>       0.00000000       0.50000000       0.00000000 </v>
   <v>       0.04000000       0.50000000       0.00000000 </v>
   <v>       0.08000000       0.50000000       0.00000000 </v>
   <v>       0.12000000       0.50000000       0.00000000 </v>
   <v>       0.16000000       0.50000000       0.00000000 </v>
   <v>       0.20000000       0.50000000       0.00000000 </v>
   <v>       0.24000000       0.50000000       0.00000000 </v>
   <v>       0.28000000       0.50000000       0.00000000 </v>
   <v>       0.32000000       0.50000000       0.00000000 </v>
   <v>       0.36000000       0.50000000       0.00000000 </v>
   <v>       0.40000000       0.50000000       0.00000000 </v>
   <v>       0.44000000       0.50000000       0.00000000 </v>
   <v>       0.48000000       0.50000000       0.00000000 </v>
   <v>       0.00000000       0.00000000       0.10000000 </v>
   <v>       0.04000000       0.00000000       0.10000000 </v>
   <v>       0.08000000       0.00000000       0.10000000 </v>
   <v>       0.12000000       0.00000000       0.10000000 </v>
   <v>       0.16000000       0.00000000       0.10000000 </v>
   <v>       0.20000000       0.00000000       0.10000000 </v>
   <v>       0.24000000       0.00000000       0.10000000 </v>
   <v>       0.28000000       0.00000000       0.10000000 </v>
   <v>       0.32000000       0.00000000       0.10000000 </v>
   <v>       0.36000000       0.00000000       0.10000000 </v>
   <v>       0.40000000       0.00000000       0.10000000 </v>
   <v>       0.44000000       0.00000000       0.10000000 </v>
   <v>       0.48000000       0.00000000       0.10000000 </v>
   <v>      -0.48000000       0.00000000       0.10000000 </v>
   <v>      -0.44000000       0.00000000       0.10000000 </v>
   <v>      -0.40000000       0.00000000       0.10000000 </v>
   <v>      -0.36000000       0.00000000       0.10000000 </v>
   <v>      -0.32000000       0.00000000       0.10000000 </v>
   <v>      -0.28000000       0.00000000       0.10000000 </v>
   <v>      -0.24000000       0.00000000       0.10000000 </v>
   <v>      -0.20000000       0.00000000       0.10000000 </v>
   <v>      -0.16000000       0.00000000       0.10000000 </v>
   <v>      -0.12000000       0.00000000       0.10000000 </v>
   <v>      -0.08000000       0.00000000       0.10000000 </v>
   <v>      -0.04000000       0.00000000       0.10000000 </v>
   <v>       0.00000000       0.06250000       0.10000000 </v>
   <v>       0.04000000       0.06250000       0.10000000 </v>
   <v>       0.08000000       0.06250000       0.10000000 </v>
   <v>       0.12000000       0.06250000       0.10000000 </v>
   <v>       0.16000000       0.06250000       0.10000000 </v>
   <v>       0.20000000       0.06250000       0.10000000 </v>
   <v>       0.24000000       0.06250000       0.10000000 </v>
   <v>       0.28000000       0.06250000       0.10000000 </v>
   <v>       0.32000000       0.06250000       0.10000000 </v>
   <v>       0.36000000       0.06250000       0.10000000 </v>
   <v>       0.40000000       0.06250000       0.10000000 </v>
   <v>       0.44000000       0.06250000       0.10000000 </v>
   <v>       0.48000000       0.06250000       0.10000000 </v>
   <v>      -0.48000000       0.06250000       0.10000000 </v>
   <v>      -0.44000000       0.06250000       0.10000000 </v>
   <v>      -0.40000000       0.06250000       0.10000000 </v>
   <v>      -0.36000000       0.06250000       0.10000000 </v>
   <v>      -0.32000000       0.06250000       0.10000000 </v>
   <v>      -0.28000000       0.06250000       0.10000000 </v>
   <v>      -0.24000000       0.06250000       0.10000000 </v>
   <v>      -0.20000000       0.06250000       0.10000000 </v>
   <v>      -0.16000000       0.06250000       0.10000000 </v>
   <v>      -0.12000000       0.06250000       0.10000000 </v>
   <v>      -0.08000000       0.06250000       0.10000000 </v>
   <v>      -0.04000000       0.06250000       0.10000000 </v>
   <v>       0.00000000       0.12500000       0.10000000 </v>
   <v>       0.04000000       0.12500000       0.10000000 </v>
   <v>       0.08000000       0.12500000       0.10000000 </v>
   <v>       0.12000000       0.12500000       0.10000000 </v>
   <v>       0.16000000       0.12500000       0.10000000 </v>
   <v>       0.20000000       0.12500000       0.10000000 </v>
   <v>       0.24000000       0.12500000       0.10000000 </v>
   <v>       0.28000000       0.12500000       0.10000000 </v>
   <v>       0.32000000       0.12500000       0.10000000 </v>
   <v>       0.36000000       0.12500000       0.10000000 </v>
   <v>       0.40000000       0.12500000       0.10000000 </v>
   <v>       0.44000000       0.12500000       0.10000000 </v>
   <v>       0.48000000       0.12500000       0.10000000 </v>
   <v>      -0.48000000       0.12500000       0.10000000 </v>
   <v>      -0.44000000       0.12500000       0.10000000 </v>
   <v>      -0.40000000       0.12500000       0.10000000 </v>
   <v>      -0.36000000       0.12500000       0.10000000 </v>
   <v>      -0.32000000       0.12500000       0.10000000 </v>
   <v>      -0.28000000       0.12500000       0.10000000 </v>
   <v>      -0.24000000       0.12500000       0.10000000 </v>
   <v>      -0.20000000       0.12500000       0.10000000 </v>
   <v>      -0.16000000       0.12500000       0.10000000 </v>
   <v>      -0.12000000       0.12500000       0.10000000 </v>
   <v>      -0.08000000       0.12500000       0.10000000 </v>
   <v>      -0.04000000       0.12500000       0.10000000 </v>
   <v>       0.00000000       0.18750000       0.10000000 </v>
   <v>       0.04000000       0.18750000       0.10000000 </v>
   <v>       0.08000000       0.18750000       0.10000000 </v>
   <v>       0.12000000       0.18750000       0.10000000 </v>
   <v>       0.16000000       0.18750000       0.10000000 </v>
   <v>       0.20000000       0.18750000       0.10000000 </v>
   <v>       0.24000000       0.18750000       0.10000000 </v>
   <v>       0.28000000       0.18750000       0.10000000 </v>
   <v>       0.32000000       0.18750000       0.10000000 </v>
   <v>       0.36000000       0.18750000       0.10000000 </v>
   <v>       0.40000000       0.18750000       0.10000000 </v>
   <v>       0.44000000       0.18750000       0.10000000 </v>
   <v>       0.48000000       0.18750000       0.10000000 </v>
   <v>      -0.48000000       0.18750000       0.10000000 </v>
   <v>      -0.44000000       0.18750000       0.10000000 </v>
   <v>      -0.40000000       0.18750000       0.10000000 </v>
   <v>      -0.36000000       0.18750000       0.10000000 </v>
   <v>      -0.32000000       0.18750000       0.10000000 </v>
   <v>      -0.28000000       0.18750000       0.10000000 </v>
   <v>      -0.24000000       0.18750000       0.10000000 </v>
   <v>      -0.20000000       0.18750000       0.10000000 </v>
   <v>      -0.16000000       0.18750000       0.10000000 </v>
   <v>      -0.12000000       0.18750000       0.10000000 </v>
   <v>      -0.08000000       0.18750000       0.10000000 </v>
   <v>      -0.04000000       0.18750000       0.10000000 </v>
   <v>       0.00000000       0.25000000       0.10000000 </v>
   <v>       0.04000000       0.25000000       0.10000000 </v>
   <v>       0.08000000       0.25000000       0.10000000 </v>
   <v>       0.12000000       0.25000000       0.10000000 </v>
   <v>       0.16000000       0.25000000       0.10000000 </v>
   <v>       0.20000000       0.25000000       0.10000000 </v>
   <v>       0.24000000       0.25000000       0.10000000 </v>
   <v>       0.28000000       0.25000000       0.10000000 </v>
   <v>       0.32000000       0.25000000       0.10000000 </v>
   <v>       0.36000000       0.25000000       0.10000000 </v>
   <v>       0.40000000       0.25000000       0.10000000 </v>
   <v>       0.44000000       0.25000000       0.10000000 </v>
   <v>       0.48000000       0.25000000       0.10000000 </v>
   <v>      -0.48000000       0.25000000       0.10000000 </v>
   <v>      -0.44000000       0.25000000       0.10000000 </v>
   <v>      -0.40000000       0.25000000       0.10000000 </v>
   <v>      -0.36000000       0.25000000       0.10000000 </v>
   <v>      -0.32000000       0.25000000       0.10000000 </v>
   <v>      -0.28000000       0.25000000       0.10000000 </v>
   <v>      -0.24000000       0.25000000       0.10000000 </v>
   <v>      -0.20000000       0.25000000       0.10000000 </v>
   <v>      -0.16000000       0.25000000       0.10000000 </v>
   <v>      -0.12000000       0.25000000       0.10000000 </v>
   <v>      -0.08000000       0.25000000       0.10000000 </v>
   <v>      -0.04000000       0.25000000       0.10000000 </v>
   <v>       0.00000000       0.31250000       0.10000000 </v>
   <v>       0.04000000       0.31250000       0.10000000 </v>
   <v>       0.08000000       0.31250000       0.10000000 </v>
   <v>       0.12000000       0.31250000       0.10000000 </v>
   <v>       0.16000000       0.31250000       0.10000000 </v>
   <v>       0.20000000       0.31250000       0.10000000 </v>
   <v>       0.24000000       0.31250000       0.10000000 </v>
   <v>       0.28000000       0.31250000       0.10000000 </v>
   <v>       0.32000000       0.31250000       0.10000000 </v>
   <v>       0.36000000       0.31250000       0.10000000 </v>
   <v>       0.40000000       0.31250000       0.10000000 </v>
   <v>       0.44000000       0.31250000       0.10000000 </v>
   <v>       0.48000000       0.31250000       0.10000000 </v>
   <v>      -0.48000000       0.31250000       0.10000000 </v>
   <v>      -0.44000000       0.31250000       0.10000000 </v>
   <v>      -0.40000000       0.31250000       0.10000000 </v>
   <v>      -0.36000000       0.31250000       0.10000000 </v>
   <v>      -0.32000000       0.31250000       0.10000000 </v>
   <v>      -0.28000000       0.31250000       0.10000000 </v>
   <v>      -0.24000000       0.31250000       0.10000000 </v>
   <v>      -0.20000000       0.31250000       0.10000000 </v>
   <v>      -0.16000000       0.31250000       0.10000000 </v>
   <v>      -0.12000000       0.31250000       0.10000000 </v>
   <v>      -0.08000000       0.31250000       0.10000000 </v>
   <v>      -0.04000000       0.31250000       0.10000000 </v>
   <v>       0.00000000       0.37500000       0.10000000 </v>
   <v>       0.04000000       0.37500000       0.10000000 </v>
   <v>       0.08000000       0.37500000       0.10000000 </v>
   <v>       0.12000000       0.37500000       0.10000000 </v>
   <v>       0.16000000       0.37500000       0.10000000 </v>
   <v>       0.20000000       0.37500000       0.10000000 </v>
   <v>       0.24000000       0.37500000       0.10000000 </v>
   <v>       0.28000000       0.37500000       0.10000000 </v>
   <v>       0.32000000       0.37500000       0.10000000 </v>
   <v>       0.36000000       0.37500000       0.10000000 </v>
   <v>       0.40000000       0.37500000       0.10000000 </v>
   <v>       0.44000000       0.37500000       0.10000000 </v>
   <v>       0.48000000       0.37500000       0.10000000 </v>
   <v>      -0.48000000       0.37500000       0.10000000 </v>
   <v>      -0.44000000       0.37500000       0.10000000 </v>
   <v>      -0.40000000       0.37500000       0.10000000 </v>
   <v>      -0.36000000       0.37500000       0.10000000 </v>
   <v>      -0.32000000       0.37500000       0.10000000 </v>
   <v>      -0.28000000       0.37500000       0.10000000 </v>
   <v>      -0.24000000       0.37500000       0.10000000 </v>
   <v>      -0.20000000       0.37500000       0.10000000 </v>
   <v>      -0.16000000       0.37500000       0.10000000 </v>
   <v>      -0.12000000       0.37500000       0.10000000 </v>
   <v>      -0.08000000       0.37500000       0.10000000 </v>
   <v>      -0.04000000       0.37500000       0.10000000 </v>
   <v>       0.00000000       0.43750000       0.10000000 </v>
   <v>       0.04000000       0.43750000       0.10000000 </v>
   <v>       0.08000000       0.43750000       0.10000000 </v>
   <v>       0.12000000       0.43750000       0.10000000 </v>
   <v>       0.16000000       0.43750000       0.10000000 </v>
   <v>       0.20000000       0.43750000       0.10000000 </v>
   <v>       0.24000000       0.43750000       0.10000000 </v>
   <v>       0.28000000       0.43750000       0.10000000 </v>
   <v>       0.32000000       0.43750000       0.10000000 </v>
   <v>       0.36000000       0.43750000       0.10000000 </v>
   <v>       0.40000000       0.43750000       0.10000000 </v>
   <v>       0.44000000       0.43750000       0.10000000 </v>
   <v>       0.48000000       0.43750000       0.10000000 </v>
   <v>      -0.48000000       0.43750000       0.10000000 </v>
   <v>      -0.44000000       0.43750000       0.10000000 </v>
   <v>      -0.40000000       0.43750000       0.10000000 </v>
   <v>      -0.36000000       0.43750000       0.10000000 </v>
   <v>      -0.32000000       0.43750000       0.10000000 </v>
   <v>      -0.28000000       0.43750000       0.10000000 </v>
   <v>      -0.24000000       0.43750000       0.10000000 </v>
   <v>      -0.20000000       0.43750000       0.10000000 </v>
   <v>      -0.16000000       0.43750000       0.10000000 </v>
   <v>      -0.12000000       0.43750000       0.10000000 </v>
   <v>      -0.08000000       0.43750000       0.10000000 </v>
   <v>      -0.04000000       0.43750000       0.10000000 </v>
   <v>       0.00000000       0.50000000       0.10000000 </v>
   <v>       0.04000000       0.50000000       0.10000000 </v>
   <v>       0.08000000       0.50000000       0.10000000 </v>
   <v>       0.12000000       0.50000000       0.10000000 </v>
   <v>       0.16000000       0.50000000       0.10000000 </v>
   <v>       0.20000000       0.50000000       0.10000000 </v>
   <v>       0.24000000       0.50000000       0.10000000 </v>
   <v>       0.28000000       0.50000000       0.10000000 </v>
   <v>       0.32000000       0.50000000       0.10000000 </v>
   <v>       0.36000000       0.50000000       0.10000000 </v>
   <v>       0.40000000       0.50000000       0.10000000 </v>
   <v>       0.44000000       0.50000000       0.10000000 </v>
   <v>       0.48000000       0.50000000       0.10000000 </v>
   <v>      -0.48000000       0.50000000       0.10000000 </v>
   <v>      -0.44000000       0.50000000       0.10000000 </v>
   <v>      -0.40000000       0.50000000       0.10000000 </v>
   <v>      -0.36000000       0.50000000       0.10000000 </v>
   <v>      -0.32000000       0.50000000       0.10000000 </v>
   <v>      -0.28000000       0.50000000       0.10000000 </v>
   <v>      -0.24000000       0.50000000       0.10000000 </v>
   <v>      -0.20000000       0.50000000       0.10000000 </v>
   <v>      -0.16000000       0.50000000       0.10000000 </v>
   <v>      -0.12000000       0.50000000       0.10000000 </v>
   <v>      -0.08000000       0.50000000       0.10000000 </v>
   <v>      -0.04000000       0.50000000       0.10000000 </v>
   <v>       0.00000000      -0.43750000       0.10000000 </v>
   <v>       0.04000000      -0.43750000       0.10000000 </v>
   <v>       0.08000000      -0.43750000       0.10000000 </v>
   <v>       0.12000000      -0.43750000       0.10000000 </v>
   <v>       0.16000000      -0.43750000       0.10000000 </v>
   <v>       0.20000000      -0.43750000       0.10000000 </v>
   <v>       0.24000000      -0.43750000       0.10000000 </v>
   <v>       0.28000000      -0.43750000       0.10000000 </v>
   <v>       0.32000000      -0.43750000       0.10000000 </v>
   <v>       0.36000000      -0.43750000       0.10000000 </v>
   <v>       0.40000000      -0.43750000       0.10000000 </v>
   <v>       0.44000000      -0.43750000       0.10000000 </v>
   <v>       0.48000000      -0.43750000       0.10000000 </v>
   <v>      -0.48000000      -0.43750000       0.10000000 </v>
   <v>      -0.44000000      -0.43750000       0.10000000 </v>
   <v>      -0.40000000      -0.43750000       0.10000000 </v>
   <v>      -0.36000000      -0.43750000       0.10000000 </v>
   <v>      -0.32000000      -0.43750000       0.10000000 </v>
   <v>      -0.28000000      -0.43750000       0.10000000 </v>
   <v>      -0.24000000      -0.43750000       0.10000000 </v>
   <v>      -0.16000000      -0.43750000       0.10000000 </v>
   <v>      -0.12000000      -0.43750000       0.10000000 </v>
   <v>      -0.08000000      -0.43750000       0.10000000 </v>
   <v>      -0.04000000      -0.43750000       0.10000000 </v>
   <v>       0.00000000      -0.37500000       0.10000000 </v>
   <v>       0.04000000      -0.37500000       0.10000000 </v>
   <v>       0.08000000      -0.37500000       0.10000000 </v>
   <v>       0.12000000      -0.37500000       0.10000000 </v>
   <v>       0.16000000      -0.37500000       0.10000000 </v>
   <v>       0.20000000      -0.37500000       0.10000000 </v>
   <v>       0.24000000      -0.37500000       0.10000000 </v>
   <v>       0.28000000      -0.37500000       0.10000000 </v>
   <v>       0.32000000      -0.37500000       0.10000000 </v>
   <v>       0.36000000      -0.37500000       0.10000000 </v>
   <v>       0.40000000      -0.37500000       0.10000000 </v>
   <v>       0.44000000      -0.37500000       0.10000000 </v>
   <v>       0.48000000      -0.37500000       0.10000000 </v>
   <v>      -0.48000000      -0.37500000       0.10000000 </v>
   <v>      -0.44000000      -0.37500000       0.10000000 </v>
   <v>      -0.40000000      -0.37500000       0.10000000 </v>
   <v>      -0.36000000      -0.37500000       0.10000000 </v>
   <v>      -0.32000000      -0.37500000       0.10000000 </v>
   <v>      -0.28000000      -0.37500000       0.10000000 </v>
   <v>      -0.24000000      -0.37500000       0.10000000 </v>
   <v>      -0.16000000      -0.37500000       0.10000000 </v>
   <v>      -0.12000000      -0.37500000       0.10000000 </v>
   <v>      -0.08000000      -0.37500000       0.10000000 </v>
   <v>      -0.04000000      -0.37500000       0.10000000 </v>
   <v>       0.00000000      -0.31250000       0.10000000 </v>
   <v>       0.04000000      -0.31250000       0.10000000 </v>
   <v>       0.08000000      -0.31250000       0.10000000 </v>
   <v>       0.12000000      -0.31250000       0.10000000 </v>
   <v>       0.16000000      -0.31250000       0.10000000 </v>
   <v>       0.20000000      -0.31250000       0.10000000 </v>
   <v>       0.24000000      -0.31250000       0.10000000 </v>
   <v>       0.28000000      -0.31250000       0.10000000 </v>
   <v>       0.32000000      -0.31250000       0.10000000 </v>
   <v>       0.36000000      -0.31250000       0.10000000 </v>
   <v>       0.40000000      -0.31250000       0.10000000 </v>
   <v>       0.44000000      -0.31250000       0.10000000 </v>
   <v>       0.48000000      -0.31250000       0.10000000 </v>
   <v>      -0.48000000      -0.31250000       0.10000000 </v>
   <v>      -0.44000000      -0.31250000       0.10000000 </v>
   <v>      -0.40000000      -0.31250000       0.10000000 </v>
   <v>      -0.36000000      -0.31250000       0.10000000 </v>
   <v>      -0.32000000      -0.31250000       0.10000000 </v>
   <v>      -0.28000000      -0.31250000       0.10000000 </v>
   <v>      -0.24000000      -0.31250000       0.10000000 </v>
   <v>      -0.16000000      -0.31250000       0.10000000 </v>
   <v>      -0.12000000      -0.31250000       0.10000000 </v>
   <v>      -0.08000000      -0.31250000       0.10000000 </v>
   <v>      -0.04000000      -0.31250000       0.10000000 </v>
   <v>       0.00000000      -0.25000000       0.10000000 </v>
   <v>       0.04000000      -0.25000000       0.10000000 </v>
   <v>       0.08000000      -0.25000000       0.10000000 </v>
   <v>       0.12000000      -0.25000000       0.10000000 </v>
   <v>       0.16000000      -0.25000000       0.10000000 </v>
   <v>       0.20000000      -0.25000000       0.10000000 </v>
   <v>       0.24000000      -0.25000000       0.10000000 </v>
   <v>       0.28000000      -0.25000000       0.10000000 </v>
   <v>       0.32000000      -0.25000000       0.10000000 </v>
   <v>       0.36000000      -0.25000000       0.10000000 </v>
   <v>       0.40000000      -0.25000000       0.10000000 </v>
   <v>       0.44000000      -0.25000000       0.10000000 </v>
   <v>       0.48000000      -0.25000000       0.10000000 </v>
   <v>      -0.48000000      -0.25000000       0.10000000 </v>
   <v>      -0.44000000      -0.25000000       0.10000000 </v>
   <v>      -0.40000000      -0.25000000       0.10000000 </v>
   <v>      -0.36000000      -0.25000000       0.10000000 </v>
   <v>      -0.32000000      -0.25000000       0.10000000 </v>
   <v>      -0.28000000      -0.25000000       0.10000000 </v>
   <v>      -0.24000000      -0.25000000       0.10000000 </v>
   <v>      -0.16000000      -0.25000000       0.10000000 </v>
   <v>      -0.12000000      -0.25000000       0.10000000 </v>
   <v>      -0.08000000      -0.25000000       0.10000000 </v>
   <v>      -0.04000000      -0.25000000       0.10000000 </v>
   <v>       0.00000000      -0.18750000       0.10000000 </v>
   <v>       0.04000000      -0.18750000       0.10000000 </v>
   <v>       0.08000000      -0.18750000       0.10000000 </v>
   <v>       0.12000000      -0.18750000       0.10000000 </v>
   <v>       0.16000000      -0.18750000       0.10000000 </v>
   <v>       0.20000000      -0.18750000       0.10000000 </v>
   <v>       0.24000000      -0.18750000       0.10000000 </v>
   <v>       0.28000000      -0.18750000       0.10000000 </v>
   <v>       0.32000000      -0.18750000       0.10000000 </v>
   <v>       0.36000000      -0.18750000       0.10000000 </v>
   <v>       0.40000000      -0.18750000       0.10000000 </v>
   <v>       0.44000000      -0.18750000       0.10000000 </v>
   <v>       0.48000000      -0.18750000       0.10000000 </v>
   <v>      -0.48000000      -0.18750000       0.10000000 </v>
   <v>      -0.44000000      -0.18750000       0.10000000 </v>
   <v>      -0.40000000      -0.18750000       0.10000000 </v>
   <v>      -0.36000000      -0.18750000       0.10000000 </v>
   <v>      -0.32000000      -0.18750000       0.10000000 </v>
   <v>      -0.28000000      -0.18750000       0.10000000 </v>
   <v>      -0.24000000      -0.18750000       0.10000000 </v>
   <v>      -0.16000000      -0.18750000       0.10000000 </v>
   <v>      -0.12000000      -0.18750000       0.10000000 </v>
   <v>      -0.08000000      -0.18750000       0.10000000 </v>
   <v>      -0.04000000      -0.18750000       0.10000000 </v>
   <v>       0.00000000      -0.12500000       0.10000000 </v>
   <v>       0.04000000      -0.12500000       0.10000000 </v>
   <v>       0.08000000      -0.12500000       0.10000000 </v>
   <v>       0.12000000      -0.12500000       0.10000000 </v>
   <v>       0.16000000      -0.12500000       0.10000000 </v>
   <v>       0.20000000      -0.12500000       0.10000000 </v>
   <v>       0.24000000      -0.12500000       0.10000000 </v>
   <v>       0.28000000      -0.12500000       0.10000000 </v>
   <v>       0.32000000      -0.12500000       0.10000000 </v>
   <v>       0.36000000      -0.12500000       0.10000000 </v>
   <v>       0.40000000      -0.12500000       0.10000000 </v>
   <v>       0.44000000      -0.12500000       0.10000000 </v>
   <v>       0.48000000      -0.12500000       0.10000000 </v>
   <v>      -0.48000000      -0.12500000       0.10000000 </v>
   <v>      -0.44000000      -0.12500000       0.10000000 </v>
   <v>      -0.40000000      -0.12500000       0.10000000 </v>
   <v>      -0.36000000      -0.12500000       0.10000000 </v>
   <v>      -0.32000000      -0.12500000       0.10000000 </v>
   <v>      -0.28000000      -0.12500000       0.10000000 </v>
   <v>      -0.24000000      -0.12500000       0.10000000 </v>
   <v>      -0.16000000      -0.12500000       0.10000000 </v>
   <v>      -0.12000000      -0.12500000       0.10000000 </v>
   <v>      -0.08000000      -0.12500000       0.10000000 </v>
   <v>      -0.04000000      -0.12500000       0.10000000 </v>
   <v>       0.00000000      -0.06250000       0.10000000 </v>
   <v>       0.04000000      -0.06250000       0.10000000 </v>
   <v>       0.08000000      -0.06250000       0.10000000 </v>
   <v>       0.12000000      -0.06250000       0.10000000 </v>
   <v>       0.16000000      -0.06250000       0.10000000 </v>
   <v>       0.20000000      -0.06250000       0.10000000 </v>
   <v>       0.24000000      -0.06250000       0.10000000 </v>
   <v>       0.28000000      -0.06250000       0.10000000 </v>
   <v>       0.32000000      -0.06250000       0.10000000 </v>
   <v>       0.36000000      -0.06250000       0.10000000 </v>
   <v>       0.40000000      -0.06250000       0.10000000 </v>
   <v>       0.44000000      -0.06250000       0.10000000 </v>
   <v>       0.48000000      -0.06250000       0.10000000 </v>
   <v>      -0.48000000      -0.06250000       0.10000000 </v>
   <v>      -0.44000000      -0.06250000       0.10000000 </v>
   <v>      -0.40000000      -0.06250000       0.10000000 </v>
   <v>      -0.36000000      -0.06250000       0.10000000 </v>
   <v>      -0.32000000      -0.06250000       0.10000000 </v>
   <v>      -0.28000000      -0.06250000       0.10000000 </v>
   <v>      -0.24000000      -0.06250000       0.10000000 </v>
   <v>      -0.16000000      -0.06250000       0.10000000 </v>
   <v>      -0.12000000      -0.06250000       0.10000000 </v>
   <v>      -0.08000000      -0.06250000       0.10000000 </v>
   <v>      -0.04000000      -0.06250000       0.10000000 </v>
   <v>       0.00000000       0.00000000       0.20000000 </v>
   <v>       0.04000000       0.00000000       0.20000000 </v>
   <v>       0.08000000       0.00000000       0.20000000 </v>
   <v>       0.12000000       0.00000000       0.20000000 </v>
   <v>       0.16000000       0.00000000       0.20000000 </v>
   <v>       0.20000000       0.00000000       0.20000000 </v>
   <v>       0.24000000       0.00000000       0.20000000 </v>
   <v>       0.28000000       0.00000000       0.20000000 </v>
   <v>       0.32000000       0.00000000       0.20000000 </v>
   <v>       0.36000000       0.00000000       0.20000000 </v>
   <v>       0.40000000       0.00000000       0.20000000 </v>
   <v>       0.44000000       0.00000000       0.20000000 </v>
   <v>       0.48000000       0.00000000       0.20000000 </v>
   <v>      -0.48000000       0.00000000       0.20000000 </v>
   <v>      -0.44000000       0.00000000       0.20000000 </v>
   <v>      -0.40000000       0.00000000       0.20000000 </v>
   <v>      -0.36000000       0.00000000       0.20000000 </v>
   <v>      -0.32000000       0.00000000       0.20000000 </v>
   <v>      -0.28000000       0.00000000       0.20000000 </v>
   <v>      -0.24000000       0.00000000       0.20000000 </v>
   <v>      -0.16000000       0.00000000       0.20000000 </v>
   <v>      -0.12000000       0.00000000       0.20000000 </v>
   <v>      -0.08000000       0.00000000       0.20000000 </v>
   <v>      -0.04000000       0.00000000       0.20000000 </v>
   <v>       0.00000000       0.06250000       0.20000000 </v>
   <v>       0.04000000       0.06250000       0.20000000 </v>
   <v>       0.08000000       0.06250000       0.20000000 </v>
   <v>       0.12000000       0.06250000       0.20000000 </v>
   <v>       0.16000000       0.06250000       0.20000000 </v>
   <v>       0.20000000       0.06250000       0.20000000 </v>
   <v>       0.24000000       0.06250000       0.20000000 </v>
   <v>       0.28000000       0.06250000       0.20000000 </v>
   <v>       0.32000000       0.06250000       0.20000000 </v>
   <v>       0.36000000       0.06250000       0.20000000 </v>
   <v>       0.40000000       0.06250000       0.20000000 </v>
   <v>       0.44000000       0.06250000       0.20000000 </v>
   <v>       0.48000000       0.06250000       0.20000000 </v>
   <v>      -0.48000000       0.06250000       0.20000000 </v>
   <v>      -0.44000000       0.06250000       0.20000000 </v>
   <v>      -0.40000000       0.06250000       0.20000000 </v>
   <v>      -0.36000000       0.06250000       0.20000000 </v>
   <v>      -0.32000000       0.06250000       0.20000000 </v>
   <v>      -0.28000000       0.06250000       0.20000000 </v>
   <v>      -0.24000000       0.06250000       0.20000000 </v>
   <v>      -0.16000000       0.06250000       0.20000000 </v>
   <v>      -0.12000000       0.06250000       0.20000000 </v>
   <v>      -0.08000000       0.06250000       0.20000000 </v>
   <v>      -0.04000000       0.06250000       0.20000000 </v>
   <v>       0.00000000       0.12500000       0.20000000 </v>
   <v>       0.04000000       0.12500000       0.20000000 </v>
   <v>       0.08000000       0.12500000       0.20000000 </v>
   <v>       0.12000000       0.12500000       0.20000000 </v>
   <v>       0.16000000       0.12500000       0.20000000 </v>
   <v>       0.20000000       0.12500000       0.20000000 </v>
   <v>       0.24000000       0.12500000       0.20000000 </v>
   <v>       0.28000000       0.12500000       0.20000000 </v>
   <v>       0.32000000       0.12500000       0.20000000 </v>
   <v>       0.36000000       0.12500000       0.20000000 </v>
   <v>       0.40000000       0.12500000       0.20000000 </v>
   <v>       0.44000000       0.12500000       0.20000000 </v>
   <v>       0.48000000       0.12500000       0.20000000 </v>
   <v>      -0.48000000       0.12500000       0.20000000 </v>
   <v>      -0.44000000       0.12500000       0.20000000 </v>
   <v>      -0.40000000       0.12500000       0.20000000 </v>
   <v>      -0.36000000       0.12500000       0.20000000 </v>
   <v>      -0.32000000       0.12500000       0.20000000 </v>
   <v>      -0.28000000       0.12500000       0.20000000 </v>
   <v>      -0.24000000       0.12500000       0.20000000 </v>
   <v>      -0.16000000       0.12500000       0.20000000 </v>
   <v>      -0.12000000       0.12500000       0.20000000 </v>
   <v>      -0.08000000       0.12500000       0.20000000 </v>
   <v>      -0.04000000       0.12500000       0.20000000 </v>
   <v>       0.00000000       0.18750000       0.20000000 </v>
   <v>       0.04000000       0.18750000       0.20000000 </v>
   <v>       0.08000000       0.18750000       0.20000000 </v>
   <v>       0.12000000       0.18750000       0.20000000 </v>
   <v>       0.16000000       0.18750000       0.20000000 </v>
   <v>       0.20000000       0.18750000       0.20000000 </v>
   <v>       0.24000000       0.18750000       0.20000000 </v>
   <v>       0.28000000       0.18750000       0.20000000 </v>
   <v>       0.32000000       0.18750000       0.20000000 </v>
   <v>       0.36000000       0.18750000       0.20000000 </v>
   <v>       0.40000000       0.18750000       0.20000000 </v>
   <v>       0.44000000       0.18750000       0.20000000 </v>
   <v>       0.48000000       0.18750000       0.20000000 </v>
   <v>      -0.48000000       0.18750000       0.20000000 </v>
   <v>      -0.44000000       0.18750000       0.20000000 </v>
   <v>      -0.40000000       0.18750000       0.20000000 </v>
   <v>      -0.36000000       0.18750000       0.20000000 </v>
   <v>      -0.32000000       0.18750000       0.20000000 </v>
   <v>      -0.28000000       0.18750000       0.20000000 </v>
   <v>      -0.24000000       0.18750000       0.20000000 </v>
   <v>      -0.16000000       0.18750000       0.20000000 </v>
   <v>      -0.12000000       0.18750000       0.20000000 </v>
   <v>      -0.08000000       0.18750000       0.20000000 </v>
   <v>      -0.04000000       0.18750000       0.20000000 </v>
   <v>       0.00000000       0.25000000       0.20000000 </v>
   <v>       0.04000000       0.25000000       0.20000000 </v>
   <v>       0.08000000       0.25000000       0.20000000 </v>
   <v>       0.12000000       0.25000000       0.20000000 </v>
   <v>       0.16000000       0.25000000       0.20000000 </v>
   <v>       0.20000000       0.25000000       0.20000000 </v>
   <v>       0.24000000       0.25000000       0.20000000 </v>
   <v>       0.28000000       0.25000000       0.20000000 </v>
   <v>       0.32000000       0.25000000       0.20000000 </v>
   <v>       0.36000000       0.25000000       0.20000000 </v>
   <v>       0.40000000       0.25000000       0.20000000 </v>
   <v>       0.44000000       0.25000000       0.20000000 </v>
   <v>       0.48000000       0.25000000       0.20000000 </v>
   <v>      -0.48000000       0.25000000       0.20000000 </v>
   <v>      -0.44000000       0.25000000       0.20000000 </v>
   <v>      -0.40000000       0.25000000       0.20000000 </v>
   <v>      -0.36000000       0.25000000       0.20000000 </v>
   <v>      -0.32000000       0.25000000       0.20000000 </v>
   <v>      -0.28000000       0.25000000       0.20000000 </v>
   <v>      -0.24000000       0.25000000       0.20000000 </v>
   <v>      -0.16000000       0.25000000       0.20000000 </v>
   <v>      -0.12000000       0.25000000       0.20000000 </v>
   <v>      -0.08000000       0.25000000       0.20000000 </v>
   <v>      -0.04000000       0.25000000       0.20000000 </v>
   <v>       0.00000000       0.31250000       0.20000000 </v>
   <v>       0.04000000       0.31250000       0.20000000 </v>
   <v>       0.08000000       0.31250000       0.20000000 </v>
   <v>       0.12000000       0.31250000       0.20000000 </v>
   <v>       0.16000000       0.31250000       0.20000000 </v>
   <v>       0.20000000       0.31250000       0.20000000 </v>
   <v>       0.24000000       0.31250000       0.20000000 </v>
   <v>       0.28000000       0.31250000       0.20000000 </v>
   <v>       0.32000000       0.31250000       0.20000000 </v>
   <v>       0.36000000       0.31250000       0.20000000 </v>
   <v>       0.40000000       0.31250000       0.20000000 </v>
   <v>       0.44000000       0.31250000       0.20000000 </v>
   <v>       0.48000000       0.31250000       0.20000000 </v>
   <v>      -0.48000000       0.31250000       0.20000000 </v>
   <v>      -0.44000000       0.31250000       0.20000000 </v>
   <v>      -0.40000000       0.31250000       0.20000000 </v>
   <v>      -0.36000000       0.31250000       0.20000000 </v>
   <v>      -0.32000000       0.31250000       0.20000000 </v>
   <v>      -0.28000000       0.31250000       0.20000000 </v>
   <v>      -0.24000000       0.31250000       0.20000000 </v>
   <v>      -0.16000000       0.31250000       0.20000000 </v>
   <v>      -0.12000000       0.31250000       0.20000000 </v>
   <v>      -0.08000000       0.31250000       0.20000000 </v>
   <v>      -0.04000000       0.31250000       0.20000000 </v>
   <v>       0.00000000       0.37500000       0.20000000 </v>
   <v>       0.04000000       0.37500000       0.20000000 </v>
   <v>       0.08000000       0.37500000       0.20000000 </v>
   <v>       0.12000000       0.37500000       0.20000000 </v>
   <v>       0.16000000       0.37500000       0.20000000 </v>
   <v>       0.20000000       0.37500000       0.20000000 </v>
   <v>       0.24000000       0.37500000       0.20000000 </v>
   <v>       0.28000000       0.37500000       0.20000000 </v>
   <v>       0.32000000       0.37500000       0.20000000 </v>
   <v>       0.36000000       0.37500000       0.20000000 </v>
   <v>       0.40000000       0.37500000       0.20000000 </v>
   <v>       0.44000000       0.37500000       0.20000000 </v>
   <v>       0.48000000       0.37500000       0.20000000 </v>
   <v>      -0.48000000       0.37500000       0.20000000 </v>
   <v>      -0.44000000       0.37500000       0.20000000 </v>
   <v>      -0.40000000       0.37500000       0.20000000 </v>
   <v>      -0.36000000       0.37500000       0.20000000 </v>
   <v>      -0.32000000       0.37500000       0.20000000 </v>
   <v>      -0.28000000       0.37500000       0.20000000 </v>
   <v>      -0.24000000       0.37500000       0.20000000 </v>
   <v>      -0.16000000       0.37500000       0.20000000 </v>
   <v>      -0.12000000       0.37500000       0.20000000 </v>
   <v>      -0.08000000       0.37500000       0.20000000 </v>
   <v>      -0.04000000       0.37500000       0.20000000 </v>
   <v>       0.00000000       0.43750000       0.20000000 </v>
   <v>       0.04000000       0.43750000       0.20000000 </v>
   <v>       0.08000000       0.43750000       0.20000000 </v>
   <v>       0.12000000       0.43750000       0.20000000 </v>
   <v>       0.16000000       0.43750000       0.20000000 </v>
   <v>       0.20000000       0.43750000       0.20000000 </v>
   <v>       0.24000000       0.43750000       0.20000000 </v>
   <v>       0.28000000       0.43750000       0.20000000 </v>
   <v>       0.32000000       0.43750000       0.20000000 </v>
   <v>       0.36000000       0.43750000       0.20000000 </v>
   <v>       0.40000000       0.43750000       0.20000000 </v>
   <v>       0.44000000       0.43750000       0.20000000 </v>
   <v>       0.48000000       0.43750000       0.20000000 </v>
   <v>      -0.48000000       0.43750000       0.20000000 </v>
   <v>      -0.44000000       0.43750000       0.20000000 </v>
   <v>      -0.40000000       0.43750000       0.20000000 </v>
   <v>      -0.36000000       0.43750000       0.20000000 </v>
   <v>      -0.32000000       0.43750000       0.20000000 </v>
   <v>      -0.28000000       0.43750000       0.20000000 </v>
   <v>      -0.24000000       0.43750000       0.20000000 </v>
   <v>      -0.16000000       0.43750000       0.20000000 </v>
   <v>      -0.12000000       0.43750000       0.20000000 </v>
   <v>      -0.08000000       0.43750000       0.20000000 </v>
   <v>      -0.04000000       0.43750000       0.20000000 </v>
   <v>       0.00000000       0.50000000       0.20000000 </v>
   <v>       0.04000000       0.50000000       0.20000000 </v>
   <v>       0.08000000       0.50000000       0.20000000 </v>
   <v>       0.12000000       0.50000000       0.20000000 </v>
   <v>       0.16000000       0.50000000       0.20000000 </v>
   <v>       0.20000000       0.50000000       0.20000000 </v>
   <v>       0.24000000       0.50000000       0.20000000 </v>
   <v>       0.28000000       0.50000000       0.20000000 </v>
   <v>       0.32000000       0.50000000       0.20000000 </v>
   <v>       0.36000000       0.50000000       0.20000000 </v>
   <v>       0.40000000       0.50000000       0.20000000 </v>
   <v>       0.44000000       0.50000000       0.20000000 </v>
   <v>       0.48000000       0.50000000       0.20000000 </v>
   <v>      -0.48000000       0.50000000       0.20000000 </v>
   <v>      -0.44000000       0.50000000       0.20000000 </v>
   <v>      -0.40000000       0.50000000       0.20000000 </v>
   <v>      -0.36000000       0.50000000       0.20000000 </v>
   <v>      -0.32000000       0.50000000       0.20000000 </v>
   <v>      -0.28000000       0.50000000       0.20000000 </v>
   <v>      -0.24000000       0.50000000       0.20000000 </v>
   <v>      -0.16000000       0.50000000       0.20000000 </v>
   <v>      -0.12000000       0.50000000       0.20000000 </v>
   <v>      -0.08000000       0.50000000       0.20000000 </v>
   <v>      -0.04000000       0.50000000       0.20000000 </v>
   <v>       0.00000000      -0.43750000       0.20000000 </v>
   <v>       0.04000000      -0.43750000       0.20000000 </v>
   <v>       0.08000000      -0.43750000       0.20000000 </v>
   <v>       0.12000000      -0.43750000       0.20000000 </v>
   <v>       0.16000000      -0.43750000       0.20000000 </v>
   <v>       0.20000000      -0.43750000       0.20000000 </v>
   <v>       0.24000000      -0.43750000       0.20000000 </v>
   <v>       0.28000000      -0.43750000       0.20000000 </v>
   <v>       0.32000000      -0.43750000       0.20000000 </v>
   <v>       0.36000000      -0.43750000       0.20000000 </v>
   <v>       0.40000000      -0.43750000       0.20000000 </v>
   <v>       0.44000000      -0.43750000       0.20000000 </v>
   <v>       0.48000000      -0.43750000       0.20000000 </v>
   <v>      -0.48000000      -0.43750000       0.20000000 </v>
   <v>      -0.44000000      -0.43750000       0.20000000 </v>
   <v>      -0.36000000      -0.43750000       0.20000000 </v>
   <v>      -0.32000000      -0.43750000       0.20000000 </v>
   <v>      -0.28000000      -0.43750000       0.20000000 </v>
   <v>      -0.24000000      -0.43750000       0.20000000 </v>
   <v>      -0.16000000      -0.43750000       0.20000000 </v>
   <v>      -0.12000000      -0.43750000       0.20000000 </v>
   <v>      -0.08000000      -0.43750000       0.20000000 </v>
   <v>      -0.04000000      -0.43750000       0.20000000 </v>
   <v>       0.00000000      -0.37500000       0.20000000 </v>
   <v>       0.04000000      -0.37500000       0.20000000 </v>
   <v>       0.08000000      -0.37500000       0.20000000 </v>
   <v>       0.12000000      -0.37500000       0.20000000 </v>
   <v>       0.16000000      -0.37500000       0.20000000 </v>
   <v>       0.20000000      -0.37500000       0.20000000 </v>
   <v>       0.24000000      -0.37500000       0.20000000 </v>
   <v>       0.28000000      -0.37500000       0.20000000 </v>
   <v>       0.32000000      -0.37500000       0.20000000 </v>
   <v>       0.36000000      -0.37500000       0.20000000 </v>
   <v>       0.40000000      -0.37500000       0.20000000 </v>
   <v>       0.44000000      -0.37500000       0.20000000 </v>
   <v>       0.48000000      -0.37500000       0.20000000 </v>
   <v>      -0.48000000      -0.37500000       0.20000000 </v>
   <v>      -0.44000000      -0.37500000       0.20000000 </v>
   <v>      -0.36000000      -0.37500000       0.20000000 </v>
   <v>      -0.32000000      -0.37500000       0.20000000 </v>
   <v>      -0.28000000      -0.37500000       0.20000000 </v>
   <v>      -0.24000000      -0.37500000       0.20000000 </v>
   <v>      -0.16000000      -0.37500000       0.20000000 </v>
   <v>      -0.12000000      -0.37500000       0.20000000 </v>
   <v>      -0.08000000      -0.37500000       0.20000000 </v>
   <v>      -0.04000000      -0.37500000       0.20000000 </v>
   <v>       0.00000000      -0.31250000       0.20000000 </v>
   <v>       0.04000000      -0.31250000       0.20000000 </v>
   <v>       0.08000000      -0.31250000       0.20000000 </v>
   <v>       0.12000000      -0.31250000       0.20000000 </v>
   <v>       0.16000000      -0.31250000       0.20000000 </v>
   <v>       0.20000000      -0.31250000       0.20000000 </v>
   <v>       0.24000000      -0.31250000       0.20000000 </v>
   <v>       0.28000000      -0.31250000       0.20000000 </v>
   <v>       0.32000000      -0.31250000       0.20000000 </v>
   <v>       0.36000000      -0.31250000       0.20000000 </v>
   <v>       0.40000000      -0.31250000       0.20000000 </v>
   <v>       0.44000000      -0.31250000       0.20000000 </v>
   <v>       0.48000000      -0.31250000       0.20000000 </v>
   <v>      -0.48000000      -0.31250000       0.20000000 </v>
   <v>      -0.44000000      -0.31250000       0.20000000 </v>
   <v>      -0.36000000      -0.31250000       0.20000000 </v>
   <v>      -0.32000000      -0.31250000       0.20000000 </v>
   <v>      -0.28000000      -0.31250000       0.20000000 </v>
   <v>      -0.24000000      -0.31250000       0.20000000 </v>
   <v>      -0.16000000      -0.31250000       0.20000000 </v>
   <v>      -0.12000000      -0.31250000       0.20000000 </v>
   <v>      -0.08000000      -0.31250000       0.20000000 </v>
   <v>      -0.04000000      -0.31250000       0.20000000 </v>
   <v>       0.00000000      -0.25000000       0.20000000 </v>
   <v>       0.04000000      -0.25000000       0.20000000 </v>
   <v>       0.08000000      -0.25000000       0.20000000 </v>
   <v>       0.12000000      -0.25000000       0.20000000 </v>
   <v>       0.16000000      -0.25000000       0.20000000 </v>
   <v>       0.20000000      -0.25000000       0.20000000 </v>
   <v>       0.24000000      -0.25000000       0.20000000 </v>
   <v>       0.28000000      -0.25000000       0.20000000 </v>
   <v>       0.32000000      -0.25000000       0.20000000 </v>
   <v>       0.36000000      -0.25000000       0.20000000 </v>
   <v>       0.40000000      -0.25000000       0.20000000 </v>
   <v>       0.44000000      -0.25000000       0.20000000 </v>
   <v>       0.48000000      -0.25000000       0.20000000 </v>
   <v>      -0.48000000      -0.25000000       0.20000000 </v>
   <v>      -0.44000000      -0.25000000       0.20000000 </v>
   <v>      -0.36000000      -0.25000000       0.20000000 </v>
   <v>      -0.32000000      -0.25000000       0.20000000 </v>
   <v>      -0.28000000      -0.25000000       0.20000000 </v>
   <v>      -0.24000000      -0.25000000       0.20000000 </v>
   <v>      -0.16000000      -0.25000000       0.20000000 </v>
   <v>      -0.12000000      -0.25000000       0.20000000 </v>
   <v>      -0.08000000      -0.25000000       0.20000000 </v>
   <v>      -0.04000000      -0.25000000       0.20000000 </v>
   <v>       0.00000000      -0.18750000       0.20000000 </v>
   <v>       0.04000000      -0.18750000       0.20000000 </v>
   <v>       0.08000000      -0.18750000       0.20000000 </v>
   <v>       0.12000000      -0.18750000       0.20000000 </v>
   <v>       0.16000000      -0.18750000       0.20000000 </v>
   <v>       0.20000000      -0.18750000       0.20000000 </v>
   <v>       0.24000000      -0.18750000       0.20000000 </v>
   <v>       0.28000000      -0.18750000       0.20000000 </v>
   <v>       0.32000000      -0.18750000       0.20000000 </v>
   <v>       0.36000000      -0.18750000       0.20000000 </v>
   <v>       0.40000000      -0.18750000       0.20000000 </v>
   <v>       0.44000000      -0.18750000       0.20000000 </v>
   <v>       0.48000000      -0.18750000       0.20000000 </v>
   <v>      -0.48000000      -0.18750000       0.20000000 </v>
   <v>      -0.44000000      -0.18750000       0.20000000 </v>
   <v>      -0.36000000      -0.18750000       0.20000000 </v>
   <v>      -0.32000000      -0.18750000       0.20000000 </v>
   <v>      -0.28000000      -0.18750000       0.20000000 </v>
   <v>      -0.24000000      -0.18750000       0.20000000 </v>
   <v>      -0.16000000      -0.18750000       0.20000000 </v>
   <v>      -0.12000000      -0.18750000       0.20000000 </v>
   <v>      -0.08000000      -0.18750000       0.20000000 </v>
   <v>      -0.04000000      -0.18750000       0.20000000 </v>
   <v>       0.00000000      -0.12500000       0.20000000 </v>
   <v>       0.04000000      -0.12500000       0.20000000 </v>
   <v>       0.08000000      -0.12500000       0.20000000 </v>
   <v>       0.12000000      -0.12500000       0.20000000 </v>
   <v>       0.16000000      -0.12500000       0.20000000 </v>
   <v>       0.20000000      -0.12500000       0.20000000 </v>
   <v>       0.24000000      -0.12500000       0.20000000 </v>
   <v>       0.28000000      -0.12500000       0.20000000 </v>
   <v>       0.32000000      -0.12500000       0.20000000 </v>
   <v>       0.36000000      -0.12500000       0.20000000 </v>
   <v>       0.40000000      -0.12500000       0.20000000 </v>
   <v>       0.44000000      -0.12500000       0.20000000 </v>
   <v>       0.48000000      -0.12500000       0.20000000 </v>
   <v>      -0.48000000      -0.12500000       0.20000000 </v>
   <v>      -0.44000000      -0.12500000       0.20000000 </v>
   <v>      -0.36000000      -0.12500000       0.20000000 </v>
   <v>      -0.32000000      -0.12500000       0.20000000 </v>
   <v>      -0.28000000      -0.12500000       0.20000000 </v>
   <v>      -0.24000000      -0.12500000       0.20000000 </v>
   <v>      -0.16000000      -0.12500000       0.20000000 </v>
   <v>      -0.12000000      -0.12500000       0.20000000 </v>
   <v>      -0.08000000      -0.12500000       0.20000000 </v>
   <v>      -0.04000000      -0.12500000       0.20000000 </v>
   <v>       0.00000000      -0.06250000       0.20000000 </v>
   <v>       0.04000000      -0.06250000       0.20000000 </v>
   <v>       0.08000000      -0.06250000       0.20000000 </v>
   <v>       0.12000000      -0.06250000       0.20000000 </v>
   <v>       0.16000000      -0.06250000       0.20000000 </v>
   <v>       0.20000000      -0.06250000       0.20000000 </v>
   <v>       0.24000000      -0.06250000       0.20000000 </v>
   <v>       0.28000000      -0.06250000       0.20000000 </v>
   <v>       0.32000000      -0.06250000       0.20000000 </v>
   <v>       0.36000000      -0.06250000       0.20000000 </v>
   <v>       0.40000000      -0.06250000       0.20000000 </v>
   <v>       0.44000000      -0.06250000       0.20000000 </v>
   <v>       0.48000000      -0.06250000       0.20000000 </v>
   <v>      -0.48000000      -0.06250000       0.20000000 </v>
   <v>      -0.44000000      -0.06250000       0.20000000 </v>
   <v>      -0.36000000      -0.06250000       0.20000000 </v>
   <v>      -0.32000000      -0.06250000       0.20000000 </v>
   <v>      -0.28000000      -0.06250000       0.20000000 </v>
   <v>      -0.24000000      -0.06250000       0.20000000 </v>
   <v>      -0.16000000      -0.06250000       0.20000000 </v>
   <v>      -0.12000000      -0.06250000       0.20000000 </v>
   <v>      -0.08000000      -0.06250000       0.20000000 </v>
   <v>      -0.04000000      -0.06250000       0.20000000 </v>
   <v>       0.00000000       0.00000000       0.30000000 </v>
   <v>       0.04000000       0.00000000       0.30000000 </v>
   <v>       0.08000000       0.00000000       0.30000000 </v>
   <v>       0.12000000       0.00000000       0.30000000 </v>
   <v>       0.16000000       0.00000000       0.30000000 </v>
   <v>       0.20000000       0.00000000       0.30000000 </v>
   <v>       0.24000000       0.00000000       0.30000000 </v>
   <v>       0.28000000       0.00000000       0.30000000 </v>
   <v>       0.32000000       0.00000000       0.30000000 </v>
   <v>       0.36000000       0.00000000       0.30000000 </v>
   <v>       0.40000000       0.00000000       0.30000000 </v>
   <v>       0.44000000       0.00000000       0.30000000 </v>
   <v>       0.48000000       0.00000000       0.30000000 </v>
   <v>      -0.48000000       0.00000000       0.30000000 </v>
   <v>      -0.44000000       0.00000000       0.30000000 </v>
   <v>      -0.36000000       0.00000000       0.30000000 </v>
   <v>      -0.32000000       0.00000000       0.30000000 </v>
   <v>      -0.28000000       0.00000000       0.30000000 </v>
   <v>      -0.24000000       0.00000000       0.30000000 </v>
   <v>      -0.16000000       0.00000000       0.30000000 </v>
   <v>      -0.12000000       0.00000000       0.30000000 </v>
   <v>      -0.08000000       0.00000000       0.30000000 </v>
   <v>      -0.04000000       0.00000000       0.30000000 </v>
   <v>       0.00000000       0.06250000       0.30000000 </v>
   <v>       0.04000000       0.06250000       0.30000000 </v>
   <v>       0.08000000       0.06250000       0.30000000 </v>
   <v>       0.12000000       0.06250000       0.30000000 </v>
   <v>       0.16000000       0.06250000       0.30000000 </v>
   <v>       0.20000000       0.06250000       0.30000000 </v>
   <v>       0.24000000       0.06250000       0.30000000 </v>
   <v>       0.28000000       0.06250000       0.30000000 </v>
   <v>       0.32000000       0.06250000       0.30000000 </v>
   <v>       0.36000000       0.06250000       0.30000000 </v>
   <v>       0.40000000       0.06250000       0.30000000 </v>
   <v>       0.44000000       0.06250000       0.30000000 </v>
   <v>       0.48000000       0.06250000       0.30000000 </v>
   <v>      -0.48000000       0.06250000       0.30000000 </v>
   <v>      -0.44000000       0.06250000       0.30000000 </v>
   <v>      -0.36000000       0.06250000       0.30000000 </v>
   <v>      -0.32000000       0.06250000       0.30000000 </v>
   <v>      -0.28000000       0.06250000       0.30000000 </v>
   <v>      -0.24000000       0.06250000       0.30000000 </v>
   <v>      -0.16000000       0.06250000       0.30000000 </v>
   <v>      -0.12000000       0.06250000       0.30000000 </v>
   <v>      -0.08000000       0.06250000       0.30000000 </v>
   <v>      -0.04000000       0.06250000       0.30000000 </v>
   <v>       0.00000000       0.12500000       0.30000000 </v>
   <v>       0.04000000       0.12500000       0.30000000 </v>
   <v>       0.08000000       0.12500000       0.30000000 </v>
   <v>       0.12000000       0.12500000       0.30000000 </v>
   <v>       0.16000000       0.12500000       0.30000000 </v>
   <v>       0.20000000       0.12500000       0.30000000 </v>
   <v>       0.24000000       0.12500000       0.30000000 </v>
   <v>       0.28000000       0.12500000       0.30000000 </v>
   <v>       0.32000000       0.12500000       0.30000000 </v>
   <v>       0.36000000       0.12500000       0.30000000 </v>
   <v>       0.40000000       0.12500000       0.30000000 </v>
   <v>       0.44000000       0.12500000       0.30000000 </v>
   <v>       0.48000000       0.12500000       0.30000000 </v>
   <v>      -0.48000000       0.12500000       0.30000000 </v>
   <v>      -0.44000000       0.12500000       0.30000000 </v>
   <v>      -0.36000000       0.12500000       0.30000000 </v>
   <v>      -0.32000000       0.12500000       0.30000000 </v>
   <v>      -0.28000000       0.12500000       0.30000000 </v>
   <v>      -0.24000000       0.12500000       0.30000000 </v>
   <v>      -0.16000000       0.12500000       0.30000000 </v>
   <v>      -0.12000000       0.12500000       0.30000000 </v>
   <v>      -0.08000000       0.12500000       0.30000000 </v>
   <v>      -0.04000000       0.12500000       0.30000000 </v>
   <v>       0.00000000       0.18750000       0.30000000 </v>
   <v>       0.04000000       0.18750000       0.30000000 </v>
   <v>       0.08000000       0.18750000       0.30000000 </v>
   <v>       0.12000000       0.18750000       0.30000000 </v>
   <v>       0.16000000       0.18750000       0.30000000 </v>
   <v>       0.20000000       0.18750000       0.30000000 </v>
   <v>       0.24000000       0.18750000       0.30000000 </v>
   <v>       0.28000000       0.18750000       0.30000000 </v>
   <v>       0.32000000       0.18750000       0.30000000 </v>
   <v>       0.36000000       0.18750000       0.30000000 </v>
   <v>       0.40000000       0.18750000       0.30000000 </v>
   <v>       0.44000000       0.18750000       0.30000000 </v>
   <v>       0.48000000       0.18750000       0.30000000 </v>
   <v>      -0.48000000       0.18750000       0.30000000 </v>
   <v>      -0.44000000       0.18750000       0.30000000 </v>
   <v>      -0.36000000       0.18750000       0.30000000 </v>
   <v>      -0.32000000       0.18750000       0.30000000 </v>
   <v>      -0.28000000       0.18750000       0.30000000 </v>
   <v>      -0.24000000       0.18750000       0.30000000 </v>
   <v>      -0.16000000       0.18750000       0.30000000 </v>
   <v>      -0.12000000       0.18750000       0.30000000 </v>
   <v>      -0.08000000       0.18750000       0.30000000 </v>
   <v>      -0.04000000       0.18750000       0.30000000 </v>
   <v>       0.00000000       0.25000000       0.30000000 </v>
   <v>       0.04000000       0.25000000       0.30000000 </v>
   <v>       0.08000000       0.25000000       0.30000000 </v>
   <v>       0.12000000       0.25000000       0.30000000 </v>
   <v>       0.16000000       0.25000000       0.30000000 </v>
   <v>       0.20000000       0.25000000       0.30000000 </v>
   <v>       0.24000000       0.25000000       0.30000000 </v>
   <v>       0.28000000       0.25000000       0.30000000 </v>
   <v>       0.32000000       0.25000000       0.30000000 </v>
   <v>       0.36000000       0.25000000       0.30000000 </v>
   <v>       0.40000000       0.25000000       0.30000000 </v>
   <v>       0.44000000       0.25000000       0.30000000 </v>
   <v>       0.48000000       0.25000000       0.30000000 </v>
   <v>      -0.48000000       0.25000000       0.30000000 </v>
   <v>      -0.44000000       0.25000000       0.30000000 </v>
   <v>      -0.36000000       0.25000000       0.30000000 </v>
   <v>      -0.32000000       0.25000000       0.30000000 </v>
   <v>      -0.28000000       0.25000000       0.30000000 </v>
   <v>      -0.24000000       0.25000000       0.30000000 </v>
   <v>      -0.16000000       0.25000000       0.30000000 </v>
   <v>      -0.12000000       0.25000000       0.30000000 </v>
   <v>      -0.08000000       0.25000000       0.30000000 </v>
   <v>      -0.04000000       0.25000000       0.30000000 </v>
   <v>       0.00000000       0.31250000       0.30000000 </v>
   <v>       0.04000000       0.31250000       0.30000000 </v>
   <v>       0.08000000       0.31250000       0.30000000 </v>
   <v>       0.12000000       0.31250000       0.30000000 </v>
   <v>       0.16000000       0.31250000       0.30000000 </v>
   <v>       0.20000000       0.31250000       0.30000000 </v>
   <v>       0.24000000       0.31250000       0.30000000 </v>
   <v>       0.28000000       0.31250000       0.30000000 </v>
   <v>       0.32000000       0.31250000       0.30000000 </v>
   <v>       0.36000000       0.31250000       0.30000000 </v>
   <v>       0.40000000       0.31250000       0.30000000 </v>
   <v>       0.44000000       0.31250000       0.30000000 </v>
   <v>       0.48000000       0.31250000       0.30000000 </v>
   <v>      -0.48000000       0.31250000       0.30000000 </v>
   <v>      -0.44000000       0.31250000       0.30000000 </v>
   <v>      -0.36000000       0.31250000       0.30000000 </v>
   <v>      -0.32000000       0.31250000       0.30000000 </v>
   <v>      -0.28000000       0.31250000       0.30000000 </v>
   <v>      -0.24000000       0.31250000       0.30000000 </v>
   <v>      -0.16000000       0.31250000       0.30000000 </v>
   <v>      -0.12000000       0.31250000       0.30000000 </v>
   <v>      -0.08000000       0.31250000       0.30000000 </v>
   <v>      -0.04000000       0.31250000       0.30000000 </v>
   <v>       0.00000000       0.37500000       0.30000000 </v>
   <v>       0.04000000       0.37500000       0.30000000 </v>
   <v>       0.08000000       0.37500000       0.30000000 </v>
   <v>       0.12000000       0.37500000       0.30000000 </v>
   <v>       0.16000000       0.37500000       0.30000000 </v>
   <v>       0.20000000       0.37500000       0.30000000 </v>
   <v>       0.24000000       0.37500000       0.30000000 </v>
   <v>       0.28000000       0.37500000       0.30000000 </v>
   <v>       0.32000000       0.37500000       0.30000000 </v>
   <v>       0.36000000       0.37500000       0.30000000 </v>
   <v>       0.40000000       0.37500000       0.30000000 </v>
   <v>       0.44000000       0.37500000       0.30000000 </v>
   <v>       0.48000000       0.37500000       0.30000000 </v>
   <v>      -0.48000000       0.37500000       0.30000000 </v>
   <v>      -0.44000000       0.37500000       0.30000000 </v>
   <v>      -0.36000000       0.37500000       0.30000000 </v>
   <v>      -0.32000000       0.37500000       0.30000000 </v>
   <v>      -0.28000000       0.37500000       0.30000000 </v>
   <v>      -0.24000000       0.37500000       0.30000000 </v>
   <v>      -0.16000000       0.37500000       0.30000000 </v>
   <v>      -0.12000000       0.37500000       0.30000000 </v>
   <v>      -0.08000000       0.37500000       0.30000000 </v>
   <v>      -0.04000000       0.37500000       0.30000000 </v>
   <v>       0.00000000       0.43750000       0.30000000 </v>
   <v>       0.04000000       0.43750000       0.30000000 </v>
   <v>       0.08000000       0.43750000       0.30000000 </v>
   <v>       0.12000000       0.43750000       0.30000000 </v>
   <v>       0.16000000       0.43750000       0.30000000 </v>
   <v>       0.20000000       0.43750000       0.30000000 </v>
   <v>       0.24000000       0.43750000       0.30000000 </v>
   <v>       0.28000000       0.43750000       0.30000000 </v>
   <v>       0.32000000       0.43750000       0.30000000 </v>
   <v>       0.36000000       0.43750000       0.30000000 </v>
   <v>       0.40000000       0.43750000       0.30000000 </v>
   <v>       0.44000000       0.43750000       0.30000000 </v>
   <v>       0.48000000       0.43750000       0.30000000 </v>
   <v>      -0.48000000       0.43750000       0.30000000 </v>
   <v>      -0.44000000       0.43750000       0.30000000 </v>
   <v>      -0.36000000       0.43750000       0.30000000 </v>
   <v>      -0.32000000       0.43750000       0.30000000 </v>
   <v>      -0.28000000       0.43750000       0.30000000 </v>
   <v>      -0.24000000       0.43750000       0.30000000 </v>
   <v>      -0.16000000       0.43750000       0.30000000 </v>
   <v>      -0.12000000       0.43750000       0.30000000 </v>
   <v>      -0.08000000       0.43750000       0.30000000 </v>
   <v>      -0.04000000       0.43750000       0.30000000 </v>
   <v>       0.00000000       0.50000000       0.30000000 </v>
   <v>       0.04000000       0.50000000       0.30000000 </v>
   <v>       0.08000000       0.50000000       0.30000000 </v>
   <v>       0.12000000       0.50000000       0.30000000 </v>
   <v>       0.16000000       0.50000000       0.30000000 </v>
   <v>       0.20000000       0.50000000       0.30000000 </v>
   <v>       0.24000000       0.50000000       0.30000000 </v>
   <v>       0.28000000       0.50000000       0.30000000 </v>
   <v>       0.32000000       0.50000000       0.30000000 </v>
   <v>       0.36000000       0.50000000       0.30000000 </v>
   <v>       0.40000000       0.50000000       0.30000000 </v>
   <v>       0.44000000       0.50000000       0.30000000 </v>
   <v>       0.48000000       0.50000000       0.30000000 </v>
   <v>      -0.48000000       0.50000000       0.30000000 </v>
   <v>      -0.44000000       0.50000000       0.30000000 </v>
   <v>      -0.36000000       0.50000000       0.30000000 </v>
   <v>      -0.32000000       0.50000000       0.30000000 </v>
   <v>      -0.28000000       0.50000000       0.30000000 </v>
   <v>      -0.24000000       0.50000000       0.30000000 </v>
   <v>      -0.16000000       0.50000000       0.30000000 </v>
   <v>      -0.12000000       0.50000000       0.30000000 </v>
   <v>      -0.08000000       0.50000000       0.30000000 </v>
   <v>      -0.04000000       0.50000000       0.30000000 </v>
   <v>       0.00000000      -0.43750000       0.30000000 </v>
   <v>       0.04000000      -0.43750000       0.30000000 </v>
   <v>       0.08000000      -0.43750000       0.30000000 </v>
   <v>       0.12000000      -0.43750000       0.30000000 </v>
   <v>       0.16000000      -0.43750000       0.30000000 </v>
   <v>       0.20000000      -0.43750000       0.30000000 </v>
   <v>       0.24000000      -0.43750000       0.30000000 </v>
   <v>       0.28000000      -0.43750000       0.30000000 </v>
   <v>       0.32000000      -0.43750000       0.30000000 </v>
   <v>       0.36000000      -0.43750000       0.30000000 </v>
   <v>       0.44000000      -0.43750000       0.30000000 </v>
   <v>       0.48000000      -0.43750000       0.30000000 </v>
   <v>      -0.48000000      -0.43750000       0.30000000 </v>
   <v>      -0.44000000      -0.43750000       0.30000000 </v>
   <v>      -0.36000000      -0.43750000       0.30000000 </v>
   <v>      -0.32000000      -0.43750000       0.30000000 </v>
   <v>      -0.28000000      -0.43750000       0.30000000 </v>
   <v>      -0.24000000      -0.43750000       0.30000000 </v>
   <v>      -0.16000000      -0.43750000       0.30000000 </v>
   <v>      -0.12000000      -0.43750000       0.30000000 </v>
   <v>      -0.08000000      -0.43750000       0.30000000 </v>
   <v>      -0.04000000      -0.43750000       0.30000000 </v>
   <v>       0.00000000      -0.37500000       0.30000000 </v>
   <v>       0.04000000      -0.37500000       0.30000000 </v>
   <v>       0.08000000      -0.37500000       0.30000000 </v>
   <v>       0.12000000      -0.37500000       0.30000000 </v>
   <v>       0.16000000      -0.37500000       0.30000000 </v>
   <v>       0.20000000      -0.37500000       0.30000000 </v>
   <v>       0.24000000      -0.37500000       0.30000000 </v>
   <v>       0.28000000      -0.37500000       0.30000000 </v>
   <v>       0.32000000      -0.37500000       0.30000000 </v>
   <v>       0.36000000      -0.37500000       0.30000000 </v>
   <v>       0.44000000      -0.37500000       0.30000000 </v>
   <v>       0.48000000      -0.37500000       0.30000000 </v>
   <v>      -0.48000000      -0.37500000       0.30000000 </v>
   <v>      -0.44000000      -0.37500000       0.30000000 </v>
   <v>      -0.36000000      -0.37500000       0.30000000 </v>
   <v>      -0.32000000      -0.37500000       0.30000000 </v>
   <v>      -0.28000000      -0.37500000       0.30000000 </v>
   <v>      -0.24000000      -0.37500000       0.30000000 </v>
   <v>      -0.16000000      -0.37500000       0.30000000 </v>
   <v>      -0.12000000      -0.37500000       0.30000000 </v>
   <v>      -0.08000000      -0.37500000       0.30000000 </v>
   <v>      -0.04000000      -0.37500000       0.30000000 </v>
   <v>       0.00000000      -0.31250000       0.30000000 </v>
   <v>       0.04000000      -0.31250000       0.30000000 </v>
   <v>       0.08000000      -0.31250000       0.30000000 </v>
   <v>       0.12000000      -0.31250000       0.30000000 </v>
   <v>       0.16000000      -0.31250000       0.30000000 </v>
   <v>       0.20000000      -0.31250000       0.30000000 </v>
   <v>       0.24000000      -0.31250000       0.30000000 </v>
   <v>       0.28000000      -0.31250000       0.30000000 </v>
   <v>       0.32000000      -0.31250000       0.30000000 </v>
   <v>       0.36000000      -0.31250000       0.30000000 </v>
   <v>       0.44000000      -0.31250000       0.30000000 </v>
   <v>       0.48000000      -0.31250000       0.30000000 </v>
   <v>      -0.48000000      -0.31250000       0.30000000 </v>
   <v>      -0.44000000      -0.31250000       0.30000000 </v>
   <v>      -0.36000000      -0.31250000       0.30000000 </v>
   <v>      -0.32000000      -0.31250000       0.30000000 </v>
   <v>      -0.28000000      -0.31250000       0.30000000 </v>
   <v>      -0.24000000      -0.31250000       0.30000000 </v>
   <v>      -0.16000000      -0.31250000       0.30000000 </v>
   <v>      -0.12000000      -0.31250000       0.30000000 </v>
[...]
       <r>    5.6350    1.0000 </r>
       <r>    5.7494    1.0000 </r>
       <r>    5.8433    1.0000 </r>
       <r>    5.9730    1.0000 </r>
       <r>    5.9904    1.0000 </r>
       <r>    6.0847    1.0000 </r>
       <r>    6.1560    1.0000 </r>
       <r>    6.1936    1.0000 </r>
       <r>    6.2998    1.0000 </r>
       <r>    6.6889    1.0000 </r>
       <r>    6.9065    1.0000 </r>
       <r>    6.9860    1.0000 </r>
       <r>    8.7355   -0.0004 </r>
       <r>    9.2343    0.0000 </r>
       <r>   11.2466    0.0000 </r>
       <r>   12.1426    0.0000 </r>
       <r>   12.9482    0.0000 </r>
       <r>   14.1791    0.0000 </r>
       <r>   14.9945    0.0000 </r>
      </set>
      <set comment="kpoint 1845">
       <r>    1.5068    1.0000 </r>
       <r>    1.5732    1.0000 </r>
       <r>    1.8978    1.0000 </r>
       <r>    2.1509    1.0000 </r>
       <r>    2.2069    1.0000 </r>
       <r>    2.3328    1.0000 </r>
       <r>    2.6694    1.0000 </r>
       <r>    2.8269    1.0000 </r>
       <r>    3.0112    1.0000 </r>
       <r>    3.2080    1.0000 </r>
       <r>    3.3855    1.0000 </r>
       <r>    3.6452    1.0000 </r>
       <r>    3.7788    1.0000 </r>
       <r>    3.9685    1.0000 </r>
       <r>    4.6753    1.0000 </r>
       <r>    4.9680    1.0000 </r>
       <r>    5.0629    1.0000 </r>
       <r>    5.3963    1.0000 </r>
       <r>    5.4008    1.0000 </r>
       <r>    5.4936    1.0000 </r>
       <r>    5.6697    1.0000 </r>
       <r>    5.8055    1.0000 </r>
       <r>    5.8503    1.0000 </r>
       <r>    6.0115    1.0000 </r>
       <r>    6.0911    1.0000 </r>
       <r>    6.1245    1.0000 </r>
       <r>    6.1826    1.0000 </r>
       <r>    6.1968    1.0000 </r>
       <r>    6.2825    1.0000 </r>
       <r>    6.3891    1.0000 </r>
       <r>    7.1675    1.0011 </r>
       <r>    7.4379    1.0224 </r>
       <r>    7.8172    0.7765 </r>
       <r>    8.8605    0.0000 </r>
       <r>    9.2562    0.0000 </r>
       <r>   10.0345    0.0000 </r>
       <r>   11.4176    0.0000 </r>
       <r>   11.9246    0.0000 </r>
       <r>   13.8900    0.0000 </r>
       <r>   14.3671    0.0000 </r>
      </set>
      <set comment="kpoint 1846">
       <r>    1.4694    1.0000 </r>
       <r>    1.5407    1.0000 </r>
       <r>    1.8816    1.0000 </r>
       <r>    2.1343    1.0000 </r>
       <r>    2.1862    1.0000 </r>
       <r>    2.3364    1.0000 </r>
       <r>    2.6624    1.0000 </r>
       <r>    2.8116    1.0000 </r>
       <r>    3.0156    1.0000 </r>
       <r>    3.1969    1.0000 </r>
       <r>    3.3821    1.0000 </r>
       <r>    3.6451    1.0000 </r>
       <r>    3.8186    1.0000 </r>
       <r>    3.9916    1.0000 </r>
       <r>    4.7403    1.0000 </r>
       <r>    4.9868    1.0000 </r>
       <r>    5.1033    1.0000 </r>
       <r>    5.4221    1.0000 </r>
       <r>    5.4856    1.0000 </r>
       <r>    5.6082    1.0000 </r>
       <r>    5.7175    1.0000 </r>
       <r>    5.7999    1.0000 </r>
       <r>    5.8163    1.0000 </r>
       <r>    6.0305    1.0000 </r>
       <r>    6.1502    1.0000 </r>
       <r>    6.1907    1.0000 </r>
       <r>    6.2019    1.0000 </r>
       <r>    6.2458    1.0000 </r>
       <r>    6.3124    1.0000 </r>
       <r>    6.4127    1.0000 </r>
       <r>    7.2331    1.0027 </r>
       <r>    8.0066    0.2715 </r>
       <r>    8.4459   -0.0166 </r>
       <r>    8.6653   -0.0013 </r>
       <r>    8.9140    0.0000 </r>
       <r>    9.2839    0.0000 </r>
       <r>   11.2323    0.0000 </r>
       <r>   12.3297    0.0000 </r>
       <r>   13.0966    0.0000 </r>
       <r>   14.0605    0.0000 </r>
      </set>
     </set>
    </set>
   </array>
  </eigenvalues>
  <separator name="orbital magnetization" >
   <v name="MAGDIPOLOUT">      0.00000000      0.00000000      0.00000000</v>
  </separator>
  <dos>
   <i name="efermi">      7.92194366 </i>
   <total>
    <array>
     <dimension dim="1">gridpoints</dimension>
     <dimension dim="2">spin</dimension>
     <field>energy</field>
     <field>total</field>
     <field>integrated</field>
     <set>
      <set comment="spin 1">
       <r>    -3.8371     0.0000     0.0000 </r>
       <r>    -3.7599     0.0000     0.0000 </r>
       <r>    -3.6828     0.0000     0.0000 </r>
       <r>    -3.6056     0.0000     0.0000 </r>
       <r>    -3.5285     0.0000     0.0000 </r>
       <r>    -3.4514     0.0000     0.0000 </r>
       <r>    -3.3742     0.0000     0.0000 </r>
       <r>    -3.2971     0.0000     0.0000 </r>
       <r>    -3.2199     0.0000     0.0000 </r>
       <r>    -3.1428     0.0000     0.0000 </r>
       <r>    -3.0656     0.0000     0.0000 </r>
       <r>    -2.9885     0.0000     0.0000 </r>
       <r>    -2.9113     0.0000     0.0000 </r>
       <r>    -2.8342     0.0000     0.0000 </r>
       <r>    -2.7571     0.0000     0.0000 </r>
       <r>    -2.6799     0.0000     0.0000 </r>
       <r>    -2.6028     0.0000     0.0000 </r>
       <r>    -2.5256     0.0000     0.0000 </r>
       <r>    -2.4485     0.0000     0.0000 </r>
       <r>    -2.3713     0.0000     0.0000 </r>
       <r>    -2.2942     0.0000     0.0000 </r>
       <r>    -2.2171     0.0000     0.0000 </r>
       <r>    -2.1399     0.0000     0.0000 </r>
       <r>    -2.0628     0.0000     0.0000 </r>
       <r>    -1.9856     0.0000     0.0000 </r>
       <r>    -1.9085     0.0000     0.0000 </r>
       <r>    -1.8313     0.0000     0.0000 </r>
       <r>    -1.7542     0.0000     0.0000 </r>
       <r>    -1.6771     0.0000     0.0000 </r>
       <r>    -1.5999    -0.0001     0.0000 </r>
       <r>    -1.5228    -0.0002     0.0000 </r>
       <r>    -1.4456    -0.0006    -0.0001 </r>
       <r>    -1.3685    -0.0016    -0.0002 </r>
       <r>    -1.2913    -0.0033    -0.0004 </r>
       <r>    -1.2142    -0.0058    -0.0009 </r>
       <r>    -1.1370    -0.0081    -0.0015 </r>
       <r>    -1.0599    -0.0073    -0.0021 </r>
       <r>    -0.9828     0.0010    -0.0020 </r>
       <r>    -0.9056     0.0214    -0.0004 </r>
       <r>    -0.8285     0.0569     0.0040 </r>
       <r>    -0.7513     0.1063     0.0122 </r>
       <r>    -0.6742     0.1648     0.0249 </r>
       <r>    -0.5970     0.2266     0.0424 </r>
       <r>    -0.5199     0.2870     0.0646 </r>
       <r>    -0.4428     0.3435     0.0911 </r>
       <r>    -0.3656     0.3952     0.1216 </r>
       <r>    -0.2885     0.4408     0.1556 </r>
       <r>    -0.2113     0.4784     0.1925 </r>
       <r>    -0.1342     0.5066     0.2315 </r>
       <r>    -0.0570     0.5256     0.2721 </r>
       <r>     0.0201     0.5376     0.3136 </r>
       <r>     0.0973     0.5457     0.3557 </r>
       <r>     0.1744     0.5544     0.3984 </r>
       <r>     0.2515     0.5689     0.4423 </r>
       <r>     0.3287     0.5943     0.4882 </r>
       <r>     0.4058     0.6337     0.5370 </r>
       <r>     0.4830     0.6854     0.5899 </r>
       <r>     0.5601     0.7420     0.6472 </r>
       <r>     0.6373     0.7929     0.7083 </r>
       <r>     0.7144     0.8287     0.7723 </r>
       <r>     0.7915     0.8455     0.8375 </r>
       <r>     0.8687     0.8465     0.9028 </r>
       <r>     0.9458     0.8411     0.9677 </r>
       <r>     1.0230     0.8428     1.0327 </r>
       <r>     1.1001     0.8713     1.0999 </r>
       <r>     1.1773     0.9612     1.1741 </r>
       <r>     1.2544     1.1692     1.2642 </r>
       <r>     1.3315     1.5678     1.3852 </r>
       <r>     1.4087     2.2156     1.5561 </r>
       <r>     1.4858     3.1187     1.7967 </r>
       <r>     1.5630     4.2153     2.1219 </r>
       <r>     1.6401     5.3971     2.5382 </r>
       <r>     1.7173     6.5528     3.0437 </r>
       <r>     1.7944     7.6001     3.6300 </r>
       <r>     1.8716     8.5006     4.2858 </r>
       <r>     1.9487     9.2662     5.0006 </r>
       <r>     2.0258     9.9554     5.7686 </r>
       <r>     2.1030    10.6349     6.5890 </r>
       <r>     2.1801    11.3066     7.4613 </r>
       <r>     2.2573    11.8579     8.3760 </r>
       <r>     2.3344    12.1033     9.3097 </r>
       <r>     2.4116    11.9210    10.2294 </r>
       <r>     2.4887    11.3896    11.1080 </r>
       <r>     2.5658    10.7954    11.9408 </r>
       <r>     2.6430    10.4771    12.7490 </r>
       <r>     2.7201    10.6184    13.5682 </r>
       <r>     2.7973    11.1536    14.4286 </r>
       <r>     2.8744    11.8424    15.3422 </r>
       <r>     2.9516    12.4230    16.3005 </r>
       <r>     3.0287    12.7235    17.2821 </r>
       <r>     3.1059    12.6894    18.2610 </r>
       <r>     3.1830    12.3639    19.2148 </r>
       <r>     3.2601    11.8560    20.1294 </r>
       <r>     3.3373    11.3083    21.0017 </r>
       <r>     3.4144    10.8684    21.8402 </r>
       <r>     3.4916    10.6643    22.6628 </r>
       <r>     3.5687    10.7700    23.4937 </r>
       <r>     3.6459    11.1559    24.3543 </r>
       <r>     3.7230    11.6565    25.2535 </r>
       <r>     3.8001    12.0122    26.1802 </r>
       <r>     3.8773    11.9906    27.1052 </r>
       <r>     3.9544    11.5077    27.9929 </r>
       <r>     4.0316    10.6549    28.8149 </r>
       <r>     4.1087     9.6200    29.5570 </r>
       <r>     4.1859     8.5844    30.2192 </r>
       <r>     4.2630     7.6728    30.8111 </r>
       <r>     4.3401     6.9589    31.3480 </r>
       <r>     4.4173     6.4779    31.8477 </r>
       <r>     4.4944     6.2242    32.3279 </r>
       <r>     4.5716     6.1624    32.8033 </r>
       <r>     4.6487     6.2763    33.2874 </r>
       <r>     4.7259     6.6238    33.7984 </r>
       <r>     4.8030     7.3303    34.3639 </r>
       <r>     4.8802     8.4960    35.0193 </r>
       <r>     4.9573    10.0820    35.7971 </r>
       <r>     5.0344    11.8769    36.7133 </r>
       <r>     5.1116    13.5843    37.7612 </r>
       <r>     5.1887    14.9740    38.9164 </r>
       <r>     5.2659    15.9897    40.1499 </r>
       <r>     5.3430    16.7530    41.4423 </r>
       <r>     5.4202    17.4750    42.7904 </r>
       <r>     5.4973    18.3405    44.2052 </r>
       <r>     5.5744    19.4323    45.7043 </r>
       <r>     5.6516    20.7296    47.3034 </r>
       <r>     5.7287    22.1524    49.0124 </r>
       <r>     5.8059    23.5859    50.8319 </r>
       <r>     5.8830    24.8469    52.7486 </r>
       <r>     5.9602    25.6251    54.7254 </r>
       <r>     6.0373    25.4900    56.6918 </r>
       <r>     6.1145    24.0276    58.5454 </r>
       <r>     6.1916    21.0749    60.1712 </r>
       <r>     6.2687    16.9103    61.4757 </r>
       <r>     6.3459    12.2395    62.4199 </r>
       <r>     6.4230     7.9349    63.0321 </r>
       <r>     6.5002     4.6703    63.3923 </r>
       <r>     6.5773     2.6798    63.5991 </r>
       <r>     6.6545     1.7723    63.7358 </r>
       <r>     6.7316     1.5434    63.8549 </r>
       <r>     6.8087     1.6118    63.9792 </r>
       <r>     6.8859     1.7438    64.1137 </r>
       <r>     6.9630     1.8487    64.2563 </r>
       <r>     7.0402     1.9120    64.4038 </r>
       <r>     7.1173     1.9374    64.5533 </r>
       <r>     7.1945     1.9275    64.7020 </r>
       <r>     7.2716     1.8874    64.8476 </r>
       <r>     7.3487     1.8302    64.9888 </r>
       <r>     7.4259     1.7740    65.1256 </r>
       <r>     7.5030     1.7357    65.2595 </r>
       <r>     7.5802     1.7251    65.3926 </r>
       <r>     7.6573     1.7408    65.5269 </r>
       <r>     7.7345     1.7700    65.6634 </r>
       <r>     7.8116     1.7943    65.8019 </r>
       <r>     7.8888     1.7989    65.9406 </r>
       <r>     7.9659     1.7806    66.0780 </r>
       <r>     8.0430     1.7493    66.2129 </r>
       <r>     8.1202     1.7215    66.3458 </r>
       <r>     8.1973     1.7099    66.4777 </r>
       <r>     8.2745     1.7163    66.6101 </r>
       <r>     8.3516     1.7313    66.7436 </r>
       <r>     8.4288     1.7404    66.8779 </r>
       <r>     8.5059     1.7313    67.0114 </r>
       <r>     8.5830     1.6995    67.1425 </r>
       <r>     8.6602     1.6492    67.2698 </r>
       <r>     8.7373     1.5932    67.3927 </r>
       <r>     8.8145     1.5481    67.5121 </r>
       <r>     8.8916     1.5281    67.6300 </r>
       <r>     8.9688     1.5375    67.7486 </r>
       <r>     9.0459     1.5682    67.8696 </r>
       <r>     9.1230     1.6048    67.9934 </r>
       <r>     9.2002     1.6329    68.1193 </r>
       <r>     9.2773     1.6441    68.2462 </r>
       <r>     9.3545     1.6356    68.3723 </r>
       <r>     9.4316     1.6083    68.4964 </r>
       <r>     9.5088     1.5672    68.6173 </r>
       <r>     9.5859     1.5207    68.7346 </r>
       <r>     9.6631     1.4789    68.8487 </r>
       <r>     9.7402     1.4493    68.9605 </r>
       <r>     9.8173     1.4341    69.0711 </r>
       <r>     9.8945     1.4306    69.1815 </r>
       <r>     9.9716     1.4333    69.2921 </r>
       <r>    10.0488     1.4352    69.4028 </r>
       <r>    10.1259     1.4297    69.5131 </r>
       <r>    10.2031     1.4125    69.6220 </r>
       <r>    10.2802     1.3837    69.7288 </r>
       <r>    10.3573     1.3474    69.8327 </r>
       <r>    10.4345     1.3088    69.9337 </r>
       <r>    10.5116     1.2726    70.0319 </r>
       <r>    10.5888     1.2418    70.1277 </r>
       <r>    10.6659     1.2177    70.2216 </r>
       <r>    10.7431     1.1992    70.3141 </r>
       <r>    10.8202     1.1838    70.4054 </r>
       <r>    10.8974     1.1706    70.4957 </r>
       <r>    10.9745     1.1626    70.5854 </r>
       <r>    11.0516     1.1675    70.6755 </r>
       <r>    11.1288     1.1945    70.7676 </r>
       <r>    11.2059     1.2517    70.8642 </r>
       <r>    11.2831     1.3413    70.9677 </r>
       <r>    11.3602     1.4570    71.0801 </r>
       <r>    11.4374     1.5843    71.2023 </r>
       <r>    11.5145     1.7065    71.3339 </r>
       <r>    11.5916     1.8115    71.4737 </r>
       <r>    11.6688     1.8954    71.6199 </r>
       <r>    11.7459     1.9589    71.7710 </r>
       <r>    11.8231     2.0031    71.9255 </r>
       <r>    11.9002     2.0274    72.0819 </r>
       <r>    11.9774     2.0304    72.2386 </r>
       <r>    12.0545     2.0115    72.3937 </r>
       <r>    12.1316     1.9722    72.5459 </r>
       <r>    12.2088     1.9185    72.6939 </r>
       <r>    12.2859     1.8623    72.8376 </r>
       <r>    12.3631     1.8186    72.9779 </r>
       <r>    12.4402     1.7981    73.1166 </r>
       <r>    12.5174     1.8008    73.2555 </r>
       <r>    12.5945     1.8142    73.3954 </r>
       <r>    12.6717     1.8207    73.5359 </r>
       <r>    12.7488     1.8070    73.6753 </r>
       <r>    12.8259     1.7722    73.8120 </r>
       <r>    12.9031     1.7273    73.9453 </r>
       <r>    12.9802     1.6890    74.0755 </r>
       <r>    13.0574     1.6703    74.2044 </r>
       <r>    13.1345     1.6732    74.3335 </r>
       <r>    13.2117     1.6892    74.4638 </r>
       <r>    13.2888     1.7074    74.5955 </r>
       <r>    13.3659     1.7245    74.7285 </r>
       <r>    13.4431     1.7480    74.8634 </r>
       <r>    13.5202     1.7916    75.0016 </r>
       <r>    13.5974     1.8648    75.1455 </r>
       <r>    13.6745     1.9647    75.2970 </r>
       <r>    13.7517     2.0750    75.4571 </r>
       <r>    13.8288     2.1733    75.6248 </r>
       <r>    13.9060     2.2426    75.7978 </r>
       <r>    13.9831     2.2782    75.9735 </r>
       <r>    14.0602     2.2871    76.1499 </r>
       <r>    14.1374     2.2809    76.3259 </r>
       <r>    14.2145     2.2687    76.5009 </r>
       <r>    14.2917     2.2525    76.6747 </r>
       <r>    14.3688     2.2283    76.8466 </r>
       <r>    14.4460     2.1886    77.0154 </r>
       <r>    14.5231     2.1282    77.1796 </r>
       <r>    14.6002     2.0494    77.3377 </r>
       <r>    14.6774     1.9635    77.4892 </r>
       <r>    14.7545     1.8845    77.6345 </r>
       <r>    14.8317     1.8216    77.7751 </r>
       <r>    14.9088     1.7742    77.9119 </r>
       <r>    14.9860     1.7352    78.0458 </r>
       <r>    15.0631     1.6959    78.1766 </r>
       <r>    15.1402     1.6499    78.3039 </r>
       <r>    15.2174     1.5938    78.4268 </r>
       <r>    15.2945     1.5274    78.5447 </r>
       <r>    15.3717     1.4551    78.6569 </r>
       <r>    15.4488     1.3861    78.7639 </r>
       <r>    15.5260     1.3326    78.8667 </r>
       <r>    15.6031     1.3065    78.9674 </r>
       <r>    15.6803     1.3172    79.0691 </r>
       <r>    15.7574     1.3690    79.1747 </r>
       <r>    15.8345     1.4579    79.2871 </r>
       <r>    15.9117     1.5647    79.4078 </r>
       <r>    15.9888     1.6504    79.5352 </r>
       <r>    16.0660     1.6597    79.6632 </r>
       <r>    16.1431     1.5417    79.7821 </r>
       <r>    16.2203     1.2818    79.8810 </r>
       <r>    16.2974     0.9212    79.9521 </r>
       <r>    16.3745     0.5440    79.9940 </r>
       <r>    16.4517     0.2354    80.0122 </r>
       <r>    16.5288     0.0405    80.0153 </r>
       <r>    16.6060    -0.0460    80.0118 </r>
       <r>    16.6831    -0.0614    80.0070 </r>
       <r>    16.7603    -0.0460    80.0035 </r>
       <r>    16.8374    -0.0262    80.0015 </r>
       <r>    16.9146    -0.0121    80.0005 </r>
       <r>    16.9917    -0.0047    80.0002 </r>
       <r>    17.0688    -0.0016    80.0000 </r>
       <r>    17.1460    -0.0005    80.0000 </r>
       <r>    17.2231    -0.0001    80.0000 </r>
       <r>    17.3003     0.0000    80.0000 </r>
       <r>    17.3774     0.0000    80.0000 </r>
       <r>    17.4546     0.0000    80.0000 </r>
       <r>    17.5317     0.0000    80.0000 </r>
       <r>    17.6088     0.0000    80.0000 </r>
       <r>    17.6860     0.0000    80.0000 </r>
       <r>    17.7631     0.0000    80.0000 </r>
       <r>    17.8403     0.0000    80.0000 </r>
       <r>    17.9174     0.0000    80.0000 </r>
       <r>    17.9946     0.0000    80.0000 </r>
       <r>    18.0717     0.0000    80.0000 </r>
       <r>    18.1488     0.0000    80.0000 </r>
       <r>    18.2260     0.0000    80.0000 </r>
       <r>    18.3031     0.0000    80.0000 </r>
       <r>    18.3803     0.0000    80.0000 </r>
       <r>    18.4574     0.0000    80.0000 </r>
       <r>    18.5346     0.0000    80.0000 </r>
       <r>    18.6117     0.0000    80.0000 </r>
       <r>    18.6889     0.0000    80.0000 </r>
       <r>    18.7660     0.0000    80.0000 </r>
       <r>    18.8431     0.0000    80.0000 </r>
       <r>    18.9203     0.0000    80.0000 </r>
       <r>    18.9974     0.0000    80.0000 </r>
       <r>    19.0746     0.0000    80.0000 </r>
       <r>    19.1517     0.0000    80.0000 </r>
       <r>    19.2289     0.0000    80.0000 </r>
       <r>    19.3060     0.0000    80.0000 </r>
      </set>
     </set>
    </array>
   </total>
  </dos>
 </calculation>
 <structure name="finalpos" >
  <crystal>
   <varray name="basis" >
    <v>      -2.00004299       2.00004299       0.00000000 </v>
    <v>      -2.00794601      -2.00794601       3.71283090 </v>
    <v>       6.02602021       4.02597723       1.86219262 </v>
   </varray>
   <i name="volume">     89.60138816 </i>
   <varray name="rec_basis" >
    <v>      -0.20855653       0.29143272       0.04482049 </v>
    <v>      -0.04156705      -0.04156705       0.22437629 </v>
    <v>       0.08287619       0.08287619       0.08964098 </v>
   </varray>
  </crystal>
  <varray name="positions" >
   <v>       0.49522921       0.50130376       0.99045841 </v>
   <v>       0.66666667       0.33333333       0.33333333 </v>
   <v>       0.83810413       0.16536291       0.67620825 </v>
   <v>       0.00255928       0.02008987       0.00511857 </v>
   <v>       0.33077405       0.64657680       0.66154810 </v>
   <v>       0.16666667       0.83333333       0.33333333 </v>
  </varray>
 </structure>
</modeling>
