<?xml version="1.0" encoding="ISO-8859-1"?>
<modeling>
 <generator>
  <i name="program" type="string">vasp </i>
  <i name="version" type="string">5.3.5  </i>
  <i name="subversion" type="string">31Mar14 (build Jun 20 2014 13:15:13) complex                          parallel </i>
  <i name="platform" type="string">LinuxIFC </i>
  <i name="date" type="string">2025 11 21 </i>
  <i name="time" type="string">14:23:09 </i>
 </generator>
 <incar>
  <i type="string" name="PREC">accurate</i>
  <i type="int" name="IALGO">    68</i>
  <i type="logical" name="ADDGRID"> T  </i>
  <i type="int" name="NELM">   100</i>
  <i type="int" name="NELMIN">     4</i>
  <i type="int" name="IBRION">     2</i>
  <i name="EDIFF">      0.00000100</i>
  <i name="EDIFFG">     -0.02000000</i>
  <i type="int" name="NSW">    30</i>
  <i type="int" name="ISIF">     3</i>
  <i name="ENCUT">    500.00000000</i>
  <i type="logical" name="LREAL"> F  </i>
  <i type="int" name="ISMEAR">     1</i>
  <i name="SIGMA">      0.30000000</i>
  <i type="logical" name="LWAVE"> F  </i>
  <i type="logical" name="LCHARG"> F  </i>
  <i type="int" name="NELM">   100</i>
 </incar>
 <kpoints>
  <generation param="Auto">
   <i name="subdivisionlength">     70.00000000 </i>
   <v type="int" name="divisions">      24       15       10 </v>
   <v name="usershift">      0.00000000       0.00000000       0.00000000 </v>
   <v name="genvec1">      0.04166667       0.00000000       0.00000000 </v>
   <v name="genvec2">      0.00000000       0.06666667       0.00000000 </v>
   <v name="genvec3">      0.00000000       0.00000000       0.10000000 </v>
   <v name="shift">      0.00000000       0.00000000       0.00000000 </v>
  </generation>
  <varray name="kpointlist" >
   <v>       0.00000000       0.00000000       0.00000000 </v>
   <v>       0.04166667       0.00000000       0.00000000 </v>
   <v>       0.08333333       0.00000000       0.00000000 </v>
   <v>       0.12500000       0.00000000       0.00000000 </v>
   <v>       0.16666667       0.00000000       0.00000000 </v>
   <v>       0.20833333       0.00000000       0.00000000 </v>
   <v>       0.25000000       0.00000000       0.00000000 </v>
   <v>       0.29166667       0.00000000       0.00000000 </v>
   <v>       0.33333333       0.00000000       0.00000000 </v>
   <v>       0.37500000       0.00000000       0.00000000 </v>
   <v>       0.41666667       0.00000000       0.00000000 </v>
   <v>       0.45833333       0.00000000       0.00000000 </v>
   <v>       0.50000000       0.00000000       0.00000000 </v>
   <v>       0.00000000       0.06666667       0.00000000 </v>
   <v>       0.04166667       0.06666667       0.00000000 </v>
   <v>       0.08333333       0.06666667       0.00000000 </v>
   <v>       0.12500000       0.06666667       0.00000000 </v>
   <v>       0.16666667       0.06666667       0.00000000 </v>
   <v>       0.20833333       0.06666667       0.00000000 </v>
   <v>       0.25000000       0.06666667       0.00000000 </v>
   <v>       0.29166667       0.06666667       0.00000000 </v>
   <v>       0.33333333       0.06666667       0.00000000 </v>
   <v>       0.37500000       0.06666667       0.00000000 </v>
   <v>       0.41666667       0.06666667       0.00000000 </v>
   <v>       0.45833333       0.06666667       0.00000000 </v>
   <v>       0.50000000       0.06666667       0.00000000 </v>
   <v>      -0.45833333       0.06666667       0.00000000 </v>
   <v>      -0.41666667       0.06666667       0.00000000 </v>
   <v>      -0.37500000       0.06666667       0.00000000 </v>
   <v>      -0.33333333       0.06666667       0.00000000 </v>
   <v>      -0.29166667       0.06666667       0.00000000 </v>
   <v>      -0.25000000       0.06666667       0.00000000 </v>
   <v>      -0.20833333       0.06666667       0.00000000 </v>
   <v>      -0.16666667       0.06666667       0.00000000 </v>
   <v>      -0.12500000       0.06666667       0.00000000 </v>
   <v>      -0.08333333       0.06666667       0.00000000 </v>
   <v>      -0.04166667       0.06666667       0.00000000 </v>
   <v>       0.00000000       0.13333333       0.00000000 </v>
   <v>       0.04166667       0.13333333       0.00000000 </v>
   <v>       0.08333333       0.13333333       0.00000000 </v>
   <v>       0.12500000       0.13333333       0.00000000 </v>
   <v>       0.16666667       0.13333333       0.00000000 </v>
   <v>       0.20833333       0.13333333       0.00000000 </v>
   <v>       0.25000000       0.13333333       0.00000000 </v>
   <v>       0.29166667       0.13333333       0.00000000 </v>
   <v>       0.33333333       0.13333333       0.00000000 </v>
   <v>       0.37500000       0.13333333       0.00000000 </v>
   <v>       0.41666667       0.13333333       0.00000000 </v>
   <v>       0.45833333       0.13333333       0.00000000 </v>
   <v>       0.50000000       0.13333333       0.00000000 </v>
   <v>      -0.45833333       0.13333333       0.00000000 </v>
   <v>      -0.41666667       0.13333333       0.00000000 </v>
   <v>      -0.37500000       0.13333333       0.00000000 </v>
   <v>      -0.33333333       0.13333333       0.00000000 </v>
   <v>      -0.29166667       0.13333333       0.00000000 </v>
   <v>      -0.25000000       0.13333333       0.00000000 </v>
   <v>      -0.20833333       0.13333333       0.00000000 </v>
   <v>      -0.16666667       0.13333333       0.00000000 </v>
   <v>      -0.12500000       0.13333333       0.00000000 </v>
   <v>      -0.08333333       0.13333333       0.00000000 </v>
   <v>      -0.04166667       0.13333333       0.00000000 </v>
   <v>       0.00000000       0.20000000       0.00000000 </v>
   <v>       0.04166667       0.20000000       0.00000000 </v>
   <v>       0.08333333       0.20000000       0.00000000 </v>
   <v>       0.12500000       0.20000000       0.00000000 </v>
   <v>       0.16666667       0.20000000       0.00000000 </v>
   <v>       0.20833333       0.20000000       0.00000000 </v>
   <v>       0.25000000       0.20000000       0.00000000 </v>
   <v>       0.29166667       0.20000000       0.00000000 </v>
   <v>       0.33333333       0.20000000       0.00000000 </v>
   <v>       0.37500000       0.20000000       0.00000000 </v>
   <v>       0.41666667       0.20000000       0.00000000 </v>
   <v>       0.45833333       0.20000000       0.00000000 </v>
   <v>       0.50000000       0.20000000       0.00000000 </v>
   <v>      -0.45833333       0.20000000       0.00000000 </v>
   <v>      -0.41666667       0.20000000       0.00000000 </v>
   <v>      -0.37500000       0.20000000       0.00000000 </v>
   <v>      -0.33333333       0.20000000       0.00000000 </v>
   <v>      -0.29166667       0.20000000       0.00000000 </v>
   <v>      -0.25000000       0.20000000       0.00000000 </v>
   <v>      -0.20833333       0.20000000       0.00000000 </v>
   <v>      -0.16666667       0.20000000       0.00000000 </v>
   <v>      -0.12500000       0.20000000       0.00000000 </v>
   <v>      -0.08333333       0.20000000       0.00000000 </v>
   <v>      -0.04166667       0.20000000       0.00000000 </v>
   <v>       0.00000000       0.26666667       0.00000000 </v>
   <v>       0.04166667       0.26666667       0.00000000 </v>
   <v>       0.08333333       0.26666667       0.00000000 </v>
   <v>       0.12500000       0.26666667       0.00000000 </v>
   <v>       0.16666667       0.26666667       0.00000000 </v>
   <v>       0.20833333       0.26666667       0.00000000 </v>
   <v>       0.25000000       0.26666667       0.00000000 </v>
   <v>       0.29166667       0.26666667       0.00000000 </v>
   <v>       0.33333333       0.26666667       0.00000000 </v>
   <v>       0.37500000       0.26666667       0.00000000 </v>
   <v>       0.41666667       0.26666667       0.00000000 </v>
   <v>       0.45833333       0.26666667       0.00000000 </v>
   <v>       0.50000000       0.26666667       0.00000000 </v>
   <v>      -0.45833333       0.26666667       0.00000000 </v>
   <v>      -0.41666667       0.26666667       0.00000000 </v>
   <v>      -0.37500000       0.26666667       0.00000000 </v>
   <v>      -0.33333333       0.26666667       0.00000000 </v>
   <v>      -0.29166667       0.26666667       0.00000000 </v>
   <v>      -0.25000000       0.26666667       0.00000000 </v>
   <v>      -0.20833333       0.26666667       0.00000000 </v>
   <v>      -0.16666667       0.26666667       0.00000000 </v>
   <v>      -0.12500000       0.26666667       0.00000000 </v>
   <v>      -0.08333333       0.26666667       0.00000000 </v>
   <v>      -0.04166667       0.26666667       0.00000000 </v>
   <v>       0.00000000       0.33333333       0.00000000 </v>
   <v>       0.04166667       0.33333333       0.00000000 </v>
   <v>       0.08333333       0.33333333       0.00000000 </v>
   <v>       0.12500000       0.33333333       0.00000000 </v>
   <v>       0.16666667       0.33333333       0.00000000 </v>
   <v>       0.20833333       0.33333333       0.00000000 </v>
   <v>       0.25000000       0.33333333       0.00000000 </v>
   <v>       0.29166667       0.33333333       0.00000000 </v>
   <v>       0.33333333       0.33333333       0.00000000 </v>
   <v>       0.37500000       0.33333333       0.00000000 </v>
   <v>       0.41666667       0.33333333       0.00000000 </v>
   <v>       0.45833333       0.33333333       0.00000000 </v>
   <v>       0.50000000       0.33333333       0.00000000 </v>
   <v>      -0.45833333       0.33333333       0.00000000 </v>
   <v>      -0.41666667       0.33333333       0.00000000 </v>
   <v>      -0.37500000       0.33333333       0.00000000 </v>
   <v>      -0.33333333       0.33333333       0.00000000 </v>
   <v>      -0.29166667       0.33333333       0.00000000 </v>
   <v>      -0.25000000       0.33333333       0.00000000 </v>
   <v>      -0.20833333       0.33333333       0.00000000 </v>
   <v>      -0.16666667       0.33333333       0.00000000 </v>
   <v>      -0.12500000       0.33333333       0.00000000 </v>
   <v>      -0.08333333       0.33333333       0.00000000 </v>
   <v>      -0.04166667       0.33333333       0.00000000 </v>
   <v>       0.00000000       0.40000000       0.00000000 </v>
   <v>       0.04166667       0.40000000       0.00000000 </v>
   <v>       0.08333333       0.40000000       0.00000000 </v>
   <v>       0.12500000       0.40000000       0.00000000 </v>
   <v>       0.16666667       0.40000000       0.00000000 </v>
   <v>       0.20833333       0.40000000       0.00000000 </v>
   <v>       0.25000000       0.40000000       0.00000000 </v>
   <v>       0.29166667       0.40000000       0.00000000 </v>
   <v>       0.33333333       0.40000000       0.00000000 </v>
   <v>       0.37500000       0.40000000       0.00000000 </v>
   <v>       0.41666667       0.40000000       0.00000000 </v>
   <v>       0.45833333       0.40000000       0.00000000 </v>
   <v>       0.50000000       0.40000000       0.00000000 </v>
   <v>      -0.45833333       0.40000000       0.00000000 </v>
   <v>      -0.41666667       0.40000000       0.00000000 </v>
   <v>      -0.37500000       0.40000000       0.00000000 </v>
   <v>      -0.33333333       0.40000000       0.00000000 </v>
   <v>      -0.29166667       0.40000000       0.00000000 </v>
   <v>      -0.25000000       0.40000000       0.00000000 </v>
   <v>      -0.20833333       0.40000000       0.00000000 </v>
   <v>      -0.16666667       0.40000000       0.00000000 </v>
   <v>      -0.12500000       0.40000000       0.00000000 </v>
   <v>      -0.08333333       0.40000000       0.00000000 </v>
   <v>      -0.04166667       0.40000000       0.00000000 </v>
   <v>       0.00000000       0.46666667       0.00000000 </v>
   <v>       0.04166667       0.46666667       0.00000000 </v>
   <v>       0.08333333       0.46666667       0.00000000 </v>
   <v>       0.12500000       0.46666667       0.00000000 </v>
   <v>       0.16666667       0.46666667       0.00000000 </v>
   <v>       0.20833333       0.46666667       0.00000000 </v>
   <v>       0.25000000       0.46666667       0.00000000 </v>
   <v>       0.29166667       0.46666667       0.00000000 </v>
   <v>       0.33333333       0.46666667       0.00000000 </v>
   <v>       0.37500000       0.46666667       0.00000000 </v>
   <v>       0.41666667       0.46666667       0.00000000 </v>
   <v>       0.45833333       0.46666667       0.00000000 </v>
   <v>       0.50000000       0.46666667       0.00000000 </v>
   <v>      -0.45833333       0.46666667       0.00000000 </v>
   <v>      -0.41666667       0.46666667       0.00000000 </v>
   <v>      -0.37500000       0.46666667       0.00000000 </v>
   <v>      -0.33333333       0.46666667       0.00000000 </v>
   <v>      -0.29166667       0.46666667       0.00000000 </v>
   <v>      -0.25000000       0.46666667       0.00000000 </v>
   <v>      -0.20833333       0.46666667       0.00000000 </v>
   <v>      -0.16666667       0.46666667       0.00000000 </v>
   <v>      -0.12500000       0.46666667       0.00000000 </v>
   <v>      -0.08333333       0.46666667       0.00000000 </v>
   <v>      -0.04166667       0.46666667       0.00000000 </v>
   <v>       0.00000000       0.00000000       0.10000000 </v>
   <v>       0.04166667       0.00000000       0.10000000 </v>
   <v>       0.08333333       0.00000000       0.10000000 </v>
   <v>       0.12500000       0.00000000       0.10000000 </v>
   <v>       0.16666667       0.00000000       0.10000000 </v>
   <v>       0.20833333       0.00000000       0.10000000 </v>
   <v>       0.25000000       0.00000000       0.10000000 </v>
   <v>       0.29166667       0.00000000       0.10000000 </v>
   <v>       0.33333333       0.00000000       0.10000000 </v>
   <v>       0.37500000       0.00000000       0.10000000 </v>
   <v>       0.41666667       0.00000000       0.10000000 </v>
   <v>       0.45833333       0.00000000       0.10000000 </v>
   <v>       0.50000000       0.00000000       0.10000000 </v>
   <v>      -0.45833333       0.00000000       0.10000000 </v>
   <v>      -0.41666667       0.00000000       0.10000000 </v>
   <v>      -0.37500000       0.00000000       0.10000000 </v>
   <v>      -0.33333333       0.00000000       0.10000000 </v>
   <v>      -0.29166667       0.00000000       0.10000000 </v>
   <v>      -0.25000000       0.00000000       0.10000000 </v>
   <v>      -0.20833333       0.00000000       0.10000000 </v>
   <v>      -0.16666667       0.00000000       0.10000000 </v>
   <v>      -0.12500000       0.00000000       0.10000000 </v>
   <v>      -0.08333333       0.00000000       0.10000000 </v>
   <v>      -0.04166667       0.00000000       0.10000000 </v>
   <v>       0.00000000       0.06666667       0.10000000 </v>
   <v>       0.04166667       0.06666667       0.10000000 </v>
   <v>       0.08333333       0.06666667       0.10000000 </v>
   <v>       0.12500000       0.06666667       0.10000000 </v>
   <v>       0.16666667       0.06666667       0.10000000 </v>
   <v>       0.20833333       0.06666667       0.10000000 </v>
   <v>       0.25000000       0.06666667       0.10000000 </v>
   <v>       0.29166667       0.06666667       0.10000000 </v>
   <v>       0.33333333       0.06666667       0.10000000 </v>
   <v>       0.37500000       0.06666667       0.10000000 </v>
   <v>       0.41666667       0.06666667       0.10000000 </v>
   <v>       0.45833333       0.06666667       0.10000000 </v>
   <v>       0.50000000       0.06666667       0.10000000 </v>
   <v>      -0.45833333       0.06666667       0.10000000 </v>
   <v>      -0.41666667       0.06666667       0.10000000 </v>
   <v>      -0.37500000       0.06666667       0.10000000 </v>
   <v>      -0.33333333       0.06666667       0.10000000 </v>
   <v>      -0.29166667       0.06666667       0.10000000 </v>
   <v>      -0.25000000       0.06666667       0.10000000 </v>
   <v>      -0.20833333       0.06666667       0.10000000 </v>
   <v>      -0.16666667       0.06666667       0.10000000 </v>
   <v>      -0.12500000       0.06666667       0.10000000 </v>
   <v>      -0.08333333       0.06666667       0.10000000 </v>
   <v>      -0.04166667       0.06666667       0.10000000 </v>
   <v>       0.00000000       0.13333333       0.10000000 </v>
   <v>       0.04166667       0.13333333       0.10000000 </v>
   <v>       0.08333333       0.13333333       0.10000000 </v>
   <v>       0.12500000       0.13333333       0.10000000 </v>
   <v>       0.16666667       0.13333333       0.10000000 </v>
   <v>       0.20833333       0.13333333       0.10000000 </v>
   <v>       0.25000000       0.13333333       0.10000000 </v>
   <v>       0.29166667       0.13333333       0.10000000 </v>
   <v>       0.33333333       0.13333333       0.10000000 </v>
   <v>       0.37500000       0.13333333       0.10000000 </v>
   <v>       0.41666667       0.13333333       0.10000000 </v>
   <v>       0.45833333       0.13333333       0.10000000 </v>
   <v>       0.50000000       0.13333333       0.10000000 </v>
   <v>      -0.45833333       0.13333333       0.10000000 </v>
   <v>      -0.41666667       0.13333333       0.10000000 </v>
   <v>      -0.37500000       0.13333333       0.10000000 </v>
   <v>      -0.33333333       0.13333333       0.10000000 </v>
   <v>      -0.29166667       0.13333333       0.10000000 </v>
   <v>      -0.25000000       0.13333333       0.10000000 </v>
   <v>      -0.20833333       0.13333333       0.10000000 </v>
   <v>      -0.16666667       0.13333333       0.10000000 </v>
   <v>      -0.12500000       0.13333333       0.10000000 </v>
   <v>      -0.08333333       0.13333333       0.10000000 </v>
   <v>      -0.04166667       0.13333333       0.10000000 </v>
   <v>       0.00000000       0.20000000       0.10000000 </v>
   <v>       0.04166667       0.20000000       0.10000000 </v>
   <v>       0.08333333       0.20000000       0.10000000 </v>
   <v>       0.12500000       0.20000000       0.10000000 </v>
   <v>       0.16666667       0.20000000       0.10000000 </v>
   <v>       0.20833333       0.20000000       0.10000000 </v>
   <v>       0.25000000       0.20000000       0.10000000 </v>
   <v>       0.29166667       0.20000000       0.10000000 </v>
   <v>       0.33333333       0.20000000       0.10000000 </v>
   <v>       0.37500000       0.20000000       0.10000000 </v>
   <v>       0.41666667       0.20000000       0.10000000 </v>
   <v>       0.45833333       0.20000000       0.10000000 </v>
   <v>       0.50000000       0.20000000       0.10000000 </v>
   <v>      -0.45833333       0.20000000       0.10000000 </v>
   <v>      -0.41666667       0.20000000       0.10000000 </v>
   <v>      -0.37500000       0.20000000       0.10000000 </v>
   <v>      -0.33333333       0.20000000       0.10000000 </v>
   <v>      -0.29166667       0.20000000       0.10000000 </v>
   <v>      -0.25000000       0.20000000       0.10000000 </v>
   <v>      -0.20833333       0.20000000       0.10000000 </v>
   <v>      -0.16666667       0.20000000       0.10000000 </v>
   <v>      -0.12500000       0.20000000       0.10000000 </v>
   <v>      -0.08333333       0.20000000       0.10000000 </v>
   <v>      -0.04166667       0.20000000       0.10000000 </v>
   <v>       0.00000000       0.26666667       0.10000000 </v>
   <v>       0.04166667       0.26666667       0.10000000 </v>
   <v>       0.08333333       0.26666667       0.10000000 </v>
   <v>       0.12500000       0.26666667       0.10000000 </v>
   <v>       0.16666667       0.26666667       0.10000000 </v>
   <v>       0.20833333       0.26666667       0.10000000 </v>
   <v>       0.25000000       0.26666667       0.10000000 </v>
   <v>       0.29166667       0.26666667       0.10000000 </v>
   <v>       0.33333333       0.26666667       0.10000000 </v>
   <v>       0.37500000       0.26666667       0.10000000 </v>
   <v>       0.41666667       0.26666667       0.10000000 </v>
   <v>       0.45833333       0.26666667       0.10000000 </v>
   <v>       0.50000000       0.26666667       0.10000000 </v>
   <v>      -0.45833333       0.26666667       0.10000000 </v>
   <v>      -0.41666667       0.26666667       0.10000000 </v>
   <v>      -0.37500000       0.26666667       0.10000000 </v>
   <v>      -0.33333333       0.26666667       0.10000000 </v>
   <v>      -0.29166667       0.26666667       0.10000000 </v>
   <v>      -0.25000000       0.26666667       0.10000000 </v>
   <v>      -0.20833333       0.26666667       0.10000000 </v>
   <v>      -0.16666667       0.26666667       0.10000000 </v>
   <v>      -0.12500000       0.26666667       0.10000000 </v>
   <v>      -0.08333333       0.26666667       0.10000000 </v>
   <v>      -0.04166667       0.26666667       0.10000000 </v>
   <v>       0.00000000       0.33333333       0.10000000 </v>
   <v>       0.04166667       0.33333333       0.10000000 </v>
   <v>       0.08333333       0.33333333       0.10000000 </v>
   <v>       0.12500000       0.33333333       0.10000000 </v>
   <v>       0.16666667       0.33333333       0.10000000 </v>
   <v>       0.20833333       0.33333333       0.10000000 </v>
   <v>       0.25000000       0.33333333       0.10000000 </v>
   <v>       0.29166667       0.33333333       0.10000000 </v>
   <v>       0.33333333       0.33333333       0.10000000 </v>
   <v>       0.37500000       0.33333333       0.10000000 </v>
   <v>       0.41666667       0.33333333       0.10000000 </v>
   <v>       0.45833333       0.33333333       0.10000000 </v>
   <v>       0.50000000       0.33333333       0.10000000 </v>
   <v>      -0.45833333       0.33333333       0.10000000 </v>
   <v>      -0.41666667       0.33333333       0.10000000 </v>
   <v>      -0.37500000       0.33333333       0.10000000 </v>
   <v>      -0.33333333       0.33333333       0.10000000 </v>
   <v>      -0.29166667       0.33333333       0.10000000 </v>
   <v>      -0.25000000       0.33333333       0.10000000 </v>
   <v>      -0.20833333       0.33333333       0.10000000 </v>
   <v>      -0.16666667       0.33333333       0.10000000 </v>
   <v>      -0.12500000       0.33333333       0.10000000 </v>
   <v>      -0.08333333       0.33333333       0.10000000 </v>
   <v>      -0.04166667       0.33333333       0.10000000 </v>
   <v>       0.00000000       0.40000000       0.10000000 </v>
   <v>       0.04166667       0.40000000       0.10000000 </v>
   <v>       0.08333333       0.40000000       0.10000000 </v>
   <v>       0.12500000       0.40000000       0.10000000 </v>
   <v>       0.16666667       0.40000000       0.10000000 </v>
   <v>       0.20833333       0.40000000       0.10000000 </v>
   <v>       0.25000000       0.40000000       0.10000000 </v>
   <v>       0.29166667       0.40000000       0.10000000 </v>
   <v>       0.33333333       0.40000000       0.10000000 </v>
   <v>       0.37500000       0.40000000       0.10000000 </v>
   <v>       0.41666667       0.40000000       0.10000000 </v>
   <v>       0.45833333       0.40000000       0.10000000 </v>
   <v>       0.50000000       0.40000000       0.10000000 </v>
   <v>      -0.45833333       0.40000000       0.10000000 </v>
   <v>      -0.41666667       0.40000000       0.10000000 </v>
   <v>      -0.37500000       0.40000000       0.10000000 </v>
   <v>      -0.33333333       0.40000000       0.10000000 </v>
   <v>      -0.29166667       0.40000000       0.10000000 </v>
   <v>      -0.25000000       0.40000000       0.10000000 </v>
   <v>      -0.20833333       0.40000000       0.10000000 </v>
   <v>      -0.16666667       0.40000000       0.10000000 </v>
   <v>      -0.12500000       0.40000000       0.10000000 </v>
   <v>      -0.08333333       0.40000000       0.10000000 </v>
   <v>      -0.04166667       0.40000000       0.10000000 </v>
   <v>       0.00000000       0.46666667       0.10000000 </v>
   <v>       0.04166667       0.46666667       0.10000000 </v>
   <v>       0.08333333       0.46666667       0.10000000 </v>
   <v>       0.12500000       0.46666667       0.10000000 </v>
   <v>       0.16666667       0.46666667       0.10000000 </v>
   <v>       0.20833333       0.46666667       0.10000000 </v>
   <v>       0.25000000       0.46666667       0.10000000 </v>
   <v>       0.29166667       0.46666667       0.10000000 </v>
   <v>       0.33333333       0.46666667       0.10000000 </v>
   <v>       0.37500000       0.46666667       0.10000000 </v>
   <v>       0.41666667       0.46666667       0.10000000 </v>
   <v>       0.45833333       0.46666667       0.10000000 </v>
   <v>       0.50000000       0.46666667       0.10000000 </v>
   <v>      -0.45833333       0.46666667       0.10000000 </v>
   <v>      -0.41666667       0.46666667       0.10000000 </v>
   <v>      -0.37500000       0.46666667       0.10000000 </v>
   <v>      -0.33333333       0.46666667       0.10000000 </v>
   <v>      -0.29166667       0.46666667       0.10000000 </v>
   <v>      -0.25000000       0.46666667       0.10000000 </v>
   <v>      -0.20833333       0.46666667       0.10000000 </v>
   <v>      -0.16666667       0.46666667       0.10000000 </v>
   <v>      -0.12500000       0.46666667       0.10000000 </v>
   <v>      -0.08333333       0.46666667       0.10000000 </v>
   <v>      -0.04166667       0.46666667       0.10000000 </v>
   <v>       0.00000000      -0.46666667       0.10000000 </v>
   <v>       0.04166667      -0.46666667       0.10000000 </v>
   <v>       0.08333333      -0.46666667       0.10000000 </v>
   <v>       0.12500000      -0.46666667       0.10000000 </v>
   <v>       0.16666667      -0.46666667       0.10000000 </v>
   <v>       0.20833333      -0.46666667       0.10000000 </v>
   <v>       0.25000000      -0.46666667       0.10000000 </v>
   <v>       0.29166667      -0.46666667       0.10000000 </v>
   <v>       0.33333333      -0.46666667       0.10000000 </v>
   <v>       0.37500000      -0.46666667       0.10000000 </v>
   <v>       0.41666667      -0.46666667       0.10000000 </v>
   <v>       0.45833333      -0.46666667       0.10000000 </v>
   <v>       0.50000000      -0.46666667       0.10000000 </v>
   <v>      -0.45833333      -0.46666667       0.10000000 </v>
   <v>      -0.41666667      -0.46666667       0.10000000 </v>
   <v>      -0.37500000      -0.46666667       0.10000000 </v>
   <v>      -0.33333333      -0.46666667       0.10000000 </v>
   <v>      -0.29166667      -0.46666667       0.10000000 </v>
   <v>      -0.25000000      -0.46666667       0.10000000 </v>
   <v>      -0.20833333      -0.46666667       0.10000000 </v>
   <v>      -0.16666667      -0.46666667       0.10000000 </v>
   <v>      -0.12500000      -0.46666667       0.10000000 </v>
   <v>      -0.08333333      -0.46666667       0.10000000 </v>
   <v>      -0.04166667      -0.46666667       0.10000000 </v>
   <v>       0.00000000      -0.40000000       0.10000000 </v>
   <v>       0.04166667      -0.40000000       0.10000000 </v>
   <v>       0.08333333      -0.40000000       0.10000000 </v>
   <v>       0.12500000      -0.40000000       0.10000000 </v>
   <v>       0.16666667      -0.40000000       0.10000000 </v>
   <v>       0.20833333      -0.40000000       0.10000000 </v>
   <v>       0.25000000      -0.40000000       0.10000000 </v>
   <v>       0.29166667      -0.40000000       0.10000000 </v>
   <v>       0.33333333      -0.40000000       0.10000000 </v>
   <v>       0.37500000      -0.40000000       0.10000000 </v>
   <v>       0.41666667      -0.40000000       0.10000000 </v>
   <v>       0.45833333      -0.40000000       0.10000000 </v>
   <v>       0.50000000      -0.40000000       0.10000000 </v>
   <v>      -0.45833333      -0.40000000       0.10000000 </v>
   <v>      -0.41666667      -0.40000000       0.10000000 </v>
   <v>      -0.37500000      -0.40000000       0.10000000 </v>
   <v>      -0.33333333      -0.40000000       0.10000000 </v>
   <v>      -0.29166667      -0.40000000       0.10000000 </v>
   <v>      -0.25000000      -0.40000000       0.10000000 </v>
   <v>      -0.20833333      -0.40000000       0.10000000 </v>
   <v>      -0.16666667      -0.40000000       0.10000000 </v>
   <v>      -0.12500000      -0.40000000       0.10000000 </v>
   <v>      -0.08333333      -0.40000000       0.10000000 </v>
   <v>      -0.04166667      -0.40000000       0.10000000 </v>
   <v>       0.00000000      -0.33333333       0.10000000 </v>
   <v>       0.04166667      -0.33333333       0.10000000 </v>
   <v>       0.08333333      -0.33333333       0.10000000 </v>
   <v>       0.12500000      -0.33333333       0.10000000 </v>
   <v>       0.16666667      -0.33333333       0.10000000 </v>
   <v>       0.20833333      -0.33333333       0.10000000 </v>
   <v>       0.25000000      -0.33333333       0.10000000 </v>
   <v>       0.29166667      -0.33333333       0.10000000 </v>
   <v>       0.33333333      -0.33333333       0.10000000 </v>
   <v>       0.37500000      -0.33333333       0.10000000 </v>
   <v>       0.41666667      -0.33333333       0.10000000 </v>
   <v>       0.45833333      -0.33333333       0.10000000 </v>
   <v>       0.50000000      -0.33333333       0.10000000 </v>
   <v>      -0.45833333      -0.33333333       0.10000000 </v>
   <v>      -0.41666667      -0.33333333       0.10000000 </v>
   <v>      -0.37500000      -0.33333333       0.10000000 </v>
   <v>      -0.33333333      -0.33333333       0.10000000 </v>
   <v>      -0.29166667      -0.33333333       0.10000000 </v>
   <v>      -0.25000000      -0.33333333       0.10000000 </v>
   <v>      -0.20833333      -0.33333333       0.10000000 </v>
   <v>      -0.16666667      -0.33333333       0.10000000 </v>
   <v>      -0.12500000      -0.33333333       0.10000000 </v>
   <v>      -0.08333333      -0.33333333       0.10000000 </v>
   <v>      -0.04166667      -0.33333333       0.10000000 </v>
   <v>       0.00000000      -0.26666667       0.10000000 </v>
   <v>       0.04166667      -0.26666667       0.10000000 </v>
   <v>       0.08333333      -0.26666667       0.10000000 </v>
   <v>       0.12500000      -0.26666667       0.10000000 </v>
   <v>       0.16666667      -0.26666667       0.10000000 </v>
   <v>       0.20833333      -0.26666667       0.10000000 </v>
   <v>       0.25000000      -0.26666667       0.10000000 </v>
   <v>       0.29166667      -0.26666667       0.10000000 </v>
   <v>       0.33333333      -0.26666667       0.10000000 </v>
   <v>       0.37500000      -0.26666667       0.10000000 </v>
   <v>       0.41666667      -0.26666667       0.10000000 </v>
   <v>       0.45833333      -0.26666667       0.10000000 </v>
   <v>       0.50000000      -0.26666667       0.10000000 </v>
   <v>      -0.45833333      -0.26666667       0.10000000 </v>
   <v>      -0.41666667      -0.26666667       0.10000000 </v>
   <v>      -0.37500000      -0.26666667       0.10000000 </v>
   <v>      -0.33333333      -0.26666667       0.10000000 </v>
   <v>      -0.29166667      -0.26666667       0.10000000 </v>
   <v>      -0.25000000      -0.26666667       0.10000000 </v>
   <v>      -0.20833333      -0.26666667       0.10000000 </v>
   <v>      -0.16666667      -0.26666667       0.10000000 </v>
   <v>      -0.12500000      -0.26666667       0.10000000 </v>
   <v>      -0.08333333      -0.26666667       0.10000000 </v>
   <v>      -0.04166667      -0.26666667       0.10000000 </v>
   <v>       0.00000000      -0.20000000       0.10000000 </v>
   <v>       0.04166667      -0.20000000       0.10000000 </v>
   <v>       0.08333333      -0.20000000       0.10000000 </v>
   <v>       0.12500000      -0.20000000       0.10000000 </v>
   <v>       0.16666667      -0.20000000       0.10000000 </v>
   <v>       0.20833333      -0.20000000       0.10000000 </v>
   <v>       0.25000000      -0.20000000       0.10000000 </v>
   <v>       0.29166667      -0.20000000       0.10000000 </v>
   <v>       0.33333333      -0.20000000       0.10000000 </v>
   <v>       0.37500000      -0.20000000       0.10000000 </v>
   <v>       0.41666667      -0.20000000       0.10000000 </v>
   <v>       0.45833333      -0.20000000       0.10000000 </v>
   <v>       0.50000000      -0.20000000       0.10000000 </v>
   <v>      -0.45833333      -0.20000000       0.10000000 </v>
   <v>      -0.41666667      -0.20000000       0.10000000 </v>
   <v>      -0.37500000      -0.20000000       0.10000000 </v>
   <v>      -0.33333333      -0.20000000       0.10000000 </v>
   <v>      -0.29166667      -0.20000000       0.10000000 </v>
   <v>      -0.25000000      -0.20000000       0.10000000 </v>
   <v>      -0.20833333      -0.20000000       0.10000000 </v>
   <v>      -0.16666667      -0.20000000       0.10000000 </v>
   <v>      -0.12500000      -0.20000000       0.10000000 </v>
   <v>      -0.08333333      -0.20000000       0.10000000 </v>
   <v>      -0.04166667      -0.20000000       0.10000000 </v>
   <v>       0.00000000      -0.13333333       0.10000000 </v>
   <v>       0.04166667      -0.13333333       0.10000000 </v>
   <v>       0.08333333      -0.13333333       0.10000000 </v>
   <v>       0.12500000      -0.13333333       0.10000000 </v>
   <v>       0.16666667      -0.13333333       0.10000000 </v>
   <v>       0.20833333      -0.13333333       0.10000000 </v>
   <v>       0.25000000      -0.13333333       0.10000000 </v>
   <v>       0.29166667      -0.13333333       0.10000000 </v>
   <v>       0.33333333      -0.13333333       0.10000000 </v>
   <v>       0.37500000      -0.13333333       0.10000000 </v>
   <v>       0.41666667      -0.13333333       0.10000000 </v>
   <v>       0.45833333      -0.13333333       0.10000000 </v>
   <v>       0.50000000      -0.13333333       0.10000000 </v>
   <v>      -0.45833333      -0.13333333       0.10000000 </v>
   <v>      -0.41666667      -0.13333333       0.10000000 </v>
   <v>      -0.37500000      -0.13333333       0.10000000 </v>
   <v>      -0.33333333      -0.13333333       0.10000000 </v>
   <v>      -0.29166667      -0.13333333       0.10000000 </v>
   <v>      -0.25000000      -0.13333333       0.10000000 </v>
   <v>      -0.20833333      -0.13333333       0.10000000 </v>
   <v>      -0.16666667      -0.13333333       0.10000000 </v>
   <v>      -0.12500000      -0.13333333       0.10000000 </v>
   <v>      -0.08333333      -0.13333333       0.10000000 </v>
   <v>      -0.04166667      -0.13333333       0.10000000 </v>
   <v>       0.00000000      -0.06666667       0.10000000 </v>
   <v>       0.04166667      -0.06666667       0.10000000 </v>
   <v>       0.08333333      -0.06666667       0.10000000 </v>
   <v>       0.12500000      -0.06666667       0.10000000 </v>
   <v>       0.16666667      -0.06666667       0.10000000 </v>
   <v>       0.20833333      -0.06666667       0.10000000 </v>
   <v>       0.25000000      -0.06666667       0.10000000 </v>
   <v>       0.29166667      -0.06666667       0.10000000 </v>
   <v>       0.33333333      -0.06666667       0.10000000 </v>
   <v>       0.37500000      -0.06666667       0.10000000 </v>
   <v>       0.41666667      -0.06666667       0.10000000 </v>
   <v>       0.45833333      -0.06666667       0.10000000 </v>
   <v>       0.50000000      -0.06666667       0.10000000 </v>
   <v>      -0.45833333      -0.06666667       0.10000000 </v>
   <v>      -0.41666667      -0.06666667       0.10000000 </v>
   <v>      -0.37500000      -0.06666667       0.10000000 </v>
   <v>      -0.33333333      -0.06666667       0.10000000 </v>
   <v>      -0.29166667      -0.06666667       0.10000000 </v>
   <v>      -0.25000000      -0.06666667       0.10000000 </v>
   <v>      -0.20833333      -0.06666667       0.10000000 </v>
   <v>      -0.16666667      -0.06666667       0.10000000 </v>
   <v>      -0.12500000      -0.06666667       0.10000000 </v>
   <v>      -0.08333333      -0.06666667       0.10000000 </v>
   <v>      -0.04166667      -0.06666667       0.10000000 </v>
   <v>       0.00000000       0.00000000       0.20000000 </v>
   <v>       0.04166667       0.00000000       0.20000000 </v>
   <v>       0.08333333       0.00000000       0.20000000 </v>
   <v>       0.12500000       0.00000000       0.20000000 </v>
   <v>       0.16666667       0.00000000       0.20000000 </v>
   <v>       0.20833333       0.00000000       0.20000000 </v>
   <v>       0.25000000       0.00000000       0.20000000 </v>
   <v>       0.29166667       0.00000000       0.20000000 </v>
   <v>       0.33333333       0.00000000       0.20000000 </v>
   <v>       0.37500000       0.00000000       0.20000000 </v>
   <v>       0.41666667       0.00000000       0.20000000 </v>
   <v>       0.45833333       0.00000000       0.20000000 </v>
   <v>       0.50000000       0.00000000       0.20000000 </v>
   <v>      -0.45833333       0.00000000       0.20000000 </v>
   <v>      -0.41666667       0.00000000       0.20000000 </v>
   <v>      -0.37500000       0.00000000       0.20000000 </v>
   <v>      -0.33333333       0.00000000       0.20000000 </v>
   <v>      -0.29166667       0.00000000       0.20000000 </v>
   <v>      -0.25000000       0.00000000       0.20000000 </v>
   <v>      -0.20833333       0.00000000       0.20000000 </v>
   <v>      -0.16666667       0.00000000       0.20000000 </v>
   <v>      -0.12500000       0.00000000       0.20000000 </v>
   <v>      -0.08333333       0.00000000       0.20000000 </v>
   <v>      -0.04166667       0.00000000       0.20000000 </v>
   <v>       0.00000000       0.06666667       0.20000000 </v>
   <v>       0.04166667       0.06666667       0.20000000 </v>
   <v>       0.08333333       0.06666667       0.20000000 </v>
   <v>       0.12500000       0.06666667       0.20000000 </v>
   <v>       0.16666667       0.06666667       0.20000000 </v>
   <v>       0.20833333       0.06666667       0.20000000 </v>
   <v>       0.25000000       0.06666667       0.20000000 </v>
   <v>       0.29166667       0.06666667       0.20000000 </v>
   <v>       0.33333333       0.06666667       0.20000000 </v>
   <v>       0.37500000       0.06666667       0.20000000 </v>
   <v>       0.41666667       0.06666667       0.20000000 </v>
   <v>       0.45833333       0.06666667       0.20000000 </v>
   <v>       0.50000000       0.06666667       0.20000000 </v>
   <v>      -0.45833333       0.06666667       0.20000000 </v>
   <v>      -0.41666667       0.06666667       0.20000000 </v>
   <v>      -0.37500000       0.06666667       0.20000000 </v>
   <v>      -0.33333333       0.06666667       0.20000000 </v>
   <v>      -0.29166667       0.06666667       0.20000000 </v>
   <v>      -0.25000000       0.06666667       0.20000000 </v>
   <v>      -0.20833333       0.06666667       0.20000000 </v>
   <v>      -0.16666667       0.06666667       0.20000000 </v>
   <v>      -0.12500000       0.06666667       0.20000000 </v>
   <v>      -0.08333333       0.06666667       0.20000000 </v>
   <v>      -0.04166667       0.06666667       0.20000000 </v>
   <v>       0.00000000       0.13333333       0.20000000 </v>
   <v>       0.04166667       0.13333333       0.20000000 </v>
   <v>       0.08333333       0.13333333       0.20000000 </v>
   <v>       0.12500000       0.13333333       0.20000000 </v>
   <v>       0.16666667       0.13333333       0.20000000 </v>
   <v>       0.20833333       0.13333333       0.20000000 </v>
   <v>       0.25000000       0.13333333       0.20000000 </v>
   <v>       0.29166667       0.13333333       0.20000000 </v>
   <v>       0.33333333       0.13333333       0.20000000 </v>
   <v>       0.37500000       0.13333333       0.20000000 </v>
   <v>       0.41666667       0.13333333       0.20000000 </v>
   <v>       0.45833333       0.13333333       0.20000000 </v>
   <v>       0.50000000       0.13333333       0.20000000 </v>
   <v>      -0.45833333       0.13333333       0.20000000 </v>
   <v>      -0.41666667       0.13333333       0.20000000 </v>
   <v>      -0.37500000       0.13333333       0.20000000 </v>
   <v>      -0.33333333       0.13333333       0.20000000 </v>
   <v>      -0.29166667       0.13333333       0.20000000 </v>
   <v>      -0.25000000       0.13333333       0.20000000 </v>
   <v>      -0.20833333       0.13333333       0.20000000 </v>
   <v>      -0.16666667       0.13333333       0.20000000 </v>
   <v>      -0.12500000       0.13333333       0.20000000 </v>
   <v>      -0.08333333       0.13333333       0.20000000 </v>
   <v>      -0.04166667       0.13333333       0.20000000 </v>
   <v>       0.00000000       0.20000000       0.20000000 </v>
   <v>       0.04166667       0.20000000       0.20000000 </v>
   <v>       0.08333333       0.20000000       0.20000000 </v>
   <v>       0.12500000       0.20000000       0.20000000 </v>
   <v>       0.16666667       0.20000000       0.20000000 </v>
   <v>       0.20833333       0.20000000       0.20000000 </v>
   <v>       0.25000000       0.20000000       0.20000000 </v>
   <v>       0.29166667       0.20000000       0.20000000 </v>
   <v>       0.33333333       0.20000000       0.20000000 </v>
   <v>       0.37500000       0.20000000       0.20000000 </v>
   <v>       0.41666667       0.20000000       0.20000000 </v>
   <v>       0.45833333       0.20000000       0.20000000 </v>
   <v>       0.50000000       0.20000000       0.20000000 </v>
   <v>      -0.45833333       0.20000000       0.20000000 </v>
   <v>      -0.41666667       0.20000000       0.20000000 </v>
   <v>      -0.37500000       0.20000000       0.20000000 </v>
   <v>      -0.33333333       0.20000000       0.20000000 </v>
   <v>      -0.29166667       0.20000000       0.20000000 </v>
   <v>      -0.25000000       0.20000000       0.20000000 </v>
   <v>      -0.20833333       0.20000000       0.20000000 </v>
   <v>      -0.16666667       0.20000000       0.20000000 </v>
   <v>      -0.12500000       0.20000000       0.20000000 </v>
   <v>      -0.08333333       0.20000000       0.20000000 </v>
   <v>      -0.04166667       0.20000000       0.20000000 </v>
   <v>       0.00000000       0.26666667       0.20000000 </v>
   <v>       0.04166667       0.26666667       0.20000000 </v>
   <v>       0.08333333       0.26666667       0.20000000 </v>
   <v>       0.12500000       0.26666667       0.20000000 </v>
   <v>       0.16666667       0.26666667       0.20000000 </v>
   <v>       0.20833333       0.26666667       0.20000000 </v>
   <v>       0.25000000       0.26666667       0.20000000 </v>
   <v>       0.29166667       0.26666667       0.20000000 </v>
   <v>       0.33333333       0.26666667       0.20000000 </v>
   <v>       0.37500000       0.26666667       0.20000000 </v>
   <v>       0.41666667       0.26666667       0.20000000 </v>
   <v>       0.45833333       0.26666667       0.20000000 </v>
   <v>       0.50000000       0.26666667       0.20000000 </v>
   <v>      -0.45833333       0.26666667       0.20000000 </v>
   <v>      -0.41666667       0.26666667       0.20000000 </v>
   <v>      -0.37500000       0.26666667       0.20000000 </v>
   <v>      -0.33333333       0.26666667       0.20000000 </v>
   <v>      -0.29166667       0.26666667       0.20000000 </v>
   <v>      -0.25000000       0.26666667       0.20000000 </v>
   <v>      -0.20833333       0.26666667       0.20000000 </v>
   <v>      -0.16666667       0.26666667       0.20000000 </v>
   <v>      -0.12500000       0.26666667       0.20000000 </v>
   <v>      -0.08333333       0.26666667       0.20000000 </v>
   <v>      -0.04166667       0.26666667       0.20000000 </v>
   <v>       0.00000000       0.33333333       0.20000000 </v>
   <v>       0.04166667       0.33333333       0.20000000 </v>
   <v>       0.08333333       0.33333333       0.20000000 </v>
   <v>       0.12500000       0.33333333       0.20000000 </v>
   <v>       0.16666667       0.33333333       0.20000000 </v>
   <v>       0.20833333       0.33333333       0.20000000 </v>
   <v>       0.25000000       0.33333333       0.20000000 </v>
   <v>       0.29166667       0.33333333       0.20000000 </v>
   <v>       0.33333333       0.33333333       0.20000000 </v>
   <v>       0.37500000       0.33333333       0.20000000 </v>
   <v>       0.41666667       0.33333333       0.20000000 </v>
   <v>       0.45833333       0.33333333       0.20000000 </v>
   <v>       0.50000000       0.33333333       0.20000000 </v>
   <v>      -0.45833333       0.33333333       0.20000000 </v>
   <v>      -0.41666667       0.33333333       0.20000000 </v>
   <v>      -0.37500000       0.33333333       0.20000000 </v>
   <v>      -0.33333333       0.33333333       0.20000000 </v>
   <v>      -0.29166667       0.33333333       0.20000000 </v>
   <v>      -0.25000000       0.33333333       0.20000000 </v>
   <v>      -0.20833333       0.33333333       0.20000000 </v>
   <v>      -0.16666667       0.33333333       0.20000000 </v>
   <v>      -0.12500000       0.33333333       0.20000000 </v>
   <v>      -0.08333333       0.33333333       0.20000000 </v>
   <v>      -0.04166667       0.33333333       0.20000000 </v>
   <v>       0.00000000       0.40000000       0.20000000 </v>
   <v>       0.04166667       0.40000000       0.20000000 </v>
   <v>       0.08333333       0.40000000       0.20000000 </v>
   <v>       0.12500000       0.40000000       0.20000000 </v>
   <v>       0.16666667       0.40000000       0.20000000 </v>
   <v>       0.20833333       0.40000000       0.20000000 </v>
   <v>       0.25000000       0.40000000       0.20000000 </v>
   <v>       0.29166667       0.40000000       0.20000000 </v>
   <v>       0.33333333       0.40000000       0.20000000 </v>
   <v>       0.37500000       0.40000000       0.20000000 </v>
   <v>       0.41666667       0.40000000       0.20000000 </v>
   <v>       0.45833333       0.40000000       0.20000000 </v>
   <v>       0.50000000       0.40000000       0.20000000 </v>
   <v>      -0.45833333       0.40000000       0.20000000 </v>
   <v>      -0.41666667       0.40000000       0.20000000 </v>
   <v>      -0.37500000       0.40000000       0.20000000 </v>
   <v>      -0.33333333       0.40000000       0.20000000 </v>
   <v>      -0.29166667       0.40000000       0.20000000 </v>
   <v>      -0.25000000       0.40000000       0.20000000 </v>
   <v>      -0.20833333       0.40000000       0.20000000 </v>
   <v>      -0.16666667       0.40000000       0.20000000 </v>
   <v>      -0.12500000       0.40000000       0.20000000 </v>
   <v>      -0.08333333       0.40000000       0.20000000 </v>
   <v>      -0.04166667       0.40000000       0.20000000 </v>
   <v>       0.00000000       0.46666667       0.20000000 </v>
   <v>       0.04166667       0.46666667       0.20000000 </v>
   <v>       0.08333333       0.46666667       0.20000000 </v>
   <v>       0.12500000       0.46666667       0.20000000 </v>
   <v>       0.16666667       0.46666667       0.20000000 </v>
   <v>       0.20833333       0.46666667       0.20000000 </v>
   <v>       0.25000000       0.46666667       0.20000000 </v>
   <v>       0.29166667       0.46666667       0.20000000 </v>
   <v>       0.33333333       0.46666667       0.20000000 </v>
   <v>       0.37500000       0.46666667       0.20000000 </v>
   <v>       0.41666667       0.46666667       0.20000000 </v>
   <v>       0.45833333       0.46666667       0.20000000 </v>
   <v>       0.50000000       0.46666667       0.20000000 </v>
   <v>      -0.45833333       0.46666667       0.20000000 </v>
   <v>      -0.41666667       0.46666667       0.20000000 </v>
   <v>      -0.37500000       0.46666667       0.20000000 </v>
   <v>      -0.33333333       0.46666667       0.20000000 </v>
   <v>      -0.29166667       0.46666667       0.20000000 </v>
   <v>      -0.25000000       0.46666667       0.20000000 </v>
   <v>      -0.20833333       0.46666667       0.20000000 </v>
   <v>      -0.16666667       0.46666667       0.20000000 </v>
   <v>      -0.12500000       0.46666667       0.20000000 </v>
   <v>      -0.08333333       0.46666667       0.20000000 </v>
   <v>      -0.04166667       0.46666667       0.20000000 </v>
   <v>       0.00000000      -0.46666667       0.20000000 </v>
   <v>       0.04166667      -0.46666667       0.20000000 </v>
   <v>       0.08333333      -0.46666667       0.20000000 </v>
   <v>       0.12500000      -0.46666667       0.20000000 </v>
   <v>       0.16666667      -0.46666667       0.20000000 </v>
   <v>       0.20833333      -0.46666667       0.20000000 </v>
   <v>       0.25000000      -0.46666667       0.20000000 </v>
   <v>       0.29166667      -0.46666667       0.20000000 </v>
   <v>       0.33333333      -0.46666667       0.20000000 </v>
   <v>       0.37500000      -0.46666667       0.20000000 </v>
   <v>       0.41666667      -0.46666667       0.20000000 </v>
   <v>       0.45833333      -0.46666667       0.20000000 </v>
   <v>       0.50000000      -0.46666667       0.20000000 </v>
   <v>      -0.45833333      -0.46666667       0.20000000 </v>
   <v>      -0.41666667      -0.46666667       0.20000000 </v>
   <v>      -0.37500000      -0.46666667       0.20000000 </v>
   <v>      -0.33333333      -0.46666667       0.20000000 </v>
   <v>      -0.29166667      -0.46666667       0.20000000 </v>
   <v>      -0.25000000      -0.46666667       0.20000000 </v>
   <v>      -0.20833333      -0.46666667       0.20000000 </v>
   <v>      -0.16666667      -0.46666667       0.20000000 </v>
   <v>      -0.12500000      -0.46666667       0.20000000 </v>
   <v>      -0.08333333      -0.46666667       0.20000000 </v>
   <v>      -0.04166667      -0.46666667       0.20000000 </v>
   <v>       0.00000000      -0.40000000       0.20000000 </v>
   <v>       0.04166667      -0.40000000       0.20000000 </v>
   <v>       0.08333333      -0.40000000       0.20000000 </v>
   <v>       0.12500000      -0.40000000       0.20000000 </v>
   <v>       0.16666667      -0.40000000       0.20000000 </v>
   <v>       0.20833333      -0.40000000       0.20000000 </v>
   <v>       0.25000000      -0.40000000       0.20000000 </v>
   <v>       0.29166667      -0.40000000       0.20000000 </v>
   <v>       0.33333333      -0.40000000       0.20000000 </v>
   <v>       0.37500000      -0.40000000       0.20000000 </v>
   <v>       0.41666667      -0.40000000       0.20000000 </v>
   <v>       0.45833333      -0.40000000       0.20000000 </v>
   <v>       0.50000000      -0.40000000       0.20000000 </v>
   <v>      -0.45833333      -0.40000000       0.20000000 </v>
   <v>      -0.41666667      -0.40000000       0.20000000 </v>
   <v>      -0.37500000      -0.40000000       0.20000000 </v>
   <v>      -0.33333333      -0.40000000       0.20000000 </v>
   <v>      -0.29166667      -0.40000000       0.20000000 </v>
   <v>      -0.25000000      -0.40000000       0.20000000 </v>
   <v>      -0.20833333      -0.40000000       0.20000000 </v>
   <v>      -0.16666667      -0.40000000       0.20000000 </v>
   <v>      -0.12500000      -0.40000000       0.20000000 </v>
   <v>      -0.08333333      -0.40000000       0.20000000 </v>
   <v>      -0.04166667      -0.40000000       0.20000000 </v>
   <v>       0.00000000      -0.33333333       0.20000000 </v>
   <v>       0.04166667      -0.33333333       0.20000000 </v>
   <v>       0.08333333      -0.33333333       0.20000000 </v>
   <v>       0.12500000      -0.33333333       0.20000000 </v>
   <v>       0.16666667      -0.33333333       0.20000000 </v>
   <v>       0.20833333      -0.33333333       0.20000000 </v>
   <v>       0.25000000      -0.33333333       0.20000000 </v>
   <v>       0.29166667      -0.33333333       0.20000000 </v>
   <v>       0.33333333      -0.33333333       0.20000000 </v>
   <v>       0.37500000      -0.33333333       0.20000000 </v>
   <v>       0.41666667      -0.33333333       0.20000000 </v>
   <v>       0.45833333      -0.33333333       0.20000000 </v>
   <v>       0.50000000      -0.33333333       0.20000000 </v>
   <v>      -0.45833333      -0.33333333       0.20000000 </v>
   <v>      -0.41666667      -0.33333333       0.20000000 </v>
   <v>      -0.37500000      -0.33333333       0.20000000 </v>
   <v>      -0.33333333      -0.33333333       0.20000000 </v>
   <v>      -0.29166667      -0.33333333       0.20000000 </v>
   <v>      -0.25000000      -0.33333333       0.20000000 </v>
   <v>      -0.20833333      -0.33333333       0.20000000 </v>
   <v>      -0.16666667      -0.33333333       0.20000000 </v>
   <v>      -0.12500000      -0.33333333       0.20000000 </v>
   <v>      -0.08333333      -0.33333333       0.20000000 </v>
   <v>      -0.04166667      -0.33333333       0.20000000 </v>
   <v>       0.00000000      -0.26666667       0.20000000 </v>
   <v>       0.04166667      -0.26666667       0.20000000 </v>
   <v>       0.08333333      -0.26666667       0.20000000 </v>
   <v>       0.12500000      -0.26666667       0.20000000 </v>
   <v>       0.16666667      -0.26666667       0.20000000 </v>
   <v>       0.20833333      -0.26666667       0.20000000 </v>
   <v>       0.25000000      -0.26666667       0.20000000 </v>
   <v>       0.29166667      -0.26666667       0.20000000 </v>
   <v>       0.33333333      -0.26666667       0.20000000 </v>
   <v>       0.37500000      -0.26666667       0.20000000 </v>
   <v>       0.41666667      -0.26666667       0.20000000 </v>
   <v>       0.45833333      -0.26666667       0.20000000 </v>
   <v>       0.50000000      -0.26666667       0.20000000 </v>
   <v>      -0.45833333      -0.26666667       0.20000000 </v>
   <v>      -0.41666667      -0.26666667       0.20000000 </v>
   <v>      -0.37500000      -0.26666667       0.20000000 </v>
   <v>      -0.33333333      -0.26666667       0.20000000 </v>
   <v>      -0.29166667      -0.26666667       0.20000000 </v>
   <v>      -0.25000000      -0.26666667       0.20000000 </v>
   <v>      -0.20833333      -0.26666667       0.20000000 </v>
   <v>      -0.16666667      -0.26666667       0.20000000 </v>
   <v>      -0.12500000      -0.26666667       0.20000000 </v>
   <v>      -0.08333333      -0.26666667       0.20000000 </v>
   <v>      -0.04166667      -0.26666667       0.20000000 </v>
   <v>       0.00000000      -0.20000000       0.20000000 </v>
   <v>       0.04166667      -0.20000000       0.20000000 </v>
   <v>       0.08333333      -0.20000000       0.20000000 </v>
   <v>       0.12500000      -0.20000000       0.20000000 </v>
   <v>       0.16666667      -0.20000000       0.20000000 </v>
   <v>       0.20833333      -0.20000000       0.20000000 </v>
   <v>       0.25000000      -0.20000000       0.20000000 </v>
   <v>       0.29166667      -0.20000000       0.20000000 </v>
   <v>       0.33333333      -0.20000000       0.20000000 </v>
   <v>       0.37500000      -0.20000000       0.20000000 </v>
   <v>       0.41666667      -0.20000000       0.20000000 </v>
   <v>       0.45833333      -0.20000000       0.20000000 </v>
   <v>       0.50000000      -0.20000000       0.20000000 </v>
   <v>      -0.45833333      -0.20000000       0.20000000 </v>
   <v>      -0.41666667      -0.20000000       0.20000000 </v>
   <v>      -0.37500000      -0.20000000       0.20000000 </v>
   <v>      -0.33333333      -0.20000000       0.20000000 </v>
   <v>      -0.29166667      -0.20000000       0.20000000 </v>
   <v>      -0.25000000      -0.20000000       0.20000000 </v>
   <v>      -0.20833333      -0.20000000       0.20000000 </v>
   <v>      -0.16666667      -0.20000000       0.20000000 </v>
   <v>      -0.12500000      -0.20000000       0.20000000 </v>
   <v>      -0.08333333      -0.20000000       0.20000000 </v>
   <v>      -0.04166667      -0.20000000       0.20000000 </v>
   <v>       0.00000000      -0.13333333       0.20000000 </v>
   <v>       0.04166667      -0.13333333       0.20000000 </v>
   <v>       0.08333333      -0.13333333       0.20000000 </v>
   <v>       0.12500000      -0.13333333       0.20000000 </v>
   <v>       0.16666667      -0.13333333       0.20000000 </v>
   <v>       0.20833333      -0.13333333       0.20000000 </v>
   <v>       0.25000000      -0.13333333       0.20000000 </v>
   <v>       0.29166667      -0.13333333       0.20000000 </v>
   <v>       0.33333333      -0.13333333       0.20000000 </v>
   <v>       0.37500000      -0.13333333       0.20000000 </v>
   <v>       0.41666667      -0.13333333       0.20000000 </v>
   <v>       0.45833333      -0.13333333       0.20000000 </v>
   <v>       0.50000000      -0.13333333       0.20000000 </v>
   <v>      -0.45833333      -0.13333333       0.20000000 </v>
   <v>      -0.41666667      -0.13333333       0.20000000 </v>
   <v>      -0.37500000      -0.13333333       0.20000000 </v>
   <v>      -0.33333333      -0.13333333       0.20000000 </v>
   <v>      -0.29166667      -0.13333333       0.20000000 </v>
   <v>      -0.25000000      -0.13333333       0.20000000 </v>
   <v>      -0.20833333      -0.13333333       0.20000000 </v>
   <v>      -0.16666667      -0.13333333       0.20000000 </v>
   <v>      -0.12500000      -0.13333333       0.20000000 </v>
   <v>      -0.08333333      -0.13333333       0.20000000 </v>
   <v>      -0.04166667      -0.13333333       0.20000000 </v>
   <v>       0.00000000      -0.06666667       0.20000000 </v>
   <v>       0.04166667      -0.06666667       0.20000000 </v>
   <v>       0.08333333      -0.06666667       0.20000000 </v>
   <v>       0.12500000      -0.06666667       0.20000000 </v>
   <v>       0.16666667      -0.06666667       0.20000000 </v>
   <v>       0.20833333      -0.06666667       0.20000000 </v>
   <v>       0.25000000      -0.06666667       0.20000000 </v>
   <v>       0.29166667      -0.06666667       0.20000000 </v>
   <v>       0.33333333      -0.06666667       0.20000000 </v>
   <v>       0.37500000      -0.06666667       0.20000000 </v>
   <v>       0.41666667      -0.06666667       0.20000000 </v>
   <v>       0.45833333      -0.06666667       0.20000000 </v>
   <v>       0.50000000      -0.06666667       0.20000000 </v>
   <v>      -0.45833333      -0.06666667       0.20000000 </v>
   <v>      -0.41666667      -0.06666667       0.20000000 </v>
   <v>      -0.37500000      -0.06666667       0.20000000 </v>
   <v>      -0.33333333      -0.06666667       0.20000000 </v>
   <v>      -0.29166667      -0.06666667       0.20000000 </v>
   <v>      -0.25000000      -0.06666667       0.20000000 </v>
   <v>      -0.20833333      -0.06666667       0.20000000 </v>
   <v>      -0.16666667      -0.06666667       0.20000000 </v>
   <v>      -0.12500000      -0.06666667       0.20000000 </v>
   <v>      -0.08333333      -0.06666667       0.20000000 </v>
   <v>      -0.04166667      -0.06666667       0.20000000 </v>
   <v>       0.00000000       0.00000000       0.30000000 </v>
   <v>       0.04166667       0.00000000       0.30000000 </v>
   <v>       0.08333333       0.00000000       0.30000000 </v>
   <v>       0.12500000       0.00000000       0.30000000 </v>
   <v>       0.16666667       0.00000000       0.30000000 </v>
   <v>       0.20833333       0.00000000       0.30000000 </v>
   <v>       0.25000000       0.00000000       0.30000000 </v>
   <v>       0.29166667       0.00000000       0.30000000 </v>
   <v>       0.33333333       0.00000000       0.30000000 </v>
   <v>       0.37500000       0.00000000       0.30000000 </v>
   <v>       0.41666667       0.00000000       0.30000000 </v>
   <v>       0.45833333       0.00000000       0.30000000 </v>
   <v>      -0.45833333       0.00000000       0.30000000 </v>
   <v>      -0.41666667       0.00000000       0.30000000 </v>
   <v>      -0.37500000       0.00000000       0.30000000 </v>
   <v>      -0.33333333       0.00000000       0.30000000 </v>
   <v>      -0.29166667       0.00000000       0.30000000 </v>
   <v>      -0.25000000       0.00000000       0.30000000 </v>
   <v>      -0.20833333       0.00000000       0.30000000 </v>
   <v>      -0.16666667       0.00000000       0.30000000 </v>
   <v>      -0.12500000       0.00000000       0.30000000 </v>
   <v>      -0.08333333       0.00000000       0.30000000 </v>
   <v>      -0.04166667       0.00000000       0.30000000 </v>
   <v>       0.00000000       0.06666667       0.30000000 </v>
   <v>       0.04166667       0.06666667       0.30000000 </v>
   <v>       0.08333333       0.06666667       0.30000000 </v>
   <v>       0.12500000       0.06666667       0.30000000 </v>
   <v>       0.16666667       0.06666667       0.30000000 </v>
   <v>       0.20833333       0.06666667       0.30000000 </v>
   <v>       0.25000000       0.06666667       0.30000000 </v>
   <v>       0.29166667       0.06666667       0.30000000 </v>
   <v>       0.33333333       0.06666667       0.30000000 </v>
   <v>       0.37500000       0.06666667       0.30000000 </v>
   <v>       0.41666667       0.06666667       0.30000000 </v>
   <v>       0.45833333       0.06666667       0.30000000 </v>
   <v>      -0.45833333       0.06666667       0.30000000 </v>
   <v>      -0.41666667       0.06666667       0.30000000 </v>
   <v>      -0.37500000       0.06666667       0.30000000 </v>
   <v>      -0.33333333       0.06666667       0.30000000 </v>
   <v>      -0.29166667       0.06666667       0.30000000 </v>
   <v>      -0.25000000       0.06666667       0.30000000 </v>
   <v>      -0.20833333       0.06666667       0.30000000 </v>
   <v>      -0.16666667       0.06666667       0.30000000 </v>
   <v>      -0.12500000       0.06666667       0.30000000 </v>
   <v>      -0.08333333       0.06666667       0.30000000 </v>
   <v>      -0.04166667       0.06666667       0.30000000 </v>
   <v>       0.00000000       0.13333333       0.30000000 </v>
   <v>       0.04166667       0.13333333       0.30000000 </v>
   <v>       0.08333333       0.13333333       0.30000000 </v>
   <v>       0.12500000       0.13333333       0.30000000 </v>
   <v>       0.16666667       0.13333333       0.30000000 </v>
   <v>       0.20833333       0.13333333       0.30000000 </v>
   <v>       0.25000000       0.13333333       0.30000000 </v>
   <v>       0.29166667       0.13333333       0.30000000 </v>
   <v>       0.33333333       0.13333333       0.30000000 </v>
   <v>       0.37500000       0.13333333       0.30000000 </v>
   <v>       0.41666667       0.13333333       0.30000000 </v>
   <v>       0.45833333       0.13333333       0.30000000 </v>
   <v>      -0.45833333       0.13333333       0.30000000 </v>
   <v>      -0.41666667       0.13333333       0.30000000 </v>
   <v>      -0.37500000       0.13333333       0.30000000 </v>
   <v>      -0.33333333       0.13333333       0.30000000 </v>
   <v>      -0.29166667       0.13333333       0.30000000 </v>
   <v>      -0.25000000       0.13333333       0.30000000 </v>
   <v>      -0.20833333       0.13333333       0.30000000 </v>
   <v>      -0.16666667       0.13333333       0.30000000 </v>
   <v>      -0.12500000       0.13333333       0.30000000 </v>
   <v>      -0.08333333       0.13333333       0.30000000 </v>
   <v>      -0.04166667       0.13333333       0.30000000 </v>
   <v>       0.00000000       0.20000000       0.30000000 </v>
   <v>       0.04166667       0.20000000       0.30000000 </v>
   <v>       0.08333333       0.20000000       0.30000000 </v>
   <v>       0.12500000       0.20000000       0.30000000 </v>
   <v>       0.16666667       0.20000000       0.30000000 </v>
   <v>       0.20833333       0.20000000       0.30000000 </v>
   <v>       0.25000000       0.20000000       0.30000000 </v>
   <v>       0.29166667       0.20000000       0.30000000 </v>
   <v>       0.33333333       0.20000000       0.30000000 </v>
   <v>       0.37500000       0.20000000       0.30000000 </v>
   <v>       0.41666667       0.20000000       0.30000000 </v>
   <v>       0.45833333       0.20000000       0.30000000 </v>
   <v>      -0.45833333       0.20000000       0.30000000 </v>
   <v>      -0.41666667       0.20000000       0.30000000 </v>
   <v>      -0.37500000       0.20000000       0.30000000 </v>
   <v>      -0.33333333       0.20000000       0.30000000 </v>
   <v>      -0.29166667       0.20000000       0.30000000 </v>
   <v>      -0.25000000       0.20000000       0.30000000 </v>
   <v>      -0.20833333       0.20000000       0.30000000 </v>
   <v>      -0.16666667       0.20000000       0.30000000 </v>
   <v>      -0.12500000       0.20000000       0.30000000 </v>
   <v>      -0.08333333       0.20000000       0.30000000 </v>
   <v>      -0.04166667       0.20000000       0.30000000 </v>
   <v>       0.00000000       0.26666667       0.30000000 </v>
   <v>       0.04166667       0.26666667       0.30000000 </v>
   <v>       0.08333333       0.26666667       0.30000000 </v>
   <v>       0.12500000       0.26666667       0.30000000 </v>
   <v>       0.16666667       0.26666667       0.30000000 </v>
   <v>       0.20833333       0.26666667       0.30000000 </v>
   <v>       0.25000000       0.26666667       0.30000000 </v>
   <v>       0.29166667       0.26666667       0.30000000 </v>
   <v>       0.33333333       0.26666667       0.30000000 </v>
   <v>       0.37500000       0.26666667       0.30000000 </v>
   <v>       0.41666667       0.26666667       0.30000000 </v>
   <v>       0.45833333       0.26666667       0.30000000 </v>
   <v>      -0.45833333       0.26666667       0.30000000 </v>
   <v>      -0.41666667       0.26666667       0.30000000 </v>
   <v>      -0.37500000       0.26666667       0.30000000 </v>
   <v>      -0.33333333       0.26666667       0.30000000 </v>
   <v>      -0.29166667       0.26666667       0.30000000 </v>
   <v>      -0.25000000       0.26666667       0.30000000 </v>
   <v>      -0.20833333       0.26666667       0.30000000 </v>
   <v>      -0.16666667       0.26666667       0.30000000 </v>
   <v>      -0.12500000       0.26666667       0.30000000 </v>
   <v>      -0.08333333       0.26666667       0.30000000 </v>
   <v>      -0.04166667       0.26666667       0.30000000 </v>
   <v>       0.00000000       0.33333333       0.30000000 </v>
   <v>       0.04166667       0.33333333       0.30000000 </v>
   <v>       0.08333333       0.33333333       0.30000000 </v>
   <v>       0.12500000       0.33333333       0.30000000 </v>
   <v>       0.16666667       0.33333333       0.30000000 </v>
   <v>       0.20833333       0.33333333       0.30000000 </v>
   <v>       0.25000000       0.33333333       0.30000000 </v>
   <v>       0.29166667       0.33333333       0.30000000 </v>
   <v>       0.33333333       0.33333333       0.30000000 </v>
   <v>       0.37500000       0.33333333       0.30000000 </v>
   <v>       0.41666667       0.33333333       0.30000000 </v>
   <v>       0.45833333       0.33333333       0.30000000 </v>
   <v>      -0.45833333       0.33333333       0.30000000 </v>
   <v>      -0.41666667       0.33333333       0.30000000 </v>
   <v>      -0.37500000       0.33333333       0.30000000 </v>
   <v>      -0.33333333       0.33333333       0.30000000 </v>
   <v>      -0.29166667       0.33333333       0.30000000 </v>
   <v>      -0.25000000       0.33333333       0.30000000 </v>
   <v>      -0.20833333       0.33333333       0.30000000 </v>
   <v>      -0.16666667       0.33333333       0.30000000 </v>
   <v>      -0.12500000       0.33333333       0.30000000 </v>
   <v>      -0.08333333       0.33333333       0.30000000 </v>
   <v>      -0.04166667       0.33333333       0.30000000 </v>
   <v>       0.00000000       0.40000000       0.30000000 </v>
   <v>       0.04166667       0.40000000       0.30000000 </v>
   <v>       0.08333333       0.40000000       0.30000000 </v>
   <v>       0.12500000       0.40000000       0.30000000 </v>
   <v>       0.16666667       0.40000000       0.30000000 </v>
   <v>       0.20833333       0.40000000       0.30000000 </v>
   <v>       0.25000000       0.40000000       0.30000000 </v>
   <v>       0.29166667       0.40000000       0.30000000 </v>
   <v>       0.33333333       0.40000000       0.30000000 </v>
   <v>       0.37500000       0.40000000       0.30000000 </v>
   <v>       0.41666667       0.40000000       0.30000000 </v>
   <v>       0.45833333       0.40000000       0.30000000 </v>
   <v>      -0.45833333       0.40000000       0.30000000 </v>
   <v>      -0.41666667       0.40000000       0.30000000 </v>
   <v>      -0.37500000       0.40000000       0.30000000 </v>
   <v>      -0.33333333       0.40000000       0.30000000 </v>
   <v>      -0.29166667       0.40000000       0.30000000 </v>
   <v>      -0.25000000       0.40000000       0.30000000 </v>
   <v>      -0.20833333       0.40000000       0.30000000 </v>
   <v>      -0.16666667       0.40000000       0.30000000 </v>
   <v>      -0.12500000       0.40000000       0.30000000 </v>
   <v>      -0.08333333       0.40000000       0.30000000 </v>
   <v>      -0.04166667       0.40000000       0.30000000 </v>
   <v>       0.00000000       0.46666667       0.30000000 </v>
   <v>       0.04166667       0.46666667       0.30000000 </v>
   <v>       0.08333333       0.46666667       0.30000000 </v>
   <v>       0.12500000       0.46666667       0.30000000 </v>
   <v>       0.16666667       0.46666667       0.30000000 </v>
   <v>       0.20833333       0.46666667       0.30000000 </v>
   <v>       0.25000000       0.46666667       0.30000000 </v>
   <v>       0.29166667       0.46666667       0.30000000 </v>
   <v>       0.33333333       0.46666667       0.30000000 </v>
   <v>       0.37500000       0.46666667       0.30000000 </v>
   <v>       0.41666667       0.46666667       0.30000000 </v>
   <v>       0.45833333       0.46666667       0.30000000 </v>
   <v>      -0.45833333       0.46666667       0.30000000 </v>
   <v>      -0.41666667       0.46666667       0.30000000 </v>
   <v>      -0.37500000       0.46666667       0.30000000 </v>
   <v>      -0.33333333       0.46666667       0.30000000 </v>
   <v>      -0.29166667       0.46666667       0.30000000 </v>
   <v>      -0.25000000       0.46666667       0.30000000 </v>
   <v>      -0.20833333       0.46666667       0.30000000 </v>
   <v>      -0.16666667       0.46666667       0.30000000 </v>
   <v>      -0.12500000       0.46666667       0.30000000 </v>
   <v>      -0.08333333       0.46666667       0.30000000 </v>
   <v>      -0.04166667       0.46666667       0.30000000 </v>
   <v>       0.00000000      -0.46666667       0.30000000 </v>
   <v>       0.04166667      -0.46666667       0.30000000 </v>
   <v>       0.08333333      -0.46666667       0.30000000 </v>
   <v>       0.12500000      -0.46666667       0.30000000 </v>
   <v>       0.16666667      -0.46666667       0.30000000 </v>
   <v>       0.20833333      -0.46666667       0.30000000 </v>
   <v>       0.25000000      -0.46666667       0.30000000 </v>
   <v>       0.29166667      -0.46666667       0.30000000 </v>
   <v>       0.33333333      -0.46666667       0.30000000 </v>
   <v>       0.37500000      -0.46666667       0.30000000 </v>
   <v>       0.41666667      -0.46666667       0.30000000 </v>
   <v>       0.45833333      -0.46666667       0.30000000 </v>
   <v>      -0.45833333      -0.46666667       0.30000000 </v>
   <v>      -0.41666667      -0.46666667       0.30000000 </v>
   <v>      -0.37500000      -0.46666667       0.30000000 </v>
   <v>      -0.33333333      -0.46666667       0.30000000 </v>
   <v>      -0.29166667      -0.46666667       0.30000000 </v>
   <v>      -0.25000000      -0.46666667       0.30000000 </v>
   <v>      -0.20833333      -0.46666667       0.30000000 </v>
   <v>      -0.16666667      -0.46666667       0.30000000 </v>
   <v>      -0.12500000      -0.46666667       0.30000000 </v>
   <v>      -0.08333333      -0.46666667       0.30000000 </v>
   <v>      -0.04166667      -0.46666667       0.30000000 </v>
   <v>       0.00000000      -0.40000000       0.30000000 </v>
   <v>       0.04166667      -0.40000000       0.30000000 </v>
   <v>       0.08333333      -0.40000000       0.30000000 </v>
   <v>       0.12500000      -0.40000000       0.30000000 </v>
   <v>       0.16666667      -0.40000000       0.30000000 </v>
   <v>       0.20833333      -0.40000000       0.30000000 </v>
   <v>       0.25000000      -0.40000000       0.30000000 </v>
   <v>       0.29166667      -0.40000000       0.30000000 </v>
   <v>       0.33333333      -0.40000000       0.30000000 </v>
   <v>       0.37500000      -0.40000000       0.30000000 </v>
   <v>       0.41666667      -0.40000000       0.30000000 </v>
   <v>       0.45833333      -0.40000000       0.30000000 </v>
   <v>      -0.45833333      -0.40000000       0.30000000 </v>
   <v>      -0.41666667      -0.40000000       0.30000000 </v>
   <v>      -0.37500000      -0.40000000       0.30000000 </v>
   <v>      -0.33333333      -0.40000000       0.30000000 </v>
   <v>      -0.29166667      -0.40000000       0.30000000 </v>
   <v>      -0.25000000      -0.40000000       0.30000000 </v>
   <v>      -0.20833333      -0.40000000       0.30000000 </v>
   <v>      -0.16666667      -0.40000000       0.30000000 </v>
   <v>      -0.12500000      -0.40000000       0.30000000 </v>
   <v>      -0.08333333      -0.40000000       0.30000000 </v>
   <v>      -0.04166667      -0.40000000       0.30000000 </v>
   <v>       0.00000000      -0.33333333       0.30000000 </v>
   <v>       0.04166667      -0.33333333       0.30000000 </v>
   <v>       0.08333333      -0.33333333       0.30000000 </v>
   <v>       0.12500000      -0.33333333       0.30000000 </v>
   <v>       0.16666667      -0.33333333       0.30000000 </v>
   <v>       0.20833333      -0.33333333       0.30000000 </v>
   <v>       0.25000000      -0.33333333       0.30000000 </v>
   <v>       0.29166667      -0.33333333       0.30000000 </v>
   <v>       0.33333333      -0.33333333       0.30000000 </v>
   <v>       0.37500000      -0.33333333       0.30000000 </v>
   <v>       0.41666667      -0.33333333       0.30000000 </v>
   <v>       0.45833333      -0.33333333       0.30000000 </v>
   <v>      -0.45833333      -0.33333333       0.30000000 </v>
   <v>      -0.41666667      -0.33333333       0.30000000 </v>
   <v>      -0.37500000      -0.33333333       0.30000000 </v>
   <v>      -0.33333333      -0.33333333       0.30000000 </v>
   <v>      -0.29166667      -0.33333333       0.30000000 </v>
   <v>      -0.25000000      -0.33333333       0.30000000 </v>
   <v>      -0.20833333      -0.33333333       0.30000000 </v>
   <v>      -0.16666667      -0.33333333       0.30000000 </v>
   <v>      -0.12500000      -0.33333333       0.30000000 </v>
   <v>      -0.08333333      -0.33333333       0.30000000 </v>
   <v>      -0.04166667      -0.33333333       0.30000000 </v>
   <v>       0.00000000      -0.26666667       0.30000000 </v>
   <v>       0.04166667      -0.26666667       0.30000000 </v>
   <v>       0.08333333      -0.26666667       0.30000000 </v>
   <v>       0.12500000      -0.26666667       0.30000000 </v>
   <v>       0.16666667      -0.26666667       0.30000000 </v>
   <v>       0.20833333      -0.26666667       0.30000000 </v>
   <v>       0.25000000      -0.26666667       0.30000000 </v>
   <v>       0.29166667      -0.26666667       0.30000000 </v>
   <v>       0.33333333      -0.26666667       0.30000000 </v>
   <v>       0.37500000      -0.26666667       0.30000000 </v>
   <v>       0.41666667      -0.26666667       0.30000000 </v>
   <v>       0.45833333      -0.26666667       0.30000000 </v>
   <v>      -0.45833333      -0.26666667       0.30000000 </v>
   <v>      -0.41666667      -0.26666667       0.30000000 </v>
   <v>      -0.37500000      -0.26666667       0.30000000 </v>
   <v>      -0.33333333      -0.26666667       0.30000000 </v>
   <v>      -0.29166667      -0.26666667       0.30000000 </v>
   <v>      -0.25000000      -0.26666667       0.30000000 </v>
   <v>      -0.20833333      -0.26666667       0.30000000 </v>
   <v>      -0.16666667      -0.26666667       0.30000000 </v>
   <v>      -0.12500000      -0.26666667       0.30000000 </v>
   <v>      -0.08333333      -0.26666667       0.30000000 </v>
   <v>      -0.04166667      -0.26666667       0.30000000 </v>
   <v>       0.00000000      -0.20000000       0.30000000 </v>
   <v>       0.04166667      -0.20000000       0.30000000 </v>
   <v>       0.08333333      -0.20000000       0.30000000 </v>
   <v>       0.12500000      -0.20000000       0.30000000 </v>
   <v>       0.16666667      -0.20000000       0.30000000 </v>
   <v>       0.20833333      -0.20000000       0.30000000 </v>
   <v>       0.25000000      -0.20000000       0.30000000 </v>
   <v>       0.29166667      -0.20000000       0.30000000 </v>
   <v>       0.33333333      -0.20000000       0.30000000 </v>
   <v>       0.37500000      -0.20000000       0.30000000 </v>
   <v>       0.41666667      -0.20000000       0.30000000 </v>
   <v>       0.45833333      -0.20000000       0.30000000 </v>
   <v>      -0.45833333      -0.20000000       0.30000000 </v>
   <v>      -0.41666667      -0.20000000       0.30000000 </v>
   <v>      -0.37500000      -0.20000000       0.30000000 </v>
   <v>      -0.33333333      -0.20000000       0.30000000 </v>
   <v>      -0.29166667      -0.20000000       0.30000000 </v>
   <v>      -0.25000000      -0.20000000       0.30000000 </v>
   <v>      -0.20833333      -0.20000000       0.30000000 </v>
   <v>      -0.16666667      -0.20000000       0.30000000 </v>
   <v>      -0.12500000      -0.20000000       0.30000000 </v>
   <v>      -0.08333333      -0.20000000       0.30000000 </v>
   <v>      -0.04166667      -0.20000000       0.30000000 </v>
   <v>       0.00000000      -0.13333333       0.30000000 </v>
   <v>       0.04166667      -0.13333333       0.30000000 </v>
   <v>       0.08333333      -0.13333333       0.30000000 </v>
   <v>       0.12500000      -0.13333333       0.30000000 </v>
   <v>       0.16666667      -0.13333333       0.30000000 </v>
   <v>       0.20833333      -0.13333333       0.30000000 </v>
   <v>       0.25000000      -0.13333333       0.30000000 </v>
   <v>       0.29166667      -0.13333333       0.30000000 </v>
   <v>       0.33333333      -0.13333333       0.30000000 </v>
   <v>       0.37500000      -0.13333333       0.30000000 </v>
   <v>       0.41666667      -0.13333333       0.30000000 </v>
   <v>       0.45833333      -0.13333333       0.30000000 </v>
   <v>      -0.45833333      -0.13333333       0.30000000 </v>
   <v>      -0.41666667      -0.13333333       0.30000000 </v>
   <v>      -0.37500000      -0.13333333       0.30000000 </v>
   <v>      -0.33333333      -0.13333333       0.30000000 </v>
   <v>      -0.29166667      -0.13333333       0.30000000 </v>
   <v>      -0.25000000      -0.13333333       0.30000000 </v>
   <v>      -0.20833333      -0.13333333       0.30000000 </v>
   <v>      -0.16666667      -0.13333333       0.30000000 </v>
   <v>      -0.12500000      -0.13333333       0.30000000 </v>
   <v>      -0.08333333      -0.13333333       0.30000000 </v>
   <v>      -0.04166667      -0.13333333       0.30000000 </v>
   <v>       0.00000000      -0.06666667       0.30000000 </v>
   <v>       0.04166667      -0.06666667       0.30000000 </v>
   <v>       0.08333333      -0.06666667       0.30000000 </v>
   <v>       0.12500000      -0.06666667       0.30000000 </v>
   <v>       0.16666667      -0.06666667       0.30000000 </v>
   <v>       0.20833333      -0.06666667       0.30000000 </v>
   <v>       0.25000000      -0.06666667       0.30000000 </v>
   <v>       0.29166667      -0.06666667       0.30000000 </v>
   <v>       0.33333333      -0.06666667       0.30000000 </v>
   <v>       0.37500000      -0.06666667       0.30000000 </v>
   <v>       0.41666667      -0.06666667       0.30000000 </v>
   <v>       0.45833333      -0.06666667       0.30000000 </v>
   <v>      -0.45833333      -0.06666667       0.30000000 </v>
   <v>      -0.41666667      -0.06666667       0.30000000 </v>
   <v>      -0.37500000      -0.06666667       0.30000000 </v>
   <v>      -0.33333333      -0.06666667       0.30000000 </v>
   <v>      -0.29166667      -0.06666667       0.30000000 </v>
   <v>      -0.25000000      -0.06666667       0.30000000 </v>
   <v>      -0.20833333      -0.06666667       0.30000000 </v>
[...]
       <r>    4.4398    1.0000 </r>
       <r>    4.5233    1.0000 </r>
       <r>    4.5346    1.0000 </r>
       <r>    4.7488    1.0000 </r>
       <r>    4.7924    1.0000 </r>
       <r>    4.9538    1.0000 </r>
       <r>    5.0334    1.0000 </r>
       <r>    5.0991    1.0000 </r>
       <r>    5.2563    1.0000 </r>
       <r>    5.4562    1.0000 </r>
       <r>    5.5162    1.0000 </r>
       <r>    5.8060    1.0000 </r>
       <r>    6.7369    1.0000 </r>
       <r>    9.1472    0.0000 </r>
       <r>    9.9430    0.0000 </r>
       <r>   13.2659    0.0000 </r>
       <r>   15.3898    0.0000 </r>
       <r>   16.7050    0.0000 </r>
       <r>   18.1340    0.0000 </r>
      </set>
      <set comment="kpoint 1763">
       <r>    1.3826    1.0000 </r>
       <r>    1.5540    1.0000 </r>
       <r>    2.3503    1.0000 </r>
       <r>    2.5194    1.0000 </r>
       <r>    2.5524    1.0000 </r>
       <r>    2.6823    1.0000 </r>
       <r>    2.7058    1.0000 </r>
       <r>    2.8764    1.0000 </r>
       <r>    3.0908    1.0000 </r>
       <r>    3.1608    1.0000 </r>
       <r>    3.3455    1.0000 </r>
       <r>    3.4190    1.0000 </r>
       <r>    3.4982    1.0000 </r>
       <r>    3.7002    1.0000 </r>
       <r>    3.7825    1.0000 </r>
       <r>    3.7932    1.0000 </r>
       <r>    3.8222    1.0000 </r>
       <r>    3.8288    1.0000 </r>
       <r>    3.9066    1.0000 </r>
       <r>    4.0701    1.0000 </r>
       <r>    4.2566    1.0000 </r>
       <r>    4.4193    1.0000 </r>
       <r>    4.5278    1.0000 </r>
       <r>    4.6189    1.0000 </r>
       <r>    4.6964    1.0000 </r>
       <r>    4.8220    1.0000 </r>
       <r>    4.8549    1.0000 </r>
       <r>    4.9379    1.0000 </r>
       <r>    5.0368    1.0000 </r>
       <r>    5.1675    1.0000 </r>
       <r>    5.3877    1.0000 </r>
       <r>    5.4273    1.0000 </r>
       <r>    5.6739    1.0000 </r>
       <r>    6.3262    1.0000 </r>
       <r>    9.1474    0.0000 </r>
       <r>    9.5966    0.0000 </r>
       <r>   13.3890    0.0000 </r>
       <r>   15.0798    0.0000 </r>
       <r>   16.6489    0.0000 </r>
       <r>   18.0284    0.0000 </r>
      </set>
      <set comment="kpoint 1764">
       <r>    1.2656    1.0000 </r>
       <r>    1.4501    1.0000 </r>
       <r>    2.2663    1.0000 </r>
       <r>    2.4470    1.0000 </r>
       <r>    2.5250    1.0000 </r>
       <r>    2.6129    1.0000 </r>
       <r>    2.6802    1.0000 </r>
       <r>    2.7761    1.0000 </r>
       <r>    3.1779    1.0000 </r>
       <r>    3.2612    1.0000 </r>
       <r>    3.4652    1.0000 </r>
       <r>    3.5471    1.0000 </r>
       <r>    3.6269    1.0000 </r>
       <r>    3.7176    1.0000 </r>
       <r>    3.7474    1.0000 </r>
       <r>    3.7711    1.0000 </r>
       <r>    3.7921    1.0000 </r>
       <r>    3.8751    1.0000 </r>
       <r>    4.0393    1.0000 </r>
       <r>    4.1750    1.0000 </r>
       <r>    4.2390    1.0000 </r>
       <r>    4.3433    1.0000 </r>
       <r>    4.4964    1.0000 </r>
       <r>    4.5865    1.0000 </r>
       <r>    4.7676    1.0000 </r>
       <r>    4.7935    1.0000 </r>
       <r>    4.8281    1.0000 </r>
       <r>    4.8881    1.0000 </r>
       <r>    5.0420    1.0000 </r>
       <r>    5.1166    1.0000 </r>
       <r>    5.3188    1.0000 </r>
       <r>    5.3839    1.0000 </r>
       <r>    5.6029    1.0000 </r>
       <r>    5.9641    1.0000 </r>
       <r>    9.1849    0.0000 </r>
       <r>    9.3411    0.0000 </r>
       <r>   13.5533    0.0000 </r>
       <r>   14.7964    0.0000 </r>
       <r>   16.6257    0.0000 </r>
       <r>   17.9447    0.0000 </r>
      </set>
     </set>
    </set>
   </array>
  </eigenvalues>
  <separator name="orbital magnetization" >
   <v name="MAGDIPOLOUT">      0.00000000      0.00000000      0.00000000</v>
  </separator>
  <dos>
   <i name="efermi">      8.13070420 </i>
   <total>
    <array>
     <dimension dim="1">gridpoints</dimension>
     <dimension dim="2">spin</dimension>
     <field>energy</field>
     <field>total</field>
     <field>integrated</field>
     <set>
      <set comment="spin 1">
       <r>    -3.0838     0.0000     0.0000 </r>
       <r>    -3.0021     0.0000     0.0000 </r>
       <r>    -2.9205     0.0000     0.0000 </r>
       <r>    -2.8388     0.0000     0.0000 </r>
       <r>    -2.7572     0.0000     0.0000 </r>
       <r>    -2.6755     0.0000     0.0000 </r>
       <r>    -2.5939     0.0000     0.0000 </r>
       <r>    -2.5122     0.0000     0.0000 </r>
       <r>    -2.4306     0.0000     0.0000 </r>
       <r>    -2.3489     0.0000     0.0000 </r>
       <r>    -2.2673     0.0000     0.0000 </r>
       <r>    -2.1856     0.0000     0.0000 </r>
       <r>    -2.1040     0.0000     0.0000 </r>
       <r>    -2.0223     0.0000     0.0000 </r>
       <r>    -1.9407     0.0000     0.0000 </r>
       <r>    -1.8590     0.0000     0.0000 </r>
       <r>    -1.7774     0.0000     0.0000 </r>
       <r>    -1.6957     0.0000     0.0000 </r>
       <r>    -1.6140     0.0000     0.0000 </r>
       <r>    -1.5324     0.0000     0.0000 </r>
       <r>    -1.4507     0.0000     0.0000 </r>
       <r>    -1.3691     0.0000     0.0000 </r>
       <r>    -1.2874     0.0000     0.0000 </r>
       <r>    -1.2058     0.0000     0.0000 </r>
       <r>    -1.1241     0.0000     0.0000 </r>
       <r>    -1.0425     0.0000     0.0000 </r>
       <r>    -0.9608     0.0000     0.0000 </r>
       <r>    -0.8792     0.0000     0.0000 </r>
       <r>    -0.7975    -0.0001     0.0000 </r>
       <r>    -0.7159    -0.0005    -0.0001 </r>
       <r>    -0.6342    -0.0014    -0.0002 </r>
       <r>    -0.5526    -0.0032    -0.0004 </r>
       <r>    -0.4709    -0.0060    -0.0009 </r>
       <r>    -0.3893    -0.0088    -0.0016 </r>
       <r>    -0.3076    -0.0083    -0.0023 </r>
       <r>    -0.2260     0.0013    -0.0022 </r>
       <r>    -0.1443     0.0262    -0.0001 </r>
       <r>    -0.0627     0.0698     0.0056 </r>
       <r>     0.0190     0.1304     0.0163 </r>
       <r>     0.1006     0.2013     0.0327 </r>
       <r>     0.1823     0.2745     0.0551 </r>
       <r>     0.2640     0.3447     0.0833 </r>
       <r>     0.3456     0.4093     0.1167 </r>
       <r>     0.4273     0.4667     0.1548 </r>
       <r>     0.5089     0.5148     0.1968 </r>
       <r>     0.5906     0.5522     0.2419 </r>
       <r>     0.6722     0.5802     0.2893 </r>
       <r>     0.7539     0.6046     0.3387 </r>
       <r>     0.8355     0.6345     0.3905 </r>
       <r>     0.9172     0.6783     0.4459 </r>
       <r>     0.9988     0.7406     0.5063 </r>
       <r>     1.0805     0.8196     0.5732 </r>
       <r>     1.1621     0.9086     0.6474 </r>
       <r>     1.2438     1.0013     0.7292 </r>
       <r>     1.3254     1.0977     0.8188 </r>
       <r>     1.4071     1.2086     0.9175 </r>
       <r>     1.4887     1.3574     1.0284 </r>
       <r>     1.5704     1.5828     1.1576 </r>
       <r>     1.6520     1.9397     1.3160 </r>
       <r>     1.7337     2.4966     1.5198 </r>
       <r>     1.8153     3.3297     1.7917 </r>
       <r>     1.8970     4.5157     2.1604 </r>
       <r>     1.9786     6.1123     2.6595 </r>
       <r>     2.0603     8.1146     3.3221 </r>
       <r>     2.1420    10.4053     4.1717 </r>
       <r>     2.2236    12.7397     5.2119 </r>
       <r>     2.3053    14.7912     6.4197 </r>
       <r>     2.3869    16.2439     7.7460 </r>
       <r>     2.4686    16.8922     9.1253 </r>
       <r>     2.5502    16.7113    10.4898 </r>
       <r>     2.6319    15.8719    11.7858 </r>
       <r>     2.7135    14.6993    12.9860 </r>
       <r>     2.7952    13.5909    14.0957 </r>
       <r>     2.8768    12.9043    15.1494 </r>
       <r>     2.9585    12.8309    16.1971 </r>
       <r>     3.0401    13.3098    17.2838 </r>
       <r>     3.1218    14.0625    18.4321 </r>
       <r>     3.2034    14.7625    19.6375 </r>
       <r>     3.2851    15.2516    20.8828 </r>
       <r>     3.3667    15.6569    22.1612 </r>
       <r>     3.4484    16.3172    23.4936 </r>
       <r>     3.5300    17.5364    24.9255 </r>
       <r>     3.6117    19.2919    26.5007 </r>
       <r>     3.6933    21.0991    28.2235 </r>
       <r>     3.7750    22.1966    30.0359 </r>
       <r>     3.8566    22.0026    31.8324 </r>
       <r>     3.9383    20.5293    33.5087 </r>
       <r>     4.0200    18.4093    35.0119 </r>
       <r>     4.1016    16.5021    36.3593 </r>
       <r>     4.1833    15.4053    37.6172 </r>
       <r>     4.2649    15.2200    38.8599 </r>
       <r>     4.3466    15.6452    40.1374 </r>
       <r>     4.4282    16.2328    41.4628 </r>
       <r>     4.5099    16.6143    42.8194 </r>
       <r>     4.5915    16.6132    44.1759 </r>
       <r>     4.6732    16.2429    45.5022 </r>
       <r>     4.7548    15.6354    46.7788 </r>
       <r>     4.8365    14.9675    48.0010 </r>
       <r>     4.9181    14.4170    49.1782 </r>
       <r>     4.9998    14.1326    50.3321 </r>
       <r>     5.0814    14.1963    51.4913 </r>
       <r>     5.1631    14.5937    52.6829 </r>
       <r>     5.2447    15.2173    53.9254 </r>
       <r>     5.3264    15.8848    55.2224 </r>
       <r>     5.4080    16.3393    56.5566 </r>
       <r>     5.4897    16.2580    57.8841 </r>
       <r>     5.5713    15.3425    59.1368 </r>
       <r>     5.6530    13.4925    60.2385 </r>
       <r>     5.7347    10.9372    61.1316 </r>
       <r>     5.8163     8.1752    61.7991 </r>
       <r>     5.8980     5.7324    62.2672 </r>
       <r>     5.9796     3.9136    62.5867 </r>
       <r>     6.0613     2.7335    62.8099 </r>
       <r>     6.1429     2.0339    62.9760 </r>
       <r>     6.2246     1.6452    63.1103 </r>
       <r>     6.3062     1.4587    63.2294 </r>
       <r>     6.3879     1.4059    63.3442 </r>
       <r>     6.4695     1.4232    63.4604 </r>
       <r>     6.5512     1.4505    63.5789 </r>
       <r>     6.6328     1.4534    63.6975 </r>
       <r>     6.7145     1.4339    63.8146 </r>
       <r>     6.7961     1.4177    63.9304 </r>
       <r>     6.8778     1.4292    64.0471 </r>
       <r>     6.9594     1.4707    64.1672 </r>
       <r>     7.0411     1.5206    64.2913 </r>
       <r>     7.1227     1.5503    64.4179 </r>
       <r>     7.2044     1.5450    64.5441 </r>
       <r>     7.2860     1.5136    64.6676 </r>
       <r>     7.3677     1.4807    64.7885 </r>
       <r>     7.4493     1.4704    64.9086 </r>
       <r>     7.5310     1.4932    65.0305 </r>
       <r>     7.6127     1.5413    65.1564 </r>
       <r>     7.6943     1.5946    65.2866 </r>
       <r>     7.7760     1.6335    65.4200 </r>
       <r>     7.8576     1.6498    65.5547 </r>
       <r>     7.9393     1.6478    65.6892 </r>
       <r>     8.0209     1.6356    65.8228 </r>
       <r>     8.1026     1.6178    65.9549 </r>
       <r>     8.1842     1.5972    66.0853 </r>
       <r>     8.2659     1.5814    66.2144 </r>
       <r>     8.3475     1.5828    66.3436 </r>
       <r>     8.4292     1.6090    66.4750 </r>
       <r>     8.5108     1.6528    66.6100 </r>
       <r>     8.5925     1.6927    66.7482 </r>
       <r>     8.6741     1.7062    66.8875 </r>
       <r>     8.7558     1.6850    67.0251 </r>
       <r>     8.8374     1.6386    67.1589 </r>
       <r>     8.9191     1.5866    67.2884 </r>
       <r>     9.0007     1.5474    67.4148 </r>
       <r>     9.0824     1.5329    67.5400 </r>
       <r>     9.1640     1.5464    67.6662 </r>
       <r>     9.2457     1.5820    67.7954 </r>
       <r>     9.3273     1.6250    67.9281 </r>
       <r>     9.4090     1.6572    68.0634 </r>
       <r>     9.4907     1.6657    68.1994 </r>
       <r>     9.5723     1.6491    68.3341 </r>
       <r>     9.6540     1.6168    68.4661 </r>
       <r>     9.7356     1.5833    68.5954 </r>
       <r>     9.8173     1.5593    68.7227 </r>
       <r>     9.8989     1.5477    68.8491 </r>
       <r>     9.9806     1.5446    68.9752 </r>
       <r>    10.0622     1.5434    69.1012 </r>
       <r>    10.1439     1.5391    69.2269 </r>
       <r>    10.2255     1.5286    69.3517 </r>
       <r>    10.3072     1.5101    69.4750 </r>
       <r>    10.3888     1.4823    69.5960 </r>
       <r>    10.4705     1.4454    69.7140 </r>
       <r>    10.5521     1.4031    69.8286 </r>
       <r>    10.6338     1.3633    69.9399 </r>
       <r>    10.7154     1.3372    70.0491 </r>
       <r>    10.7971     1.3349    70.1581 </r>
       <r>    10.8787     1.3624    70.2693 </r>
       <r>    10.9604     1.4199    70.3853 </r>
       <r>    11.0420     1.5029    70.5080 </r>
       <r>    11.1237     1.6025    70.6388 </r>
       <r>    11.2053     1.7033    70.7779 </r>
       <r>    11.2870     1.7844    70.9236 </r>
       <r>    11.3687     1.8275    71.0728 </r>
       <r>    11.4503     1.8286    71.2222 </r>
       <r>    11.5320     1.8039    71.3694 </r>
       <r>    11.6136     1.7811    71.5149 </r>
       <r>    11.6953     1.7819    71.6604 </r>
       <r>    11.7769     1.8100    71.8082 </r>
       <r>    11.8586     1.8513    71.9593 </r>
       <r>    11.9402     1.8857    72.1133 </r>
       <r>    12.0219     1.9010    72.2685 </r>
       <r>    12.1035     1.8992    72.4236 </r>
       <r>    12.1852     1.8923    72.5781 </r>
       <r>    12.2668     1.8906    72.7325 </r>
       <r>    12.3485     1.8930    72.8870 </r>
       <r>    12.4301     1.8904    73.0414 </r>
       <r>    12.5118     1.8772    73.1947 </r>
       <r>    12.5934     1.8592    73.3465 </r>
       <r>    12.6751     1.8470    73.4973 </r>
       <r>    12.7567     1.8434    73.6478 </r>
       <r>    12.8384     1.8385    73.7979 </r>
       <r>    12.9200     1.8176    73.9463 </r>
       <r>    13.0017     1.7757    74.0913 </r>
       <r>    13.0833     1.7264    74.2323 </r>
       <r>    13.1650     1.6962    74.3708 </r>
       <r>    13.2467     1.7066    74.5101 </r>
       <r>    13.3283     1.7588    74.6538 </r>
       <r>    13.4100     1.8322    74.8034 </r>
       <r>    13.4916     1.8965    74.9582 </r>
       <r>    13.5733     1.9295    75.1158 </r>
       <r>    13.6549     1.9287    75.2732 </r>
       <r>    13.7366     1.9119    75.4294 </r>
       <r>    13.8182     1.9044    75.5849 </r>
       <r>    13.8999     1.9210    75.7417 </r>
       <r>    13.9815     1.9566    75.9015 </r>
       <r>    14.0632     1.9941    76.0643 </r>
       <r>    14.1448     2.0202    76.2292 </r>
       <r>    14.2265     2.0318    76.3951 </r>
       <r>    14.3081     2.0265    76.5606 </r>
       <r>    14.3898     1.9955    76.7236 </r>
       <r>    14.4714     1.9304    76.8812 </r>
       <r>    14.5531     1.8383    77.0313 </r>
       <r>    14.6347     1.7438    77.1737 </r>
       <r>    14.7164     1.6748    77.3104 </r>
       <r>    14.7980     1.6448    77.4447 </r>
       <r>    14.8797     1.6475    77.5792 </r>
       <r>    14.9613     1.6641    77.7151 </r>
       <r>    15.0430     1.6741    77.8518 </r>
       <r>    15.1247     1.6624    77.9876 </r>
       <r>    15.2063     1.6238    78.1201 </r>
       <r>    15.2880     1.5629    78.2477 </r>
       <r>    15.3696     1.4905    78.3695 </r>
       <r>    15.4513     1.4167    78.4851 </r>
       <r>    15.5329     1.3470    78.5951 </r>
       <r>    15.6146     1.2838    78.7000 </r>
       <r>    15.6962     1.2283    78.8002 </r>
       <r>    15.7779     1.1793    78.8965 </r>
       <r>    15.8595     1.1314    78.9889 </r>
       <r>    15.9412     1.0748    79.0767 </r>
       <r>    16.0228     1.0003    79.1584 </r>
       <r>    16.1045     0.9060    79.2323 </r>
       <r>    16.1861     0.8001    79.2977 </r>
       <r>    16.2678     0.6977    79.3546 </r>
       <r>    16.3494     0.6148    79.4048 </r>
       <r>    16.4311     0.5612    79.4507 </r>
       <r>    16.5127     0.5369    79.4945 </r>
       <r>    16.5944     0.5331    79.5380 </r>
       <r>    16.6760     0.5365    79.5818 </r>
       <r>    16.7577     0.5349    79.6255 </r>
       <r>    16.8393     0.5208    79.6680 </r>
       <r>    16.9210     0.4909    79.7081 </r>
       <r>    17.0027     0.4455    79.7445 </r>
       <r>    17.0843     0.3894    79.7763 </r>
       <r>    17.1660     0.3318    79.8034 </r>
       <r>    17.2476     0.2831    79.8265 </r>
       <r>    17.3293     0.2494    79.8469 </r>
       <r>    17.4109     0.2290    79.8656 </r>
       <r>    17.4926     0.2154    79.8832 </r>
       <r>    17.5742     0.2030    79.8997 </r>
       <r>    17.6559     0.1905    79.9153 </r>
       <r>    17.7375     0.1791    79.9299 </r>
       <r>    17.8192     0.1695    79.9437 </r>
       <r>    17.9008     0.1594    79.9568 </r>
       <r>    17.9825     0.1457    79.9687 </r>
       <r>    18.0641     0.1263    79.9790 </r>
       <r>    18.1458     0.1016    79.9873 </r>
       <r>    18.2274     0.0744    79.9933 </r>
       <r>    18.3091     0.0482    79.9973 </r>
       <r>    18.3907     0.0266    79.9995 </r>
       <r>    18.4724     0.0115    80.0004 </r>
       <r>    18.5540     0.0027    80.0006 </r>
       <r>    18.6357    -0.0012    80.0005 </r>
       <r>    18.7173    -0.0022    80.0003 </r>
       <r>    18.7990    -0.0019    80.0002 </r>
       <r>    18.8807    -0.0012    80.0001 </r>
       <r>    18.9623    -0.0006    80.0000 </r>
       <r>    19.0440    -0.0003    80.0000 </r>
       <r>    19.1256    -0.0001    80.0000 </r>
       <r>    19.2073     0.0000    80.0000 </r>
       <r>    19.2889     0.0000    80.0000 </r>
       <r>    19.3706     0.0000    80.0000 </r>
       <r>    19.4522     0.0000    80.0000 </r>
       <r>    19.5339     0.0000    80.0000 </r>
       <r>    19.6155     0.0000    80.0000 </r>
       <r>    19.6972     0.0000    80.0000 </r>
       <r>    19.7788     0.0000    80.0000 </r>
       <r>    19.8605     0.0000    80.0000 </r>
       <r>    19.9421     0.0000    80.0000 </r>
       <r>    20.0238     0.0000    80.0000 </r>
       <r>    20.1054     0.0000    80.0000 </r>
       <r>    20.1871     0.0000    80.0000 </r>
       <r>    20.2687     0.0000    80.0000 </r>
       <r>    20.3504     0.0000    80.0000 </r>
       <r>    20.4320     0.0000    80.0000 </r>
       <r>    20.5137     0.0000    80.0000 </r>
       <r>    20.5954     0.0000    80.0000 </r>
       <r>    20.6770     0.0000    80.0000 </r>
       <r>    20.7587     0.0000    80.0000 </r>
       <r>    20.8403     0.0000    80.0000 </r>
       <r>    20.9220     0.0000    80.0000 </r>
       <r>    21.0036     0.0000    80.0000 </r>
       <r>    21.0853     0.0000    80.0000 </r>
       <r>    21.1669     0.0000    80.0000 </r>
       <r>    21.2486     0.0000    80.0000 </r>
       <r>    21.3302     0.0000    80.0000 </r>
       <r>    21.4119     0.0000    80.0000 </r>
      </set>
     </set>
    </array>
   </total>
  </dos>
 </calculation>
 <structure name="finalpos" >
  <crystal>
   <varray name="basis" >
    <v>      -2.06239344       2.06239344       0.00000000 </v>
    <v>      -2.07437187      -2.07437187       4.16077318 </v>
    <v>       6.22083469       4.15844124       2.08409646 </v>
   </varray>
   <i name="volume">    106.89837923 </i>
   <varray name="rec_basis" >
    <v>      -0.20229981       0.28257372       0.04002091 </v>
    <v>      -0.04020853      -0.04020853       0.20024766 </v>
    <v>       0.08027391       0.08027391       0.08004183 </v>
   </varray>
  </crystal>
  <varray name="positions" >
   <v>       0.33345909       0.66661498       0.66691819 </v>
   <v>       0.49951427       0.49924031       0.99902853 </v>
   <v>       0.66715240       0.33409302       0.33430480 </v>
   <v>       0.83320757       0.16671835       0.66641515 </v>
   <v>       0.99900717       0.99949558       0.99801434 </v>
   <v>       0.16765950       0.83383775       0.33531899 </v>
  </varray>
 </structure>
</modeling>
