<?xml version="1.0" encoding="ISO-8859-1"?>
<modeling>
 <generator>
  <i name="program" type="string">vasp </i>
  <i name="version" type="string">5.3.5  </i>
  <i name="subversion" type="string">31Mar14 (build Jun 20 2014 13:15:13) complex                          parallel </i>
  <i name="platform" type="string">LinuxIFC </i>
  <i name="date" type="string">2025 12 16 </i>
  <i name="time" type="string">17:32:42 </i>
 </generator>
 <incar>
  <i type="string" name="PREC">accurate</i>
  <i type="int" name="IALGO">    68</i>
  <i type="logical" name="ADDGRID"> T  </i>
  <i type="int" name="NELM">   100</i>
  <i type="int" name="NELMIN">     4</i>
  <i type="int" name="IBRION">     2</i>
  <i name="EDIFF">      0.00000100</i>
  <i name="EDIFFG">     -0.02000000</i>
  <i type="int" name="NSW">    30</i>
  <i type="int" name="ISIF">     3</i>
  <i name="ENCUT">    600.00000000</i>
  <i type="logical" name="LREAL"> F  </i>
  <i type="int" name="ISMEAR">     0</i>
  <i name="SIGMA">      0.10000000</i>
  <i type="logical" name="LWAVE"> F  </i>
  <i type="logical" name="LCHARG"> F  </i>
  <i type="int" name="NELM">   100</i>
 </incar>
 <kpoints>
  <generation param="Auto">
   <i name="subdivisionlength">     20.00000000 </i>
   <v type="int" name="divisions">       4        6        2 </v>
   <v name="usershift">      0.00000000       0.00000000       0.00000000 </v>
   <v name="genvec1">      0.25000000       0.00000000       0.00000000 </v>
   <v name="genvec2">      0.00000000       0.16666667       0.00000000 </v>
   <v name="genvec3">      0.00000000       0.00000000       0.50000000 </v>
   <v name="shift">      0.00000000       0.00000000       0.00000000 </v>
  </generation>
  <varray name="kpointlist" >
   <v>       0.00000000       0.00000000       0.00000000 </v>
   <v>       0.25000000       0.00000000       0.00000000 </v>
   <v>       0.50000000       0.00000000       0.00000000 </v>
   <v>       0.00000000       0.16666667       0.00000000 </v>
   <v>       0.25000000       0.16666667       0.00000000 </v>
   <v>       0.50000000       0.16666667       0.00000000 </v>
   <v>       0.00000000       0.33333333       0.00000000 </v>
   <v>       0.25000000       0.33333333       0.00000000 </v>
   <v>       0.50000000       0.33333333       0.00000000 </v>
   <v>       0.00000000       0.50000000       0.00000000 </v>
   <v>       0.25000000       0.50000000       0.00000000 </v>
   <v>       0.50000000       0.50000000       0.00000000 </v>
   <v>       0.00000000       0.00000000       0.50000000 </v>
   <v>       0.25000000       0.00000000       0.50000000 </v>
   <v>       0.50000000       0.00000000       0.50000000 </v>
   <v>       0.00000000       0.16666667       0.50000000 </v>
   <v>       0.25000000       0.16666667       0.50000000 </v>
   <v>       0.50000000       0.16666667       0.50000000 </v>
   <v>       0.00000000       0.33333333       0.50000000 </v>
   <v>       0.25000000       0.33333333       0.50000000 </v>
   <v>       0.50000000       0.33333333       0.50000000 </v>
   <v>       0.00000000       0.50000000       0.50000000 </v>
   <v>       0.25000000       0.50000000       0.50000000 </v>
   <v>       0.50000000       0.50000000       0.50000000 </v>
  </varray>
  <varray name="weights" >
   <v>       0.02083333 </v>
   <v>       0.04166667 </v>
   <v>       0.02083333 </v>
   <v>       0.04166667 </v>
   <v>       0.08333333 </v>
   <v>       0.04166667 </v>
   <v>       0.04166667 </v>
   <v>       0.08333333 </v>
   <v>       0.04166667 </v>
   <v>       0.02083333 </v>
   <v>       0.04166667 </v>
   <v>       0.02083333 </v>
   <v>       0.02083333 </v>
   <v>       0.04166667 </v>
   <v>       0.02083333 </v>
   <v>       0.04166667 </v>
   <v>       0.08333333 </v>
   <v>       0.04166667 </v>
   <v>       0.04166667 </v>
   <v>       0.08333333 </v>
   <v>       0.04166667 </v>
   <v>       0.02083333 </v>
   <v>       0.04166667 </v>
   <v>       0.02083333 </v>
  </varray>
 </kpoints>
 <parameters>
  <separator name="general" >
   <i type="string" name="SYSTEM">unknown system</i>
   <i type="logical" name="LCOMPAT"> F  </i>
  </separator>
  <separator name="electronic" >
   <i type="string" name="PREC">accura</i>
   <i name="ENMAX">    600.00000000</i>
   <i name="ENAUG">    644.87300000</i>
   <i name="EDIFF">      0.00000100</i>
   <i type="int" name="IALGO">    68</i>
   <i type="int" name="IWAVPR">    11</i>
   <i type="int" name="NBANDS">    44</i>
   <i name="NELECT">     64.00000000</i>
   <i type="int" name="TURBO">     0</i>
   <i type="int" name="IRESTART">     0</i>
   <i type="int" name="NREBOOT">     0</i>
   <i type="int" name="NMIN">     0</i>
   <i name="EREF">      0.00000000</i>
   <separator name="electronic smearing" >
    <i type="int" name="ISMEAR">     0</i>
    <i name="SIGMA">      0.10000000</i>
    <i name="KSPACING">      0.50000000</i>
    <i type="logical" name="KGAMMA"> T  </i>
   </separator>
   <separator name="electronic projectors" >
    <i type="logical" name="LREAL"> F  </i>
    <v name="ROPT">      0.00000000      0.00000000      0.00000000      0.00000000</v>
    <i type="int" name="LMAXPAW">  -100</i>
    <i type="int" name="LMAXMIX">     2</i>
    <i type="logical" name="NLSPLINE"> F  </i>
   </separator>
   <separator name="electronic startup" >
    <i type="int" name="ISTART">     0</i>
    <i type="int" name="ICHARG">     2</i>
    <i type="int" name="INIWAV">     1</i>
   </separator>
   <separator name="electronic spin" >
    <i type="int" name="ISPIN">     1</i>
    <i type="logical" name="LNONCOLLINEAR"> F  </i>
    <v name="MAGMOM">      1.00000000      1.00000000      1.00000000      1.00000000      1.00000000      1.00000000      1.00000000      1.00000000      1.00000000      1.00000000      1.00000000      1.00000000      1.00000000      1.00000000      1.00000000      1.00000000</v>
    <i name="NUPDOWN">     -1.00000000</i>
    <i type="logical" name="LSORBIT"> F  </i>
    <v name="SAXIS">      0.00000000      0.00000000      1.00000000</v>
    <i type="logical" name="LSPIRAL"> F  </i>
    <v name="QSPIRAL">      0.00000000      0.00000000      0.00000000</v>
    <i type="logical" name="LZEROZ"> F  </i>
   </separator>
   <separator name="electronic exchange-correlation" >
    <i type="logical" name="LASPH"> F  </i>
    <i type="logical" name="LMETAGGA"> F  </i>
   </separator>
   <separator name="electronic convergence" >
    <i type="int" name="NELM">   100</i>
    <i type="int" name="NELMDL">     0</i>
    <i type="int" name="NELMIN">     4</i>
    <i name="ENINI">    600.00000000</i>
    <separator name="electronic convergence detail" >
     <i type="logical" name="LDIAG"> T  </i>
     <i type="logical" name="LSUBROT"> F  </i>
     <i name="WEIMIN">      0.00100000</i>
     <i name="EBREAK">      0.00000001</i>
     <i name="DEPER">      0.30000000</i>
     <i type="int" name="NRMM">     4</i>
     <i name="TIME">      0.40000000</i>
    </separator>
   </separator>
   <separator name="electronic mixer" >
    <i name="AMIX">      0.40000000</i>
    <i name="BMIX">      1.00000000</i>
    <i name="AMIN">      0.10000000</i>
    <i name="AMIX_MAG">      1.60000000</i>
    <i name="BMIX_MAG">      1.00000000</i>
    <separator name="electronic mixer details" >
     <i type="int" name="IMIX">     4</i>
     <i type="int" name="MAXMIX">   -45</i>
     <i name="WC">    100.00000000</i>
     <i type="int" name="INIMIX">     1</i>
     <i type="int" name="MIXPRE">     1</i>
     <i type="int" name="MREMOVE">     5</i>
    </separator>
   </separator>
   <separator name="electronic dipolcorrection" >
    <i type="logical" name="LDIPOL"> F  </i>
    <i type="logical" name="LMONO"> F  </i>
    <i type="int" name="IDIPOL">     0</i>
    <i name="EPSILON">      1.00000000</i>
    <v name="DIPOL">   -100.00000000   -100.00000000   -100.00000000</v>
    <i name="EFIELD">      0.00000000</i>
   </separator>
  </separator>
  <separator name="grids" >
   <i type="int" name="NGX">    48</i>
   <i type="int" name="NGY">    28</i>
   <i type="int" name="NGZ">    80</i>
   <i type="int" name="NGXF">    96</i>
   <i type="int" name="NGYF">    56</i>
   <i type="int" name="NGZF">   160</i>
   <i type="logical" name="ADDGRID"> T  </i>
  </separator>
  <separator name="ionic" >
   <i type="int" name="NSW">    30</i>
   <i type="int" name="IBRION">     2</i>
   <i type="int" name="ISIF">     3</i>
   <i name="PSTRESS">      0.00000000</i>
   <i name="EDIFFG">     -0.02000000</i>
   <i type="int" name="NFREE">     1</i>
   <i name="POTIM">      0.50000000</i>
   <i name="SMASS">     -3.00000000</i>
   <i name="SCALEE">      1.00000000</i>
  </separator>
  <separator name="ionic md" >
   <i name="TEBEG">      0.00010000</i>
   <i name="TEEND">      0.00010000</i>
   <i type="int" name="NBLOCK">     1</i>
   <i type="int" name="KBLOCK">    30</i>
   <i type="int" name="NPACO">   256</i>
   <i name="APACO">     16.00000000</i>
  </separator>
  <separator name="symmetry" >
   <i type="int" name="ISYM">     2</i>
   <i name="SYMPREC">      0.00001000</i>
  </separator>
  <separator name="dos" >
   <i type="logical" name="LORBIT"> F  </i>
   <v name="RWIGS">     -1.00000000     -1.00000000     -1.00000000     -1.00000000</v>
   <i type="int" name="NEDOS">   301</i>
   <i name="EMIN">     10.00000000</i>
   <i name="EMAX">    -10.00000000</i>
   <i name="EFERMI">      0.00000000</i>
  </separator>
  <separator name="writing" >
   <i type="int" name="NWRITE">     2</i>
   <i type="logical" name="LWAVE"> F  </i>
   <i type="logical" name="LCHARG"> F  </i>
   <i type="logical" name="LPARD"> F  </i>
   <i type="logical" name="LVTOT"> F  </i>
   <i type="logical" name="LVHAR"> F  </i>
   <i type="logical" name="LELF"> F  </i>
   <i type="logical" name="LOPTICS"> F  </i>
   <v name="STM">      0.00000000      0.00000000      0.00000000      0.00000000      0.00000000      0.00000000      0.00000000</v>
  </separator>
  <separator name="performance" >
   <i type="int" name="NPAR">     4</i>
   <i type="int" name="NSIM">     4</i>
   <i type="int" name="NBLK">    -1</i>
   <i type="logical" name="LPLANE"> T  </i>
   <i type="logical" name="LSCALAPACK"> T  </i>
   <i type="logical" name="LSCAAWARE"> F  </i>
   <i type="logical" name="LSCALU"> F  </i>
   <i type="logical" name="LASYNC"> F  </i>
   <i type="logical" name="LORBITALREAL"> F  </i>
  </separator>
  <separator name="miscellaneous" >
   <i type="int" name="IDIOT">     3</i>
   <i type="logical" name="LMUSIC"> F  </i>
   <v name="POMASS">     28.08500000     26.98100000     12.01100000     14.00100000</v>
   <v name="DARWINR">      0.00000000      0.00000000      0.00000000      0.00000000</v>
   <v name="DARWINV">      1.00000000      1.00000000      1.00000000      1.00000000</v>
   <i type="logical" name="LCORR"> T  </i>
  </separator>
  <i type="logical" name="GGA_COMPAT"> T  </i>
  <i type="logical" name="LBERRY"> F  </i>
  <i type="int" name="ICORELEVEL">     0</i>
  <i type="logical" name="LDAU"> F  </i>
  <i type="int" name="I_CONSTRAINED_M">     0</i>
  <separator name="electronic exchange-correlation" >
   <i type="string" name="GGA">--</i>
   <i type="int" name="VOSKOWN">     0</i>
   <i type="logical" name="LHFCALC"> F  </i>
   <i type="string" name="PRECFOCK"></i>
   <i type="logical" name="LSYMGRAD"> F  </i>
   <i type="logical" name="LHFONE"> F  </i>
   <i type="logical" name="LRHFCALC"> F  </i>
   <i type="logical" name="LTHOMAS"> F  </i>
   <i type="logical" name="LMODELHF"> F  </i>
   <i name="ENCUT4O">     -1.00000000</i>
   <i type="int" name="EXXOEP">     0</i>
   <i type="int" name="FOURORBIT">     0</i>
   <i name="AEXX">      0.00000000</i>
   <i name="HFALPHA">      0.00000000</i>
   <i name="MCALPHA">      0.00000000</i>
   <i name="ALDAX">      1.00000000</i>
   <i name="AGGAX">      1.00000000</i>
   <i name="ALDAC">      1.00000000</i>
   <i name="AGGAC">      1.00000000</i>
   <i type="int" name="NKREDX">     1</i>
   <i type="int" name="NKREDY">     1</i>
   <i type="int" name="NKREDZ">     1</i>
   <i type="logical" name="SHIFTRED"> F  </i>
   <i type="logical" name="ODDONLY"> F  </i>
   <i type="logical" name="EVENONLY"> F  </i>
   <i type="int" name="LMAXFOCK">     0</i>
   <i type="int" name="NMAXFOCKAE">     0</i>
   <i type="logical" name="LFOCKAEDFT"> F  </i>
   <i name="HFSCREEN">      0.00000000</i>
   <i name="HFSCREENC">      0.00000000</i>
   <i type="int" name="NBANDSGWLOW">     0</i>
  </separator>
  <separator name="vdW DFT" >
   <i type="logical" name="LUSE_VDW"> F  </i>
   <i name="Zab_VDW">     -0.84910000</i>
   <i name="PARAM1">      0.12340000</i>
   <i name="PARAM2">      1.00000000</i>
   <i name="PARAM3">      0.00000000</i>
  </separator>
  <separator name="model GW" >
   <i type="int" name="MODEL_GW">     0</i>
   <i name="MODEL_EPS0">      6.41288853</i>
   <i name="MODEL_ALPHA">      1.00000000</i>
  </separator>
  <separator name="linear response parameters" >
   <i type="logical" name="LEPSILON"> F  </i>
   <i type="logical" name="LRPA"> F  </i>
   <i type="logical" name="LNABLA"> F  </i>
   <i type="logical" name="LVEL"> F  </i>
   <i type="int" name="KINTER">     0</i>
   <i name="CSHIFT">      0.10000000</i>
   <i name="OMEGAMAX">     -1.00000000</i>
   <i name="DEG_THRESHOLD">      0.00200000</i>
  </separator>
  <separator name="orbital magnetization" >
   <i type="logical" name="NUCIND"> F  </i>
   <v name="MAGPOS">      0.00000000      0.00000000      0.00000000</v>
   <i type="logical" name="LNICSALL"> T  </i>
   <i type="logical" name="ORBITALMAG"> F  </i>
   <i type="logical" name="LMAGBLOCH"> F  </i>
   <i type="logical" name="LCHIMAG"> F  </i>
   <i type="logical" name="LGAUGE"> T  </i>
   <i type="int" name="MAGATOM">     0</i>
   <v name="MAGDIPOL">      0.00000000      0.00000000      0.00000000</v>
   <v name="AVECCONST">      0.00000000      0.00000000      0.00000000</v>
  </separator>
  <separator name="response functions" >
   <i type="logical" name="LADDER"> F  </i>
   <i type="logical" name="LFXC"> F  </i>
   <i type="logical" name="LHARTREE"> T  </i>
   <i type="int" name="IBSE">     0</i>
   <i type="logical" name="LTCTE"> F  </i>
   <i type="logical" name="LTETE"> F  </i>
   <i type="logical" name="LTRIPLET"> F  </i>
   <i type="logical" name="LFXCEPS"> F  </i>
   <i type="logical" name="LFXHEG"> F  </i>
   <i type="logical" name="L2ORDER"> F  </i>
   <i type="logical" name="LUSEW"> F  </i>
   <i name="ENCUTGW">     -2.00000000</i>
   <i name="ENCUTGWSOFT">     -2.00000000</i>
   <i name="ENCUTLF">     -1.00000000</i>
   <i type="int" name="LMAXMP2">    -1</i>
   <i name="SCISSOR">      0.00000000</i>
   <i type="int" name="NOMEGA">     0</i>
   <i type="int" name="NOMEGAR">     0</i>
   <i type="int" name="NBANDSGW">    -1</i>
   <i type="int" name="NBANDSO">    -1</i>
   <i type="int" name="NBANDSV">    -1</i>
   <i type="int" name="NELM">   100</i>
   <i type="int" name="DIM">     3</i>
   <i type="int" name="ANTIRES">     0</i>
   <i name="OMEGAMAX">    -30.00000000</i>
   <i name="OMEGAMIN">    -30.00000000</i>
   <i name="OMEGATL">   -200.00000000</i>
   <i type="int" name="OMEGAGRID">     0</i>
   <i name="CSHIFT">     -0.10000000</i>
   <i type="logical" name="SELFENERGY"> F  </i>
   <i type="logical" name="LSPECTRAL"> F  </i>
   <i type="logical" name="ODDONLYGW"> F  </i>
   <i type="logical" name="EVENONLYGW"> F  </i>
   <i type="int" name="NKREDLFX">     1</i>
   <i type="int" name="NKREDLFY">     1</i>
   <i type="int" name="NKREDLFZ">     1</i>
   <i type="int" name="MAXMEM">  1800</i>
   <i type="int" name="TELESCOPE">     0</i>
   <i type="int" name="TAUPAR">     1</i>
  </separator>
  <separator name="External order field" >
   <i name="OFIELD_KAPPA">      0.00000000</i>
   <v name="OFIELD_K">      0.00000000      0.00000000      0.00000000</v>
   <i name="OFIELD_Q6_NEAR">      0.00000000</i>
   <i name="OFIELD_Q6_FAR">      0.00000000</i>
   <i name="OFIELD_A">      0.00000000</i>
  </separator>
 </parameters>
 <atominfo>
  <atoms>      16 </atoms>
  <types>       4 </types>
  <array name="atoms" >
   <dimension dim="1">ion</dimension>
   <field type="string">element</field>
   <field type="int">atomtype</field>
   <set>
    <rc><c>Si</c><c>   1</c></rc>
    <rc><c>Si</c><c>   1</c></rc>
    <rc><c>Si</c><c>   1</c></rc>
    <rc><c>Si</c><c>   1</c></rc>
    <rc><c>Al</c><c>   2</c></rc>
    <rc><c>Al</c><c>   2</c></rc>
    <rc><c>Al</c><c>   2</c></rc>
    <rc><c>Al</c><c>   2</c></rc>
    <rc><c>C </c><c>   3</c></rc>
    <rc><c>C </c><c>   3</c></rc>
    <rc><c>C </c><c>   3</c></rc>
    <rc><c>C </c><c>   3</c></rc>
    <rc><c>N </c><c>   4</c></rc>
    <rc><c>N </c><c>   4</c></rc>
    <rc><c>N </c><c>   4</c></rc>
    <rc><c>N </c><c>   4</c></rc>
   </set>
  </array>
  <array name="atomtypes" >
   <dimension dim="1">type</dimension>
   <field type="int">atomspertype</field>
   <field type="string">element</field>
   <field>mass</field>
   <field>valence</field>
   <field type="string">pseudopotential</field>
   <set>
    <rc><c>   4</c><c>Si</c><c>     28.08500000</c><c>      4.00000000</c><c>  PAW_PBE Si 05Jan2001                  </c></rc>
    <rc><c>   4</c><c>Al</c><c>     26.98100000</c><c>      3.00000000</c><c>  PAW_PBE Al 04Jan2001                  </c></rc>
    <rc><c>   4</c><c>C </c><c>     12.01100000</c><c>      4.00000000</c><c>  PAW_PBE C 08Apr2002                   </c></rc>
    <rc><c>   4</c><c>N </c><c>     14.00100000</c><c>      5.00000000</c><c>  PAW_PBE N_s 07Sep2000                 </c></rc>
   </set>
  </array>
 </atominfo>
 <structure name="initialpos" >
  <crystal>
   <varray name="basis" >
    <v>       5.42903083       0.00000000      -0.03378084 </v>
    <v>       0.00000000       3.14153504       0.00000000 </v>
    <v>      -0.06307892       0.00000000      10.02709678 </v>
   </varray>
   <i name="volume">    171.01036081 </i>
   <varray name="rec_basis" >
    <v>       0.18420215       0.00000000       0.00115879 </v>
    <v>       0.00000000       0.31831572       0.00000000 </v>
    <v>       0.00062057       0.00000000       0.09973367 </v>
   </varray>
  </crystal>
  <varray name="positions" >
   <v>       0.32545531       0.00000000       0.50919538 </v>
   <v>       0.84368701       0.50000000       0.50448206 </v>
   <v>       0.65743039       0.00000000       0.23802497 </v>
   <v>       0.16061338       0.50000000       0.74718597 </v>
   <v>       0.33801716       0.00000000       0.98583183 </v>
   <v>       0.83529877       0.50000000       0.99079916 </v>
   <v>       0.17107940       0.50000000       0.24914153 </v>
   <v>       0.67082014       0.00000000       0.75648862 </v>
   <v>       0.32254779       0.00000000       0.69200373 </v>
   <v>       0.83945227       0.50000000       0.68153731 </v>
   <v>       0.17304067       0.50000000       0.44207261 </v>
   <v>       0.67352927       0.00000000       0.95131263 </v>
   <v>       0.34002472       0.00000000       0.18847414 </v>
   <v>       0.81882119       0.50000000       0.20211000 </v>
   <v>       0.66382860       0.00000000       0.42949926 </v>
   <v>       0.16635394       0.50000000       0.93184081 </v>
  </varray>
 </structure>
 <calculation>
  <scstep>
   <time name="dav">    0.53    0.53</time>
   <time name="total">    0.58    0.59</time>
   <energy>
    <i name="alphaZ">     63.60196986 </i>
    <i name="ewald">  -2270.97707736 </i>
    <i name="hartreedc">   -357.99062622 </i>
    <i name="XCdc">     -5.82607932 </i>
    <i name="pawpsdc">   1871.13760811 </i>
    <i name="pawaedc">  -1679.96522576 </i>
    <i name="eentropy">     -0.01302012 </i>
    <i name="bandstr">    440.32494300 </i>
    <i name="atom">   2273.20978491 </i>
    <i name="e_fr_energy">    333.50227709 </i>
    <i name="e_wo_entrp">    333.51529721 </i>
    <i name="e_0_energy">    333.50878715 </i>
   </energy>
  </scstep>
  <scstep>
   <time name="dav">    0.60    0.60</time>
   <time name="total">    0.60    0.61</time>
   <energy>
    <i name="e_fr_energy">   -100.91345522 </i>
    <i name="e_wo_entrp">   -100.91345522 </i>
    <i name="e_0_energy">   -100.91345522 </i>
   </energy>
  </scstep>
  <scstep>
   <time name="dav">    0.64    0.64</time>
   <time name="total">    0.64    0.66</time>
   <energy>
    <i name="e_fr_energy">   -133.50386261 </i>
    <i name="e_wo_entrp">   -133.50386261 </i>
    <i name="e_0_energy">   -133.50386261 </i>
   </energy>
  </scstep>
  <scstep>
   <time name="dav">    0.62    0.62</time>
   <time name="total">    0.62    0.63</time>
   <energy>
    <i name="e_fr_energy">   -134.34989169 </i>
    <i name="e_wo_entrp">   -134.34989169 </i>
    <i name="e_0_energy">   -134.34989169 </i>
   </energy>
  </scstep>
  <scstep>
   <time name="dav">    0.61    0.61</time>
   <time name="total">    0.69    0.70</time>
   <energy>
    <i name="e_fr_energy">   -134.37602998 </i>
    <i name="e_wo_entrp">   -134.37602998 </i>
    <i name="e_0_energy">   -134.37602998 </i>
   </energy>
  </scstep>
  <scstep>
   <time name="diag">    0.13    0.13</time>
   <time name="diis">    0.33    0.33</time>
   <time name="orth">    0.02    0.02</time>
   <time name="total">    0.59    0.61</time>
   <energy>
    <i name="e_fr_energy">   -115.64219149 </i>
    <i name="e_wo_entrp">   -115.64219149 </i>
    <i name="e_0_energy">   -115.64219149 </i>
   </energy>
  </scstep>
  <scstep>
   <time name="diag">    0.13    0.13</time>
   <time name="diis">    0.36    0.36</time>
   <time name="orth">    0.02    0.02</time>
   <time name="total">    0.63    0.64</time>
   <energy>
    <i name="e_fr_energy">   -115.32000023 </i>
    <i name="e_wo_entrp">   -115.32000023 </i>
    <i name="e_0_energy">   -115.32000023 </i>
   </energy>
  </scstep>
  <scstep>
   <time name="diag">    0.13    0.13</time>
   <time name="diis">    0.33    0.33</time>
   <time name="orth">    0.02    0.02</time>
   <time name="total">    0.59    0.61</time>
   <energy>
    <i name="e_fr_energy">   -115.69177190 </i>
    <i name="e_wo_entrp">   -115.69177190 </i>
    <i name="e_0_energy">   -115.69177190 </i>
   </energy>
  </scstep>
  <scstep>
   <time name="diag">    0.13    0.13</time>
   <time name="diis">    0.33    0.33</time>
   <time name="orth">    0.02    0.02</time>
   <time name="total">    0.60    0.61</time>
   <energy>
    <i name="e_fr_energy">   -115.10729562 </i>
    <i name="e_wo_entrp">   -115.10729561 </i>
    <i name="e_0_energy">   -115.10729562 </i>
   </energy>
  </scstep>
  <scstep>
   <time name="diag">    0.13    0.13</time>
   <time name="diis">    0.35    0.35</time>
   <time name="orth">    0.02    0.02</time>
   <time name="total">    0.62    0.63</time>
   <energy>
    <i name="e_fr_energy">   -115.11151844 </i>
    <i name="e_wo_entrp">   -115.11151844 </i>
    <i name="e_0_energy">   -115.11151844 </i>
   </energy>
  </scstep>
  <scstep>
   <time name="diag">    0.13    0.13</time>
   <time name="diis">    0.33    0.33</time>
   <time name="orth">    0.02    0.02</time>
   <time name="total">    0.59    0.61</time>
   <energy>
    <i name="e_fr_energy">   -115.11311311 </i>
    <i name="e_wo_entrp">   -115.11311311 </i>
    <i name="e_0_energy">   -115.11311311 </i>
   </energy>
  </scstep>
  <scstep>
   <time name="diag">    0.13    0.13</time>
   <time name="diis">    0.33    0.33</time>
   <time name="orth">    0.02    0.02</time>
   <time name="total">    0.66    0.67</time>
   <energy>
    <i name="e_fr_energy">   -115.11299648 </i>
    <i name="e_wo_entrp">   -115.11299648 </i>
    <i name="e_0_energy">   -115.11299648 </i>
   </energy>
  </scstep>
  <scstep>
   <time name="diag">    0.13    0.13</time>
   <time name="diis">    0.34    0.34</time>
   <time name="orth">    0.02    0.02</time>
   <time name="total">    0.61    0.62</time>
   <energy>
    <i name="e_fr_energy">   -115.11299205 </i>
    <i name="e_wo_entrp">   -115.11299205 </i>
    <i name="e_0_energy">   -115.11299205 </i>
   </energy>
  </scstep>
  <scstep>
   <time name="diag">    0.13    0.13</time>
   <time name="diis">    0.33    0.33</time>
   <time name="orth">    0.02    0.02</time>
   <time name="total">    0.59    0.61</time>
   <energy>
    <i name="e_fr_energy">   -115.11297638 </i>
    <i name="e_wo_entrp">   -115.11297638 </i>
    <i name="e_0_energy">   -115.11297638 </i>
   </energy>
  </scstep>
  <scstep>
   <time name="diag">    0.14    0.14</time>
   <time name="diis">    0.30    0.30</time>
   <time name="orth">    0.02    0.02</time>
   <time name="total">    0.57    0.59</time>
   <energy>
    <i name="e_fr_energy">   -115.11297826 </i>
    <i name="e_wo_entrp">   -115.11297826 </i>
    <i name="e_0_energy">   -115.11297826 </i>
   </energy>
  </scstep>
  <scstep>
   <time name="diag">    0.13    0.13</time>
   <time name="diis">    0.23    0.23</time>
   <time name="orth">    0.02    0.02</time>
   <time name="total">    0.42    0.43</time>
   <energy>
    <i name="alphaZ">     63.60196986 </i>
    <i name="ewald">  -2270.97707736 </i>
    <i name="hartreedc">   -462.91876672 </i>
    <i name="XCdc">      3.67324811 </i>
    <i name="pawpsdc">   9760.34273849 </i>
    <i name="pawaedc">  -9573.25981882 </i>
    <i name="eentropy">      0.00000000 </i>
    <i name="bandstr">     91.21494330 </i>
    <i name="atom">   2273.20978491 </i>
    <i name="e_fr_energy">   -115.11297823 </i>
    <i name="e_wo_entrp">   -115.11297823 </i>
    <i name="e_0_energy">   -115.11297823 </i>
   </energy>
  </scstep>
  <structure>
   <crystal>
    <varray name="basis" >
     <v>       5.42903083       0.00000000      -0.03378084 </v>
     <v>       0.00000000       3.14153504       0.00000000 </v>
     <v>      -0.06307892       0.00000000      10.02709678 </v>
    </varray>
    <i name="volume">    171.01036081 </i>
    <varray name="rec_basis" >
     <v>       0.18420215       0.00000000       0.00115879 </v>
     <v>       0.00000000       0.31831572       0.00000000 </v>
     <v>       0.00062057       0.00000000       0.09973367 </v>
    </varray>
   </crystal>
   <varray name="positions" >
    <v>       0.32545531       0.00000000       0.50919538 </v>
    <v>       0.84368701       0.50000000       0.50448206 </v>
    <v>       0.65743039       0.00000000       0.23802497 </v>
    <v>       0.16061338       0.50000000       0.74718597 </v>
    <v>       0.33801716       0.00000000       0.98583183 </v>
    <v>       0.83529877       0.50000000       0.99079916 </v>
    <v>       0.17107940       0.50000000       0.24914153 </v>
    <v>       0.67082014       0.00000000       0.75648862 </v>
    <v>       0.32254779       0.00000000       0.69200373 </v>
    <v>       0.83945227       0.50000000       0.68153731 </v>
    <v>       0.17304067       0.50000000       0.44207261 </v>
    <v>       0.67352927       0.00000000       0.95131263 </v>
    <v>       0.34002472       0.00000000       0.18847414 </v>
    <v>       0.81882119       0.50000000       0.20211000 </v>
    <v>       0.66382860       0.00000000       0.42949926 </v>
    <v>       0.16635394       0.50000000       0.93184081 </v>
   </varray>
  </structure>
  <varray name="forces" >
   <v>       0.00181615       0.00000000      -0.00301744 </v>
   <v>      -0.01155908       0.00000000       0.01521685 </v>
   <v>      -0.00489826       0.00000000      -0.00892641 </v>
   <v>      -0.00152775       0.00000000       0.00599325 </v>
   <v>      -0.00486709       0.00000000       0.01059721 </v>
   <v>       0.00854218       0.00000000      -0.01358246 </v>
   <v>       0.00404452       0.00000000      -0.00502227 </v>
   <v>       0.01302397       0.00000000      -0.00115723 </v>
   <v>      -0.00444334       0.00000000       0.00329495 </v>
   <v>       0.00609910       0.00000000      -0.00079390 </v>
   <v>      -0.00043238       0.00000000      -0.00860862 </v>
   <v>      -0.00640580       0.00000000       0.01446836 </v>
   <v>      -0.00231649       0.00000000      -0.00886769 </v>
   <v>       0.00140360       0.00000000      -0.00409923 </v>
   <v>      -0.00226381       0.00000000       0.00296311 </v>
   <v>       0.00378450       0.00000000       0.00154152 </v>
  </varray>
  <varray name="stress" >
   <v>      -0.07157742       0.00000000       0.19880574 </v>
   <v>       0.00000000      -0.13080635       0.00000000 </v>
   <v>       0.19880591       0.00000000      -0.23969409 </v>
  </varray>
  <energy>
   <i name="e_fr_energy">   -115.11297823 </i>
   <i name="e_wo_entrp">   -115.11297823 </i>
   <i name="e_0_energy">      0.00000000 </i>
  </energy>
  <time name="totalsc">   10.91   11.16</time>
  <eigenvalues>
   <array>
    <dimension dim="1">band</dimension>
    <dimension dim="2">kpoint</dimension>
    <dimension dim="3">spin</dimension>
    <field>eigene</field>
    <field>occ</field>
    <set>
     <set comment="spin 1">
      <set comment="kpoint 1">
       <r>   -9.9866    1.0000 </r>
       <r>   -8.5699    1.0000 </r>
       <r>   -7.8121    1.0000 </r>
       <r>   -7.4368    1.0000 </r>
       <r>   -5.6367    1.0000 </r>
       <r>   -4.0833    1.0000 </r>
       <r>   -2.9726    1.0000 </r>
       <r>   -2.2004    1.0000 </r>
       <r>   -0.9771    1.0000 </r>
       <r>   -0.4727    1.0000 </r>
       <r>   -0.0540    1.0000 </r>
       <r>    1.4990    1.0000 </r>
       <r>    1.8830    1.0000 </r>
       <r>    2.3563    1.0000 </r>
       <r>    2.3853    1.0000 </r>
       <r>    3.4147    1.0000 </r>
       <r>    3.5406    1.0000 </r>
       <r>    3.7740    1.0000 </r>
       <r>    4.1539    1.0000 </r>
       <r>    4.5236    1.0000 </r>
       <r>    4.5770    1.0000 </r>
       <r>    5.1227    1.0000 </r>
       <r>    5.1538    1.0000 </r>
       <r>    5.3249    1.0000 </r>
       <r>    5.7043    1.0000 </r>
       <r>    5.8488    1.0000 </r>
       <r>    6.7553    1.0000 </r>
       <r>    7.4978    1.0000 </r>
       <r>    7.7149    1.0000 </r>
       <r>    8.2456    1.0000 </r>
       <r>    8.2580    1.0000 </r>
       <r>    8.7066    1.0000 </r>
       <r>    9.5013    0.0000 </r>
       <r>    9.7520    0.0000 </r>
       <r>   10.8229    0.0000 </r>
       <r>   11.1872    0.0000 </r>
       <r>   11.9750    0.0000 </r>
       <r>   12.4288    0.0000 </r>
       <r>   13.1018    0.0000 </r>
       <r>   13.6518    0.0000 </r>
       <r>   14.1366    0.0000 </r>
       <r>   14.3658    0.0000 </r>
       <r>   14.8683    0.0000 </r>
       <r>   14.9703    0.0000 </r>
      </set>
      <set comment="kpoint 2">
       <r>   -9.8744    1.0000 </r>
       <r>   -8.4902    1.0000 </r>
       <r>   -8.0530    1.0000 </r>
       <r>   -7.3980    1.0000 </r>
       <r>   -5.8103    1.0000 </r>
       <r>   -4.1211    1.0000 </r>
       <r>   -3.2834    1.0000 </r>
       <r>   -2.2671    1.0000 </r>
       <r>   -0.6017    1.0000 </r>
       <r>    0.0833    1.0000 </r>
       <r>    0.3853    1.0000 </r>
       <r>    1.3813    1.0000 </r>
       <r>    2.1761    1.0000 </r>
       <r>    2.4069    1.0000 </r>
       <r>    2.7245    1.0000 </r>
       <r>    3.0607    1.0000 </r>
       <r>    3.5653    1.0000 </r>
       <r>    3.8420    1.0000 </r>
       <r>    3.8516    1.0000 </r>
       <r>    4.4248    1.0000 </r>
       <r>    4.4269    1.0000 </r>
       <r>    4.7697    1.0000 </r>
       <r>    5.1723    1.0000 </r>
       <r>    5.2509    1.0000 </r>
       <r>    5.5781    1.0000 </r>
       <r>    5.9501    1.0000 </r>
       <r>    6.7054    1.0000 </r>
       <r>    6.7969    1.0000 </r>
       <r>    7.4049    1.0000 </r>
       <r>    7.5957    1.0000 </r>
       <r>    8.0900    1.0000 </r>
       <r>    8.6632    1.0000 </r>
       <r>    9.8067    0.0000 </r>
       <r>   10.3133    0.0000 </r>
       <r>   11.2790    0.0000 </r>
       <r>   11.6630    0.0000 </r>
       <r>   12.3527    0.0000 </r>
       <r>   12.6741    0.0000 </r>
       <r>   13.2603    0.0000 </r>
       <r>   13.4920    0.0000 </r>
       <r>   14.1346    0.0000 </r>
       <r>   14.4700    0.0000 </r>
       <r>   14.6945    0.0000 </r>
       <r>   15.2664    0.0000 </r>
      </set>
      <set comment="kpoint 3">
       <r>   -9.7331    1.0000 </r>
       <r>   -8.3782    1.0000 </r>
       <r>   -8.3373    1.0000 </r>
       <r>   -7.3546    1.0000 </r>
       <r>   -6.0093    1.0000 </r>
       <r>   -3.9007    1.0000 </r>
       <r>   -3.7945    1.0000 </r>
       <r>   -2.3560    1.0000 </r>
       <r>   -0.0885    1.0000 </r>
       <r>    0.6443    1.0000 </r>
       <r>    1.1644    1.0000 </r>
       <r>    1.6327    1.0000 </r>
       <r>    1.8832    1.0000 </r>
       <r>    2.0283    1.0000 </r>
       <r>    2.4620    1.0000 </r>
       <r>    3.4460    1.0000 </r>
       <r>    3.4598    1.0000 </r>
       <r>    3.8420    1.0000 </r>
       <r>    3.9410    1.0000 </r>
       <r>    4.1185    1.0000 </r>
       <r>    4.3250    1.0000 </r>
       <r>    4.8857    1.0000 </r>
       <r>    5.1687    1.0000 </r>
       <r>    5.1703    1.0000 </r>
       <r>    5.4600    1.0000 </r>
       <r>    5.5464    1.0000 </r>
       <r>    6.0838    1.0000 </r>
       <r>    6.8571    1.0000 </r>
       <r>    6.8925    1.0000 </r>
       <r>    7.2972    1.0000 </r>
       <r>    7.9200    1.0000 </r>
       <r>    8.6097    1.0000 </r>
       <r>   10.2101    0.0000 </r>
       <r>   11.0094    0.0000 </r>
       <r>   11.4718    0.0000 </r>
       <r>   12.1818    0.0000 </r>
       <r>   12.3744    0.0000 </r>
       <r>   12.5546    0.0000 </r>
       <r>   13.5045    0.0000 </r>
       <r>   13.9498    0.0000 </r>
       <r>   14.1596    0.0000 </r>
       <r>   14.2771    0.0000 </r>
       <r>   14.4852    0.0000 </r>
       <r>   15.0155    0.0000 </r>
      </set>
      <set comment="kpoint 4">
       <r>   -9.7256    1.0000 </r>
       <r>   -8.3738    1.0000 </r>
       <r>   -7.6950    1.0000 </r>
       <r>   -7.2731    1.0000 </r>
       <r>   -5.3974    1.0000 </r>
       <r>   -3.8370    1.0000 </r>
       <r>   -2.8070    1.0000 </r>
       <r>   -1.9924    1.0000 </r>
       <r>   -0.8055    1.0000 </r>
       <r>   -0.2563    1.0000 </r>
       <r>    0.2123    1.0000 </r>
       <r>    1.0801    1.0000 </r>
       <r>    1.7529    1.0000 </r>
       <r>    2.1855    1.0000 </r>
       <r>    2.4933    1.0000 </r>
       <r>    2.6425    1.0000 </r>
       <r>    3.1595    1.0000 </r>
       <r>    3.5077    1.0000 </r>
       <r>    3.6445    1.0000 </r>
       <r>    3.7369    1.0000 </r>
       <r>    4.0900    1.0000 </r>
       <r>    4.5508    1.0000 </r>
       <r>    4.9322    1.0000 </r>
       <r>    5.1046    1.0000 </r>
       <r>    5.4006    1.0000 </r>
       <r>    5.5947    1.0000 </r>
       <r>    5.8946    1.0000 </r>
       <r>    6.9585    1.0000 </r>
       <r>    7.2804    1.0000 </r>
       <r>    7.5919    1.0000 </r>
       <r>    7.7261    1.0000 </r>
       <r>    8.0662    1.0000 </r>
       <r>   10.5980    0.0000 </r>
       <r>   10.9013    0.0000 </r>
       <r>   11.0368    0.0000 </r>
       <r>   12.4847    0.0000 </r>
       <r>   12.6622    0.0000 </r>
       <r>   12.8404    0.0000 </r>
       <r>   13.1455    0.0000 </r>
       <r>   13.5696    0.0000 </r>
       <r>   14.0767    0.0000 </r>
       <r>   14.2630    0.0000 </r>
       <r>   14.6315    0.0000 </r>
       <r>   14.8586    0.0000 </r>
      </set>
      <set comment="kpoint 5">
       <r>   -9.6193    1.0000 </r>
       <r>   -8.3062    1.0000 </r>
       <r>   -7.9137    1.0000 </r>
       <r>   -7.2297    1.0000 </r>
       <r>   -5.5386    1.0000 </r>
       <r>   -3.8673    1.0000 </r>
       <r>   -3.0825    1.0000 </r>
       <r>   -2.0792    1.0000 </r>
       <r>   -0.4983    1.0000 </r>
       <r>    0.2531    1.0000 </r>
       <r>    0.4585    1.0000 </r>
       <r>    1.2130    1.0000 </r>
       <r>    1.6717    1.0000 </r>
       <r>    2.1760    1.0000 </r>
       <r>    2.5948    1.0000 </r>
       <r>    2.7329    1.0000 </r>
       <r>    2.9406    1.0000 </r>
       <r>    3.3517    1.0000 </r>
       <r>    3.7341    1.0000 </r>
       <r>    3.8668    1.0000 </r>
       <r>    4.1255    1.0000 </r>
       <r>    4.4843    1.0000 </r>
       <r>    4.8411    1.0000 </r>
       <r>    4.9546    1.0000 </r>
       <r>    5.3806    1.0000 </r>
       <r>    5.6564    1.0000 </r>
       <r>    5.9587    1.0000 </r>
       <r>    6.4555    1.0000 </r>
       <r>    6.9873    1.0000 </r>
       <r>    7.4723    1.0000 </r>
       <r>    7.5440    1.0000 </r>
       <r>    8.0256    1.0000 </r>
       <r>   10.9289    0.0000 </r>
       <r>   11.1775    0.0000 </r>
       <r>   11.4208    0.0000 </r>
       <r>   12.2219    0.0000 </r>
       <r>   12.8122    0.0000 </r>
       <r>   13.0046    0.0000 </r>
       <r>   13.0583    0.0000 </r>
       <r>   13.3343    0.0000 </r>
       <r>   14.0780    0.0000 </r>
       <r>   14.4593    0.0000 </r>
       <r>   14.8820    0.0000 </r>
       <r>   15.0015    0.0000 </r>
      </set>
      <set comment="kpoint 6">
       <r>   -9.4862    1.0000 </r>
       <r>   -8.2205    1.0000 </r>
       <r>   -8.1604    1.0000 </r>
       <r>   -7.1882    1.0000 </r>
       <r>   -5.7014    1.0000 </r>
       <r>   -3.6637    1.0000 </r>
       <r>   -3.5497    1.0000 </r>
       <r>   -2.1577    1.0000 </r>
       <r>   -0.1473    1.0000 </r>
       <r>    0.8742    1.0000 </r>
       <r>    0.9296    1.0000 </r>
       <r>    1.3171    1.0000 </r>
       <r>    1.4864    1.0000 </r>
       <r>    1.6488    1.0000 </r>
       <r>    2.3697    1.0000 </r>
       <r>    3.1087    1.0000 </r>
       <r>    3.3233    1.0000 </r>
       <r>    3.4248    1.0000 </r>
       <r>    3.5923    1.0000 </r>
       <r>    3.9125    1.0000 </r>
       <r>    4.0963    1.0000 </r>
       <r>    4.3113    1.0000 </r>
       <r>    4.8037    1.0000 </r>
       <r>    4.8749    1.0000 </r>
       <r>    5.2113    1.0000 </r>
       <r>    5.3774    1.0000 </r>
       <r>    6.1502    1.0000 </r>
       <r>    6.4144    1.0000 </r>
       <r>    6.7269    1.0000 </r>
       <r>    7.2464    1.0000 </r>
       <r>    7.3159    1.0000 </r>
       <r>    7.6640    1.0000 </r>
       <r>   11.4512    0.0000 </r>
       <r>   11.9004    0.0000 </r>
       <r>   12.0419    0.0000 </r>
       <r>   12.1253    0.0000 </r>
       <r>   12.5724    0.0000 </r>
       <r>   12.8919    0.0000 </r>
       <r>   13.0147    0.0000 </r>
       <r>   13.4961    0.0000 </r>
       <r>   14.1077    0.0000 </r>
       <r>   14.2733    0.0000 </r>
       <r>   14.4622    0.0000 </r>
       <r>   14.7210    0.0000 </r>
      </set>
      <set comment="kpoint 7">
       <r>   -9.0239    1.0000 </r>
       <r>   -7.9566    1.0000 </r>
       <r>   -7.5605    1.0000 </r>
       <r>   -6.8714    1.0000 </r>
       <r>   -4.7713    1.0000 </r>
       <r>   -3.2668    1.0000 </r>
       <r>   -2.5888    1.0000 </r>
       <r>   -1.6065    1.0000 </r>
       <r>   -0.9358    1.0000 </r>
       <r>    0.0892    1.0000 </r>
       <r>    0.2992    1.0000 </r>
       <r>    0.7607    1.0000 </r>
       <r>    1.3686    1.0000 </r>
       <r>    1.6495    1.0000 </r>
       <r>    1.6785    1.0000 </r>
       <r>    2.3638    1.0000 </r>
       <r>    2.5941    1.0000 </r>
       <r>    2.7365    1.0000 </r>
       <r>    2.9557    1.0000 </r>
       <r>    3.2131    1.0000 </r>
       <r>    3.6413    1.0000 </r>
       <r>    3.8983    1.0000 </r>
       <r>    4.0916    1.0000 </r>
       <r>    4.4952    1.0000 </r>
       <r>    4.9744    1.0000 </r>
       <r>    5.1752    1.0000 </r>
       <r>    5.4815    1.0000 </r>
       <r>    5.7978    1.0000 </r>
       <r>    6.0705    1.0000 </r>
       <r>    6.6594    1.0000 </r>
       <r>    7.2963    1.0000 </r>
       <r>    7.5491    1.0000 </r>
       <r>   10.4849    0.0000 </r>
       <r>   12.0519    0.0000 </r>
       <r>   12.1300    0.0000 </r>
       <r>   12.3514    0.0000 </r>
       <r>   12.8838    0.0000 </r>
       <r>   13.2826    0.0000 </r>
       <r>   13.2988    0.0000 </r>
       <r>   13.5411    0.0000 </r>
       <r>   13.7863    0.0000 </r>
       <r>   14.0506    0.0000 </r>
       <r>   14.2973    0.0000 </r>
       <r>   14.8945    0.0000 </r>
      </set>
      <set comment="kpoint 8">
       <r>   -8.9409    1.0000 </r>
       <r>   -7.9376    1.0000 </r>
       <r>   -7.6619    1.0000 </r>
       <r>   -6.8448    1.0000 </r>
       <r>   -4.8024    1.0000 </r>
       <r>   -3.2471    1.0000 </r>
       <r>   -2.7650    1.0000 </r>
       <r>   -1.7419    1.0000 </r>
       <r>   -0.9609    1.0000 </r>
       <r>   -0.1007    1.0000 </r>
       <r>    0.5231    1.0000 </r>
       <r>    0.6686    1.0000 </r>
       <r>    1.2306    1.0000 </r>
       <r>    1.6131    1.0000 </r>
       <r>    1.9784    1.0000 </r>
       <r>    2.3149    1.0000 </r>
       <r>    2.4526    1.0000 </r>
       <r>    2.7731    1.0000 </r>
       <r>    3.0833    1.0000 </r>
       <r>    3.3866    1.0000 </r>
       <r>    3.7584    1.0000 </r>
       <r>    4.1684    1.0000 </r>
       <r>    4.3954    1.0000 </r>
       <r>    4.5920    1.0000 </r>
       <r>    4.8623    1.0000 </r>
       <r>    5.2602    1.0000 </r>
       <r>    5.5207    1.0000 </r>
       <r>    5.7998    1.0000 </r>
       <r>    6.3949    1.0000 </r>
       <r>    6.7318    1.0000 </r>
       <r>    7.3555    1.0000 </r>
       <r>    7.6373    1.0000 </r>
       <r>   10.5616    0.0000 </r>
       <r>   11.0987    0.0000 </r>
       <r>   11.3399    0.0000 </r>
       <r>   11.9829    0.0000 </r>
       <r>   12.5155    0.0000 </r>
       <r>   12.7030    0.0000 </r>
       <r>   13.2580    0.0000 </r>
       <r>   13.4778    0.0000 </r>
       <r>   13.9554    0.0000 </r>
       <r>   14.2618    0.0000 </r>
       <r>   14.5955    0.0000 </r>
       <r>   15.1119    0.0000 </r>
      </set>
      <set comment="kpoint 9">
       <r>   -8.8396    1.0000 </r>
       <r>   -7.9499    1.0000 </r>
       <r>   -7.7479    1.0000 </r>
       <r>   -6.8192    1.0000 </r>
       <r>   -4.8408    1.0000 </r>
       <r>   -3.1768    1.0000 </r>
       <r>   -2.9588    1.0000 </r>
       <r>   -1.8758    1.0000 </r>
       <r>   -0.9507    1.0000 </r>
       <r>   -0.1267    1.0000 </r>
       <r>    0.3465    1.0000 </r>
       <r>    0.5052    1.0000 </r>
       <r>    1.3598    1.0000 </r>
       <r>    1.5067    1.0000 </r>
       <r>    2.0403    1.0000 </r>
       <r>    2.4797    1.0000 </r>
       <r>    2.5606    1.0000 </r>
       <r>    2.9352    1.0000 </r>
       <r>    3.2689    1.0000 </r>
       <r>    3.5895    1.0000 </r>
       <r>    3.8396    1.0000 </r>
       <r>    4.1647    1.0000 </r>
       <r>    4.3960    1.0000 </r>
       <r>    4.5117    1.0000 </r>
       <r>    4.9650    1.0000 </r>
       <r>    5.4029    1.0000 </r>
       <r>    5.9135    1.0000 </r>
       <r>    6.0014    1.0000 </r>
       <r>    6.5130    1.0000 </r>
       <r>    6.8829    1.0000 </r>
       <r>    7.2271    1.0000 </r>
       <r>    7.4850    1.0000 </r>
       <r>   10.3464    0.0000 </r>
       <r>   10.8213    0.0000 </r>
       <r>   11.1331    0.0000 </r>
       <r>   11.4958    0.0000 </r>
       <r>   12.3374    0.0000 </r>
       <r>   12.6816    0.0000 </r>
       <r>   12.7959    0.0000 </r>
       <r>   13.1461    0.0000 </r>
       <r>   13.4372    0.0000 </r>
       <r>   13.6981    0.0000 </r>
       <r>   14.3877    0.0000 </r>
       <r>   14.7653    0.0000 </r>
      </set>
      <set comment="kpoint 10">
       <r>   -8.3073    1.0000 </r>
       <r>   -8.0487    1.0000 </r>
       <r>   -7.4987    1.0000 </r>
       <r>   -6.6253    1.0000 </r>
       <r>   -4.2435    1.0000 </r>
       <r>   -3.1977    1.0000 </r>
       <r>   -2.4068    1.0000 </r>
       <r>   -1.8136    1.0000 </r>
       <r>   -0.9320    1.0000 </r>
       <r>   -0.1166    1.0000 </r>
       <r>    0.3526    1.0000 </r>
       <r>    0.9107    1.0000 </r>
       <r>    1.1142    1.0000 </r>
       <r>    1.1705    1.0000 </r>
       <r>    1.9031    1.0000 </r>
       <r>    2.2118    1.0000 </r>
       <r>    2.2517    1.0000 </r>
       <r>    2.5057    1.0000 </r>
       <r>    2.6543    1.0000 </r>
       <r>    2.9416    1.0000 </r>
       <r>    3.3885    1.0000 </r>
       <r>    3.5394    1.0000 </r>
       <r>    3.9940    1.0000 </r>
       <r>    4.4874    1.0000 </r>
       <r>    4.6117    1.0000 </r>
       <r>    5.0175    1.0000 </r>
       <r>    5.0527    1.0000 </r>
       <r>    5.3050    1.0000 </r>
       <r>    5.7916    1.0000 </r>
       <r>    6.4684    1.0000 </r>
       <r>    6.7522    1.0000 </r>
       <r>    7.3502    1.0000 </r>
       <r>   10.9614    0.0000 </r>
       <r>   11.3842    0.0000 </r>
       <r>   12.0833    0.0000 </r>
       <r>   12.5479    0.0000 </r>
       <r>   12.5493    0.0000 </r>
       <r>   13.0432    0.0000 </r>
       <r>   13.3192    0.0000 </r>
       <r>   13.8626    0.0000 </r>
       <r>   13.9833    0.0000 </r>
       <r>   14.1780    0.0000 </r>
       <r>   14.2621    0.0000 </r>
       <r>   14.9466    0.0000 </r>
      </set>
      <set comment="kpoint 11">
       <r>   -8.2764    1.0000 </r>
       <r>   -8.0339    1.0000 </r>
       <r>   -7.5003    1.0000 </r>
       <r>   -6.6186    1.0000 </r>
       <r>   -4.1340    1.0000 </r>
       <r>   -3.1879    1.0000 </r>
       <r>   -2.4841    1.0000 </r>
       <r>   -1.9838    1.0000 </r>
       <r>   -0.9663    1.0000 </r>
       <r>   -0.5307    1.0000 </r>
       <r>   -0.0705    1.0000 </r>
       <r>    0.2973    1.0000 </r>
       <r>    1.2548    1.0000 </r>
       <r>    1.3729    1.0000 </r>
       <r>    1.8988    1.0000 </r>
       <r>    2.4299    1.0000 </r>
       <r>    2.5742    1.0000 </r>
       <r>    2.6908    1.0000 </r>
       <r>    2.9588    1.0000 </r>
       <r>    2.9789    1.0000 </r>
       <r>    3.4022    1.0000 </r>
       <r>    3.7897    1.0000 </r>
       <r>    4.0430    1.0000 </r>
       <r>    4.2861    1.0000 </r>
       <r>    4.8345    1.0000 </r>
       <r>    5.2536    1.0000 </r>
       <r>    5.6229    1.0000 </r>
       <r>    5.7894    1.0000 </r>
       <r>    5.9779    1.0000 </r>
       <r>    6.6554    1.0000 </r>
       <r>    7.0534    1.0000 </r>
       <r>    7.3230    1.0000 </r>
       <r>   10.4424    0.0000 </r>
       <r>   11.0290    0.0000 </r>
       <r>   11.0849    0.0000 </r>
       <r>   11.7295    0.0000 </r>
       <r>   12.3165    0.0000 </r>
       <r>   12.4879    0.0000 </r>
       <r>   12.6876    0.0000 </r>
       <r>   12.7622    0.0000 </r>
       <r>   13.5291    0.0000 </r>
       <r>   13.7615    0.0000 </r>
       <r>   14.5904    0.0000 </r>
       <r>   14.7047    0.0000 </r>
      </set>
      <set comment="kpoint 12">
       <r>   -8.2439    1.0000 </r>
       <r>   -8.0189    1.0000 </r>
       <r>   -7.5034    1.0000 </r>
       <r>   -6.6119    1.0000 </r>
       <r>   -3.9990    1.0000 </r>
       <r>   -3.1820    1.0000 </r>
       <r>   -2.6110    1.0000 </r>
       <r>   -2.1392    1.0000 </r>
       <r>   -0.9468    1.0000 </r>
       <r>   -0.7702    1.0000 </r>
       <r>   -0.3717    1.0000 </r>
       <r>   -0.0397    1.0000 </r>
       <r>    1.0262    1.0000 </r>
       <r>    1.3433    1.0000 </r>
       <r>    1.9087    1.0000 </r>
       <r>    2.5436    1.0000 </r>
       <r>    2.6281    1.0000 </r>
       <r>    2.7374    1.0000 </r>
       <r>    3.0851    1.0000 </r>
       <r>    3.4266    1.0000 </r>
       <r>    3.8237    1.0000 </r>
       <r>    3.8854    1.0000 </r>
       <r>    4.1350    1.0000 </r>
       <r>    4.5558    1.0000 </r>
       <r>    5.2665    1.0000 </r>
       <r>    5.3484    1.0000 </r>
       <r>    5.6199    1.0000 </r>
       <r>    5.9506    1.0000 </r>
       <r>    6.7325    1.0000 </r>
       <r>    6.9822    1.0000 </r>
       <r>    7.0435    1.0000 </r>
       <r>    7.6759    1.0000 </r>
       <r>    9.5560    0.0000 </r>
       <r>   10.3161    0.0000 </r>
       <r>   10.3796    0.0000 </r>
       <r>   10.9191    0.0000 </r>
       <r>   11.9156    0.0000 </r>
       <r>   12.0385    0.0000 </r>
       <r>   12.6159    0.0000 </r>
       <r>   12.7332    0.0000 </r>
       <r>   13.1138    0.0000 </r>
       <r>   13.2536    0.0000 </r>
       <r>   14.1947    0.0000 </r>
       <r>   14.3089    0.0000 </r>
      </set>
      <set comment="kpoint 13">
       <r>   -9.9825    1.0000 </r>
       <r>   -8.6021    1.0000 </r>
       <r>   -7.7842    1.0000 </r>
       <r>   -7.4189    1.0000 </r>
       <r>   -5.6474    1.0000 </r>
       <r>   -4.1138    1.0000 </r>
       <r>   -2.9563    1.0000 </r>
       <r>   -2.2625    1.0000 </r>
       <r>   -0.9744    1.0000 </r>
       <r>   -0.4281    1.0000 </r>
       <r>    0.2727    1.0000 </r>
       <r>    1.2821    1.0000 </r>
       <r>    1.6748    1.0000 </r>
       <r>    2.3573    1.0000 </r>
       <r>    2.3704    1.0000 </r>
       <r>    3.1892    1.0000 </r>
       <r>    3.5898    1.0000 </r>
       <r>    3.7679    1.0000 </r>
       <r>    4.2034    1.0000 </r>
       <r>    4.5302    1.0000 </r>
       <r>    4.8371    1.0000 </r>
       <r>    4.9725    1.0000 </r>
       <r>    5.1309    1.0000 </r>
       <r>    5.6744    1.0000 </r>
       <r>    5.7511    1.0000 </r>
       <r>    6.1670    1.0000 </r>
       <r>    6.7256    1.0000 </r>
       <r>    7.0693    1.0000 </r>
       <r>    7.5266    1.0000 </r>
       <r>    8.2349    1.0000 </r>
       <r>    8.2733    1.0000 </r>
       <r>    8.6865    1.0000 </r>
       <r>    9.5594    0.0000 </r>
       <r>    9.7239    0.0000 </r>
       <r>   10.6190    0.0000 </r>
       <r>   11.2451    0.0000 </r>
       <r>   12.0769    0.0000 </r>
       <r>   12.1585    0.0000 </r>
       <r>   13.4733    0.0000 </r>
       <r>   13.7349    0.0000 </r>
       <r>   14.2369    0.0000 </r>
       <r>   14.4949    0.0000 </r>
       <r>   15.0454    0.0000 </r>
       <r>   15.2511    0.0000 </r>
      </set>
      <set comment="kpoint 14">
       <r>   -9.8715    1.0000 </r>
       <r>   -8.5140    1.0000 </r>
       <r>   -8.0295    1.0000 </r>
       <r>   -7.4069    1.0000 </r>
       <r>   -5.7718    1.0000 </r>
       <r>   -4.1705    1.0000 </r>
       <r>   -3.2564    1.0000 </r>
       <r>   -2.3688    1.0000 </r>
       <r>   -0.5539    1.0000 </r>
       <r>    0.1567    1.0000 </r>
       <r>    0.5811    1.0000 </r>
       <r>    1.3933    1.0000 </r>
       <r>    1.9228    1.0000 </r>
       <r>    2.4075    1.0000 </r>
       <r>    2.9143    1.0000 </r>
       <r>    3.0898    1.0000 </r>
       <r>    3.2180    1.0000 </r>
       <r>    3.5314    1.0000 </r>
       <r>    3.8481    1.0000 </r>
       <r>    4.4347    1.0000 </r>
       <r>    4.5355    1.0000 </r>
       <r>    5.1128    1.0000 </r>
       <r>    5.1564    1.0000 </r>
       <r>    5.2057    1.0000 </r>
       <r>    5.6572    1.0000 </r>
       <r>    6.1485    1.0000 </r>
       <r>    6.6571    1.0000 </r>
       <r>    6.7663    1.0000 </r>
       <r>    7.2791    1.0000 </r>
       <r>    7.6501    1.0000 </r>
       <r>    8.1081    1.0000 </r>
       <r>    8.6400    1.0000 </r>
       <r>    9.7297    0.0000 </r>
       <r>   10.3321    0.0000 </r>
       <r>   11.0481    0.0000 </r>
       <r>   11.6874    0.0000 </r>
       <r>   12.4296    0.0000 </r>
       <r>   12.6684    0.0000 </r>
       <r>   13.3623    0.0000 </r>
       <r>   13.5341    0.0000 </r>
       <r>   14.0937    0.0000 </r>
       <r>   14.5106    0.0000 </r>
       <r>   14.8471    0.0000 </r>
       <r>   15.1713    0.0000 </r>
      </set>
      <set comment="kpoint 15">
       <r>   -9.7323    1.0000 </r>
       <r>   -8.3687    1.0000 </r>
       <r>   -8.3388    1.0000 </r>
       <r>   -7.3988    1.0000 </r>
       <r>   -5.9313    1.0000 </r>
       <r>   -3.9239    1.0000 </r>
       <r>   -3.7834    1.0000 </r>
       <r>   -2.5209    1.0000 </r>
       <r>    0.0708    1.0000 </r>
       <r>    0.7739    1.0000 </r>
       <r>    1.4565    1.0000 </r>
       <r>    1.5803    1.0000 </r>
       <r>    1.8811    1.0000 </r>
       <r>    2.2271    1.0000 </r>
       <r>    2.3387    1.0000 </r>
       <r>    2.4622    1.0000 </r>
       <r>    3.4076    1.0000 </r>
       <r>    3.9406    1.0000 </r>
       <r>    3.9672    1.0000 </r>
       <r>    4.3397    1.0000 </r>
       <r>    4.7092    1.0000 </r>
       <r>    4.7835    1.0000 </r>
       <r>    5.0614    1.0000 </r>
       <r>    5.1989    1.0000 </r>
       <r>    5.4190    1.0000 </r>
       <r>    5.5790    1.0000 </r>
       <r>    5.7991    1.0000 </r>
       <r>    6.8275    1.0000 </r>
       <r>    7.2125    1.0000 </r>
       <r>    7.5177    1.0000 </r>
       <r>    7.9417    1.0000 </r>
       <r>    8.5822    1.0000 </r>
       <r>   10.1014    0.0000 </r>
       <r>   10.8669    0.0000 </r>
       <r>   11.5909    0.0000 </r>
       <r>   11.8733    0.0000 </r>
       <r>   12.4515    0.0000 </r>
       <r>   12.9142    0.0000 </r>
       <r>   13.5086    0.0000 </r>
       <r>   13.6233    0.0000 </r>
       <r>   14.0865    0.0000 </r>
       <r>   14.5111    0.0000 </r>
       <r>   14.5549    0.0000 </r>
       <r>   15.0996    0.0000 </r>
      </set>
      <set comment="kpoint 16">
       <r>   -9.7218    1.0000 </r>
       <r>   -8.4002    1.0000 </r>
       <r>   -7.6820    1.0000 </r>
       <r>   -7.2487    1.0000 </r>
       <r>   -5.4083    1.0000 </r>
       <r>   -3.8532    1.0000 </r>
       <r>   -2.8007    1.0000 </r>
       <r>   -2.0579    1.0000 </r>
       <r>   -0.7460    1.0000 </r>
       <r>   -0.2360    1.0000 </r>
       <r>    0.4051    1.0000 </r>
       <r>    1.2284    1.0000 </r>
       <r>    1.4743    1.0000 </r>
       <r>    1.8654    1.0000 </r>
       <r>    2.3601    1.0000 </r>
       <r>    2.6873    1.0000 </r>
       <r>    3.3022    1.0000 </r>
       <r>    3.5416    1.0000 </r>
       <r>    3.7809    1.0000 </r>
       <r>    4.0054    1.0000 </r>
       <r>    4.1638    1.0000 </r>
       <r>    4.3541    1.0000 </r>
       <r>    4.8316    1.0000 </r>
       <r>    4.9284    1.0000 </r>
       <r>    5.4921    1.0000 </r>
       <r>    5.5403    1.0000 </r>
       <r>    6.2874    1.0000 </r>
       <r>    6.8735    1.0000 </r>
       <r>    7.2531    1.0000 </r>
       <r>    7.3506    1.0000 </r>
       <r>    7.6810    1.0000 </r>
       <r>    8.0677    1.0000 </r>
       <r>   10.5792    0.0000 </r>
       <r>   10.9210    0.0000 </r>
       <r>   11.1177    0.0000 </r>
       <r>   12.5942    0.0000 </r>
       <r>   12.7501    0.0000 </r>
       <r>   13.1018    0.0000 </r>
       <r>   13.3659    0.0000 </r>
       <r>   13.4564    0.0000 </r>
       <r>   14.0991    0.0000 </r>
       <r>   14.3598    0.0000 </r>
       <r>   14.5870    0.0000 </r>
       <r>   14.8382    0.0000 </r>
      </set>
      <set comment="kpoint 17">
       <r>   -9.6167    1.0000 </r>
       <r>   -8.3252    1.0000 </r>
       <r>   -7.8985    1.0000 </r>
       <r>   -7.2320    1.0000 </r>
       <r>   -5.5112    1.0000 </r>
       <r>   -3.8996    1.0000 </r>
       <r>   -3.0713    1.0000 </r>
       <r>   -2.1389    1.0000 </r>
       <r>   -0.4806    1.0000 </r>
       <r>    0.2315    1.0000 </r>
       <r>    0.5598    1.0000 </r>
       <r>    1.4178    1.0000 </r>
       <r>    1.6130    1.0000 </r>
       <r>    2.0183    1.0000 </r>
       <r>    2.4387    1.0000 </r>
       <r>    2.8586    1.0000 </r>
       <r>    3.1016    1.0000 </r>
       <r>    3.4486    1.0000 </r>
       <r>    3.6083    1.0000 </r>
       <r>    3.8599    1.0000 </r>
       <r>    3.9691    1.0000 </r>
       <r>    4.2502    1.0000 </r>
       <r>    4.9441    1.0000 </r>
       <r>    5.0277    1.0000 </r>
       <r>    5.2031    1.0000 </r>
       <r>    5.7251    1.0000 </r>
       <r>    6.2559    1.0000 </r>
       <r>    6.2853    1.0000 </r>
       <r>    7.0966    1.0000 </r>
       <r>    7.4287    1.0000 </r>
       <r>    7.6130    1.0000 </r>
       <r>    8.0028    1.0000 </r>
       <r>   10.8154    0.0000 </r>
       <r>   11.2651    0.0000 </r>
       <r>   11.3815    0.0000 </r>
       <r>   12.2927    0.0000 </r>
       <r>   12.8213    0.0000 </r>
       <r>   13.1432    0.0000 </r>
       <r>   13.3428    0.0000 </r>
       <r>   13.4584    0.0000 </r>
       <r>   13.8045    0.0000 </r>
       <r>   14.2931    0.0000 </r>
       <r>   14.3798    0.0000 </r>
       <r>   15.0234    0.0000 </r>
      </set>
      <set comment="kpoint 18">
       <r>   -9.4855    1.0000 </r>
       <r>   -8.2153    1.0000 </r>
       <r>   -8.1600    1.0000 </r>
       <r>   -7.2194    1.0000 </r>
       <r>   -5.6437    1.0000 </r>
       <r>   -3.6713    1.0000 </r>
       <r>   -3.5539    1.0000 </r>
       <r>   -2.2539    1.0000 </r>
       <r>   -0.1950    1.0000 </r>
       <r>    0.7117    1.0000 </r>
       <r>    1.1987    1.0000 </r>
       <r>    1.3899    1.0000 </r>
       <r>    1.6946    1.0000 </r>
       <r>    2.0209    1.0000 </r>
       <r>    2.3271    1.0000 </r>
       <r>    2.4781    1.0000 </r>
       <r>    3.2731    1.0000 </r>
       <r>    3.5645    1.0000 </r>
       <r>    3.7175    1.0000 </r>
       <r>    3.7379    1.0000 </r>
       <r>    3.9228    1.0000 </r>
       <r>    4.3959    1.0000 </r>
       <r>    4.4993    1.0000 </r>
       <r>    4.8375    1.0000 </r>
       <r>    5.3731    1.0000 </r>
       <r>    5.5101    1.0000 </r>
       <r>    6.0943    1.0000 </r>
       <r>    6.2541    1.0000 </r>
       <r>    6.7530    1.0000 </r>
       <r>    7.3756    1.0000 </r>
       <r>    7.6239    1.0000 </r>
       <r>    7.7386    1.0000 </r>
       <r>   11.2452    0.0000 </r>
       <r>   11.8329    0.0000 </r>
       <r>   11.9945    0.0000 </r>
       <r>   12.3468    0.0000 </r>
       <r>   12.5547    0.0000 </r>
       <r>   12.9078    0.0000 </r>
       <r>   13.1506    0.0000 </r>
       <r>   13.3390    0.0000 </r>
       <r>   14.0097    0.0000 </r>
       <r>   14.3396    0.0000 </r>
       <r>   14.4883    0.0000 </r>
       <r>   14.7973    0.0000 </r>
      </set>
      <set comment="kpoint 19">
       <r>   -9.0213    1.0000 </r>
       <r>   -7.9667    1.0000 </r>
       <r>   -7.5626    1.0000 </r>
       <r>   -6.8568    1.0000 </r>
       <r>   -4.7784    1.0000 </r>
       <r>   -3.2502    1.0000 </r>
       <r>   -2.5943    1.0000 </r>
       <r>   -1.6517    1.0000 </r>
       <r>   -0.9168    1.0000 </r>
       <r>    0.1474    1.0000 </r>
       <r>    0.2985    1.0000 </r>
       <r>    0.6755    1.0000 </r>
       <r>    1.4043    1.0000 </r>
       <r>    1.6265    1.0000 </r>
       <r>    1.7828    1.0000 </r>
       <r>    2.1449    1.0000 </r>
       <r>    2.5141    1.0000 </r>
       <r>    2.8611    1.0000 </r>
       <r>    3.1232    1.0000 </r>
       <r>    3.3229    1.0000 </r>
       <r>    3.4894    1.0000 </r>
       <r>    3.9616    1.0000 </r>
       <r>    4.2667    1.0000 </r>
       <r>    4.4746    1.0000 </r>
       <r>    4.9746    1.0000 </r>
       <r>    5.1284    1.0000 </r>
       <r>    5.3252    1.0000 </r>
       <r>    5.5129    1.0000 </r>
       <r>    6.1170    1.0000 </r>
       <r>    6.9105    1.0000 </r>
       <r>    7.1697    1.0000 </r>
       <r>    7.4831    1.0000 </r>
       <r>   10.9720    0.0000 </r>
       <r>   11.8349    0.0000 </r>
       <r>   12.2700    0.0000 </r>
       <r>   12.3627    0.0000 </r>
       <r>   12.6765    0.0000 </r>
       <r>   13.0010    0.0000 </r>
       <r>   13.4606    0.0000 </r>
       <r>   13.8774    0.0000 </r>
       <r>   14.0790    0.0000 </r>
       <r>   14.2898    0.0000 </r>
       <r>   14.5193    0.0000 </r>
       <r>   15.0553    0.0000 </r>
      </set>
      <set comment="kpoint 20">
       <r>   -8.9391    1.0000 </r>
       <r>   -7.9435    1.0000 </r>
       <r>   -7.6613    1.0000 </r>
       <r>   -6.8419    1.0000 </r>
       <r>   -4.7980    1.0000 </r>
       <r>   -3.2405    1.0000 </r>
       <r>   -2.7717    1.0000 </r>
       <r>   -1.6674    1.0000 </r>
       <r>   -1.0874    1.0000 </r>
       <r>   -0.1407    1.0000 </r>
       <r>    0.3742    1.0000 </r>
       <r>    0.8093    1.0000 </r>
       <r>    1.4790    1.0000 </r>
       <r>    1.6330    1.0000 </r>
       <r>    1.8465    1.0000 </r>
       <r>    2.1256    1.0000 </r>
       <r>    2.5687    1.0000 </r>
       <r>    2.9474    1.0000 </r>
       <r>    3.2462    1.0000 </r>
       <r>    3.3902    1.0000 </r>
       <r>    3.6809    1.0000 </r>
       <r>    4.0806    1.0000 </r>
       <r>    4.3188    1.0000 </r>
       <r>    4.4635    1.0000 </r>
       <r>    4.8449    1.0000 </r>
       <r>    5.3721    1.0000 </r>
       <r>    5.4209    1.0000 </r>
       <r>    5.6004    1.0000 </r>
       <r>    6.5470    1.0000 </r>
       <r>    6.8321    1.0000 </r>
       <r>    7.3993    1.0000 </r>
       <r>    7.5895    1.0000 </r>
       <r>   10.5387    0.0000 </r>
       <r>   10.9697    0.0000 </r>
       <r>   11.4577    0.0000 </r>
       <r>   12.1053    0.0000 </r>
       <r>   12.6771    0.0000 </r>
       <r>   12.9891    0.0000 </r>
       <r>   13.1890    0.0000 </r>
       <r>   13.4926    0.0000 </r>
       <r>   13.7177    0.0000 </r>
       <r>   14.1098    0.0000 </r>
       <r>   14.4720    0.0000 </r>
       <r>   14.8093    0.0000 </r>
      </set>
      <set comment="kpoint 21">
       <r>   -8.8391    1.0000 </r>
       <r>   -7.9489    1.0000 </r>
       <r>   -7.7475    1.0000 </r>
       <r>   -6.8278    1.0000 </r>
       <r>   -4.8260    1.0000 </r>
       <r>   -3.1851    1.0000 </r>
       <r>   -2.9597    1.0000 </r>
       <r>   -1.6748    1.0000 </r>
       <r>   -1.2322    1.0000 </r>
       <r>   -0.2599    1.0000 </r>
       <r>    0.2746    1.0000 </r>
       <r>    0.6123    1.0000 </r>
       <r>    1.4937    1.0000 </r>
       <r>    1.7124    1.0000 </r>
       <r>    2.0552    1.0000 </r>
       <r>    2.3046    1.0000 </r>
       <r>    2.9447    1.0000 </r>
       <r>    3.1559    1.0000 </r>
       <r>    3.3553    1.0000 </r>
       <r>    3.4741    1.0000 </r>
       <r>    3.6012    1.0000 </r>
       <r>    3.8057    1.0000 </r>
       <r>    4.1401    1.0000 </r>
       <r>    4.3611    1.0000 </r>
       <r>    5.1940    1.0000 </r>
       <r>    5.3528    1.0000 </r>
       <r>    5.9261    1.0000 </r>
       <r>    6.0925    1.0000 </r>
       <r>    6.5026    1.0000 </r>
       <r>    6.9927    1.0000 </r>
       <r>    7.3771    1.0000 </r>
       <r>    7.4929    1.0000 </r>
       <r>   10.3356    0.0000 </r>
       <r>   10.5939    0.0000 </r>
       <r>   11.0709    0.0000 </r>
       <r>   11.4524    0.0000 </r>
       <r>   12.2585    0.0000 </r>
       <r>   12.8447    0.0000 </r>
       <r>   12.9295    0.0000 </r>
       <r>   13.1940    0.0000 </r>
       <r>   13.5940    0.0000 </r>
       <r>   13.7372    0.0000 </r>
       <r>   14.3790    0.0000 </r>
       <r>   14.6442    0.0000 </r>
      </set>
      <set comment="kpoint 22">
       <r>   -8.3067    1.0000 </r>
       <r>   -8.0481    1.0000 </r>
       <r>   -7.4997    1.0000 </r>
       <r>   -6.6276    1.0000 </r>
       <r>   -4.2409    1.0000 </r>
       <r>   -3.2095    1.0000 </r>
       <r>   -2.3931    1.0000 </r>
       <r>   -1.6919    1.0000 </r>
       <r>   -1.0817    1.0000 </r>
       <r>   -0.1948    1.0000 </r>
       <r>    0.3685    1.0000 </r>
       <r>    0.9061    1.0000 </r>
       <r>    1.0851    1.0000 </r>
       <r>    1.4077    1.0000 </r>
       <r>    1.8718    1.0000 </r>
       <r>    2.0496    1.0000 </r>
       <r>    2.1065    1.0000 </r>
       <r>    2.5855    1.0000 </r>
       <r>    2.5921    1.0000 </r>
       <r>    2.9451    1.0000 </r>
       <r>    3.5588    1.0000 </r>
       <r>    3.8898    1.0000 </r>
       <r>    4.1686    1.0000 </r>
       <r>    4.2005    1.0000 </r>
       <r>    4.7848    1.0000 </r>
       <r>    4.9152    1.0000 </r>
       <r>    5.2458    1.0000 </r>
       <r>    5.2584    1.0000 </r>
       <r>    5.3117    1.0000 </r>
       <r>    6.5001    1.0000 </r>
       <r>    6.5545    1.0000 </r>
       <r>    7.3716    1.0000 </r>
       <r>   11.1614    0.0000 </r>
       <r>   11.7123    0.0000 </r>
       <r>   12.3550    0.0000 </r>
       <r>   12.6785    0.0000 </r>
       <r>   12.7707    0.0000 </r>
       <r>   12.8858    0.0000 </r>
       <r>   13.0891    0.0000 </r>
       <r>   13.3822    0.0000 </r>
       <r>   13.5790    0.0000 </r>
       <r>   14.4108    0.0000 </r>
       <r>   14.6695    0.0000 </r>
       <r>   14.9752    0.0000 </r>
      </set>
      <set comment="kpoint 23">
       <r>   -8.2760    1.0000 </r>
       <r>   -8.0335    1.0000 </r>
       <r>   -7.5011    1.0000 </r>
       <r>   -6.6201    1.0000 </r>
       <r>   -4.1351    1.0000 </r>
       <r>   -3.2006    1.0000 </r>
       <r>   -2.4625    1.0000 </r>
       <r>   -1.9159    1.0000 </r>
       <r>   -1.0402    1.0000 </r>
       <r>   -0.6277    1.0000 </r>
       <r>   -0.0431    1.0000 </r>
       <r>    0.4932    1.0000 </r>
       <r>    1.1328    1.0000 </r>
       <r>    1.2745    1.0000 </r>
       <r>    1.9619    1.0000 </r>
       <r>    2.2308    1.0000 </r>
       <r>    2.3647    1.0000 </r>
       <r>    2.6919    1.0000 </r>
       <r>    2.9379    1.0000 </r>
       <r>    3.5299    1.0000 </r>
       <r>    3.6164    1.0000 </r>
       <r>    3.7887    1.0000 </r>
       <r>    4.0847    1.0000 </r>
       <r>    4.2122    1.0000 </r>
       <r>    4.9799    1.0000 </r>
       <r>    5.0575    1.0000 </r>
       <r>    5.4376    1.0000 </r>
       <r>    5.7269    1.0000 </r>
       <r>    6.0102    1.0000 </r>
       <r>    6.6088    1.0000 </r>
       <r>    7.0453    1.0000 </r>
       <r>    7.2559    1.0000 </r>
       <r>   10.4087    0.0000 </r>
       <r>   10.9090    0.0000 </r>
       <r>   11.0187    0.0000 </r>
       <r>   11.6927    0.0000 </r>
       <r>   12.1769    0.0000 </r>
       <r>   12.7230    0.0000 </r>
       <r>   13.1544    0.0000 </r>
       <r>   13.3874    0.0000 </r>
       <r>   13.6706    0.0000 </r>
       <r>   13.9386    0.0000 </r>
       <r>   14.2231    0.0000 </r>
       <r>   14.6688    0.0000 </r>
      </set>
      <set comment="kpoint 24">
       <r>   -8.2435    1.0000 </r>
       <r>   -8.0186    1.0000 </r>
       <r>   -7.5039    1.0000 </r>
       <r>   -6.6128    1.0000 </r>
       <r>   -4.0042    1.0000 </r>
       <r>   -3.1921    1.0000 </r>
       <r>   -2.5879    1.0000 </r>
       <r>   -2.1159    1.0000 </r>
       <r>   -0.9668    1.0000 </r>
       <r>   -0.8561    1.0000 </r>
       <r>   -0.2961    1.0000 </r>
       <r>    0.1738    1.0000 </r>
       <r>    0.8522    1.0000 </r>
       <r>    1.1232    1.0000 </r>
       <r>    1.8917    1.0000 </r>
       <r>    2.0912    1.0000 </r>
       <r>    2.6270    1.0000 </r>
       <r>    3.3292    1.0000 </r>
       <r>    3.4522    1.0000 </r>
       <r>    3.5278    1.0000 </r>
       <r>    3.7488    1.0000 </r>
       <r>    3.9894    1.0000 </r>
       <r>    4.2125    1.0000 </r>
       <r>    4.4781    1.0000 </r>
       <r>    4.9514    1.0000 </r>
       <r>    5.0337    1.0000 </r>
       <r>    5.7276    1.0000 </r>
       <r>    5.9817    1.0000 </r>
       <r>    6.6859    1.0000 </r>
       <r>    7.0508    1.0000 </r>
       <r>    7.1188    1.0000 </r>
       <r>    7.6641    1.0000 </r>
       <r>    9.7023    0.0000 </r>
       <r>   10.1013    0.0000 </r>
       <r>   10.2004    0.0000 </r>
       <r>   10.7116    0.0000 </r>
       <r>   11.7107    0.0000 </r>
       <r>   12.1011    0.0000 </r>
       <r>   12.3655    0.0000 </r>
       <r>   12.4974    0.0000 </r>
       <r>   13.6836    0.0000 </r>
       <r>   14.1686    0.0000 </r>
       <r>   14.5695    0.0000 </r>
       <r>   14.9836    0.0000 </r>
      </set>
     </set>
    </set>
   </array>
  </eigenvalues>
  <separator name="orbital magnetization" >
   <v name="MAGDIPOLOUT">      0.00000000      0.00000000      0.00000000</v>
  </separator>
  <dos>
   <i name="efermi">      9.10480448 </i>
   <total>
    <array>
     <dimension dim="1">gridpoints</dimension>
     <dimension dim="2">spin</dimension>
     <field>energy</field>
     <field>total</field>
     <field>integrated</field>
     <set>
      <set comment="spin 1">
       <r>   -11.2492     0.0000     0.0000 </r>
       <r>   -11.1566     0.0000     0.0000 </r>
       <r>   -11.0640     0.0000     0.0000 </r>
       <r>   -10.9714     0.0000     0.0000 </r>
       <r>   -10.8789     0.0000     0.0000 </r>
       <r>   -10.7863     0.0000     0.0000 </r>
       <r>   -10.6937     0.0000     0.0000 </r>
       <r>   -10.6011     0.0000     0.0000 </r>
       <r>   -10.5085     0.0000     0.0000 </r>
       <r>   -10.4159     0.0000     0.0000 </r>
       <r>   -10.3233     0.0000     0.0000 </r>
       <r>   -10.2307     0.0002     0.0000 </r>
       <r>   -10.1381     0.0134     0.0013 </r>
       <r>   -10.0455     0.1746     0.0174 </r>
       <r>    -9.9529     0.6516     0.0778 </r>
       <r>    -9.8603     1.1336     0.1827 </r>
       <r>    -9.7677     1.4238     0.3146 </r>
       <r>    -9.6751     2.1291     0.5117 </r>
       <r>    -9.5825     2.4622     0.7397 </r>
       <r>    -9.4899     1.7423     0.9010 </r>
       <r>    -9.3973     0.8761     0.9821 </r>
       <r>    -9.3047     0.1835     0.9991 </r>
       <r>    -9.2122     0.0161     1.0006 </r>
       <r>    -9.1196     0.1668     1.0161 </r>
       <r>    -9.0270     1.0836     1.1164 </r>
       <r>    -8.9344     2.4278     1.3412 </r>
       <r>    -8.8418     2.2845     1.5527 </r>
       <r>    -8.7492     1.0473     1.6497 </r>
       <r>    -8.6566     0.3512     1.6822 </r>
       <r>    -8.5640     0.7555     1.7522 </r>
       <r>    -8.4714     1.5091     1.8919 </r>
       <r>    -8.3788     2.8435     2.1552 </r>
       <r>    -8.2862     4.9149     2.6103 </r>
       <r>    -8.1936     4.4314     3.0206 </r>
       <r>    -8.1010     3.1007     3.3077 </r>
       <r>    -8.0084     4.5598     3.7299 </r>
       <r>    -7.9158     6.4867     4.3306 </r>
       <r>    -7.8232     4.4714     4.7446 </r>
       <r>    -7.7306     2.9470     5.0175 </r>
       <r>    -7.6381     3.6794     5.3582 </r>
       <r>    -7.5455     3.4178     5.6746 </r>
       <r>    -7.4529     3.4063     5.9900 </r>
       <r>    -7.3603     2.8959     6.2582 </r>
       <r>    -7.2677     2.9408     6.5305 </r>
       <r>    -7.1751     3.4606     6.8509 </r>
       <r>    -7.0825     1.4527     6.9854 </r>
       <r>    -6.9899     0.3082     7.0140 </r>
       <r>    -6.8973     1.4957     7.1525 </r>
       <r>    -6.8047     3.4423     7.4712 </r>
       <r>    -6.7121     2.2069     7.6755 </r>
       <r>    -6.6195     1.6947     7.8325 </r>
       <r>    -6.5269     1.4635     7.9680 </r>
       <r>    -6.4343     0.3295     7.9985 </r>
       <r>    -6.3417     0.0161     8.0000 </r>
       <r>    -6.2491     0.0003     8.0000 </r>
       <r>    -6.1565     0.0086     8.0008 </r>
       <r>    -6.0639     0.1039     8.0104 </r>
       <r>    -5.9714     0.3451     8.0424 </r>
       <r>    -5.8788     0.5395     8.0923 </r>
       <r>    -5.7862     0.9842     8.1835 </r>
       <r>    -5.6936     1.5036     8.3227 </r>
       <r>    -5.6010     1.8656     8.4955 </r>
       <r>    -5.5084     2.2433     8.7032 </r>
       <r>    -5.4158     1.9403     8.8828 </r>
       <r>    -5.3232     1.0210     8.9774 </r>
       <r>    -5.2306     0.2307     8.9987 </r>
       <r>    -5.1380     0.0136     9.0000 </r>
       <r>    -5.0454     0.0038     9.0003 </r>
       <r>    -4.9528     0.1466     9.0139 </r>
       <r>    -4.8602     1.4033     9.1439 </r>
       <r>    -4.7676     3.3385     9.4530 </r>
       <r>    -4.6750     2.0033     9.6385 </r>
       <r>    -4.5824     0.2944     9.6657 </r>
       <r>    -4.4898     0.0102     9.6667 </r>
       <r>    -4.3972     0.0135     9.6679 </r>
       <r>    -4.3047     0.2029     9.6867 </r>
       <r>    -4.2121     1.0215     9.7813 </r>
       <r>    -4.1195     2.2183     9.9867 </r>
       <r>    -4.0269     2.0518    10.1767 </r>
       <r>    -3.9343     2.0398    10.3656 </r>
       <r>    -3.8417     3.2311    10.6648 </r>
       <r>    -3.7491     2.4063    10.8876 </r>
       <r>    -3.6565     1.4121    11.0183 </r>
       <r>    -3.5639     1.3503    11.1433 </r>
       <r>    -3.4713     0.9269    11.2292 </r>
       <r>    -3.3787     0.5361    11.2788 </r>
       <r>    -3.2861     2.5354    11.5136 </r>
       <r>    -3.1935     5.6887    12.0403 </r>
       <r>    -3.1009     4.7630    12.4813 </r>
       <r>    -3.0083     2.9547    12.7549 </r>
       <r>    -2.9157     2.0677    12.9464 </r>
       <r>    -2.8231     2.0068    13.1322 </r>
       <r>    -2.7305     2.7081    13.3830 </r>
       <r>    -2.6380     1.8975    13.5587 </r>
       <r>    -2.5454     1.8705    13.7319 </r>
       <r>    -2.4528     1.9687    13.9141 </r>
       <r>    -2.3602     1.9091    14.0909 </r>
       <r>    -2.2676     1.9352    14.2701 </r>
       <r>    -2.1750     2.5110    14.5026 </r>
       <r>    -2.0824     3.2585    14.8043 </r>
       <r>    -1.9898     2.7795    15.0617 </r>
       <r>    -1.8972     1.9020    15.2378 </r>
       <r>    -1.8046     1.5327    15.3797 </r>
       <r>    -1.7120     2.2555    15.5886 </r>
       <r>    -1.6194     2.8481    15.8523 </r>
       <r>    -1.5268     1.3782    15.9799 </r>
       <r>    -1.4342     0.2099    15.9994 </r>
       <r>    -1.3416     0.0620    16.0051 </r>
       <r>    -1.2490     0.3359    16.0362 </r>
       <r>    -1.1564     0.8063    16.1109 </r>
       <r>    -1.0638     1.9071    16.2874 </r>
       <r>    -0.9713     3.7379    16.6336 </r>
       <r>    -0.8787     3.9929    17.0033 </r>
       <r>    -0.7861     2.1576    17.2031 </r>
       <r>    -0.6935     1.3665    17.3296 </r>
       <r>    -0.6009     1.6576    17.4831 </r>
       <r>    -0.5083     2.9189    17.7533 </r>
       <r>    -0.4157     2.8296    18.0154 </r>
       <r>    -0.3231     1.6432    18.1675 </r>
       <r>    -0.2305     2.4335    18.3928 </r>
       <r>    -0.1379     4.1286    18.7751 </r>
       <r>    -0.0453     4.3850    19.1811 </r>
       <r>     0.0473     2.6645    19.4279 </r>
       <r>     0.1399     2.5983    19.6684 </r>
       <r>     0.2325     4.1162    20.0496 </r>
       <r>     0.3251     5.4022    20.5498 </r>
       <r>     0.4177     4.9958    21.0124 </r>
       <r>     0.5103     4.4461    21.4241 </r>
       <r>     0.6028     4.2409    21.8167 </r>
       <r>     0.6954     3.6133    22.1513 </r>
       <r>     0.7880     3.0154    22.4305 </r>
       <r>     0.8806     2.6092    22.6721 </r>
       <r>     0.9732     1.8942    22.8475 </r>
       <r>     1.0658     1.6533    23.0006 </r>
       <r>     1.1584     3.0982    23.2875 </r>
       <r>     1.2510     4.8462    23.7362 </r>
       <r>     1.3436     5.4899    24.2445 </r>
       <r>     1.4362     6.4707    24.8437 </r>
       <r>     1.5288     6.0280    25.4019 </r>
       <r>     1.6214     6.1736    25.9735 </r>
       <r>     1.7140     6.6502    26.5893 </r>
       <r>     1.8066     4.4229    26.9988 </r>
       <r>     1.8992     4.6204    27.4266 </r>
       <r>     1.9918     5.3832    27.9251 </r>
       <r>     2.0844     5.2997    28.4158 </r>
       <r>     2.1770     5.0511    28.8835 </r>
       <r>     2.2695     4.8831    29.3357 </r>
       <r>     2.3621     6.2711    29.9163 </r>
       <r>     2.4547     7.8984    30.6477 </r>
       <r>     2.5473     7.5037    31.3425 </r>
       <r>     2.6399     6.8144    31.9735 </r>
       <r>     2.7325     5.9087    32.5206 </r>
       <r>     2.8251     4.7530    32.9607 </r>
       <r>     2.9177     5.4646    33.4667 </r>
       <r>     3.0103     6.5331    34.0716 </r>
       <r>     3.1029     5.6887    34.5983 </r>
       <r>     3.1955     5.4464    35.1026 </r>
       <r>     3.2881     5.5942    35.6206 </r>
       <r>     3.3807     7.3381    36.3001 </r>
       <r>     3.4733     8.3286    37.0713 </r>
       <r>     3.5659     8.2496    37.8351 </r>
       <r>     3.6585     7.8706    38.5639 </r>
       <r>     3.7511     7.8082    39.2869 </r>
       <r>     3.8437     9.0156    40.1217 </r>
       <r>     3.9362     8.2904    40.8893 </r>
       <r>     4.0288     6.5412    41.4950 </r>
       <r>     4.1214     7.1421    42.1563 </r>
       <r>     4.2140     7.5193    42.8526 </r>
       <r>     4.3066     6.3846    43.4438 </r>
       <r>     4.3992     6.9458    44.0869 </r>
       <r>     4.4918     8.0419    44.8315 </r>
       <r>     4.5844     6.4440    45.4282 </r>
       <r>     4.6770     2.9917    45.7052 </r>
       <r>     4.7696     2.8990    45.9736 </r>
       <r>     4.8622     6.6843    46.5926 </r>
       <r>     4.9548     8.5739    47.3865 </r>
       <r>     5.0474     7.5047    48.0814 </r>
       <r>     5.1400     6.7041    48.7021 </r>
       <r>     5.2326     7.8434    49.4284 </r>
       <r>     5.3252     7.6957    50.1410 </r>
       <r>     5.4178     7.9033    50.8728 </r>
       <r>     5.5104     7.2189    51.5412 </r>
       <r>     5.6029     6.4842    52.1416 </r>
       <r>     5.6955     5.8803    52.6861 </r>
       <r>     5.7881     5.2009    53.1676 </r>
       <r>     5.8807     4.4050    53.5755 </r>
       <r>     5.9733     4.6356    54.0048 </r>
       <r>     6.0659     4.5223    54.4235 </r>
       <r>     6.1585     3.8247    54.7776 </r>
       <r>     6.2511     3.4328    55.0955 </r>
       <r>     6.3437     3.3291    55.4038 </r>
       <r>     6.4363     3.2914    55.7085 </r>
       <r>     6.5289     3.8577    56.0657 </r>
       <r>     6.6215     3.7952    56.4171 </r>
       <r>     6.7141     4.8389    56.8652 </r>
       <r>     6.8067     5.6117    57.3848 </r>
       <r>     6.8993     4.6932    57.8194 </r>
       <r>     6.9919     4.2468    58.2126 </r>
       <r>     7.0845     4.2101    58.6025 </r>
       <r>     7.1771     3.5313    58.9294 </r>
       <r>     7.2696     4.7401    59.3683 </r>
       <r>     7.3622     7.0189    60.0183 </r>
       <r>     7.4548     7.4263    60.7059 </r>
       <r>     7.5474     7.1867    61.3713 </r>
       <r>     7.6400     7.4401    62.0603 </r>
       <r>     7.7326     5.3415    62.5548 </r>
       <r>     7.8252     1.9267    62.7332 </r>
       <r>     7.9178     0.9183    62.8183 </r>
       <r>     8.0104     2.3407    63.0350 </r>
       <r>     8.1030     3.2513    63.3361 </r>
       <r>     8.1956     1.9140    63.5133 </r>
       <r>     8.2882     1.0850    63.6137 </r>
       <r>     8.3808     0.5040    63.6604 </r>
       <r>     8.4734     0.1178    63.6713 </r>
       <r>     8.5660     0.4936    63.7170 </r>
       <r>     8.6586     1.4199    63.8485 </r>
       <r>     8.7512     1.2737    63.9664 </r>
       <r>     8.8437     0.3379    63.9977 </r>
       <r>     8.9363     0.0241    64.0000 </r>
       <r>     9.0289     0.0004    64.0000 </r>
       <r>     9.1215     0.0000    64.0000 </r>
       <r>     9.2141     0.0000    64.0000 </r>
       <r>     9.3067     0.0015    64.0001 </r>
       <r>     9.3993     0.0434    64.0042 </r>
       <r>     9.4919     0.3161    64.0334 </r>
       <r>     9.5845     0.6732    64.0958 </r>
       <r>     9.6771     0.8490    64.1744 </r>
       <r>     9.7697     1.3547    64.2998 </r>
       <r>     9.8623     0.9971    64.3921 </r>
       <r>     9.9549     0.2641    64.4166 </r>
       <r>    10.0475     0.2131    64.4363 </r>
       <r>    10.1401     0.6026    64.4921 </r>
       <r>    10.2327     1.0117    64.5858 </r>
       <r>    10.3253     2.1127    64.7814 </r>
       <r>    10.4179     2.8955    65.0495 </r>
       <r>    10.5104     3.0100    65.3282 </r>
       <r>    10.6030     3.6278    65.6642 </r>
       <r>    10.6956     2.2741    65.8747 </r>
       <r>    10.7882     1.6875    66.0310 </r>
       <r>    10.8808     3.4897    66.3541 </r>
       <r>    10.9734     5.4133    66.8553 </r>
       <r>    11.0660     5.8870    67.4004 </r>
       <r>    11.1586     5.1982    67.8818 </r>
       <r>    11.2512     4.1934    68.2700 </r>
       <r>    11.3438     4.0360    68.6438 </r>
       <r>    11.4364     4.6303    69.0725 </r>
       <r>    11.5290     3.6822    69.4134 </r>
       <r>    11.6216     1.8580    69.5855 </r>
       <r>    11.7142     2.2643    69.7951 </r>
       <r>    11.8068     2.2910    70.0073 </r>
       <r>    11.8994     2.2701    70.2175 </r>
       <r>    11.9920     3.0942    70.5040 </r>
       <r>    12.0846     4.2805    70.9003 </r>
       <r>    12.1771     4.6013    71.3264 </r>
       <r>    12.2697     4.6786    71.7596 </r>
       <r>    12.3623     5.4799    72.2670 </r>
       <r>    12.4549     4.8957    72.7203 </r>
       <r>    12.5475     4.7611    73.1612 </r>
       <r>    12.6401     5.7498    73.6936 </r>
       <r>    12.7327     7.3332    74.3726 </r>
       <r>    12.8253     6.8905    75.0106 </r>
       <r>    12.9179     5.7912    75.5468 </r>
       <r>    13.0105     5.3841    76.0454 </r>
       <r>    13.1031     5.9582    76.5971 </r>
       <r>    13.1957     6.4124    77.1908 </r>
       <r>    13.2883     6.2513    77.7696 </r>
       <r>    13.3809     6.8527    78.4042 </r>
       <r>    13.4735     7.7188    79.1189 </r>
       <r>    13.5661     7.2768    79.7927 </r>
       <r>    13.6587     4.6932    80.2272 </r>
       <r>    13.7513     4.2935    80.6248 </r>
       <r>    13.8438     3.7516    80.9722 </r>
       <r>    13.9364     3.0916    81.2584 </r>
       <r>    14.0290     4.2556    81.6525 </r>
       <r>    14.1216     6.3075    82.2365 </r>
       <r>    14.2142     6.2245    82.8129 </r>
       <r>    14.3068     6.7029    83.4335 </r>
       <r>    14.3994     6.9275    84.0750 </r>
       <r>    14.4920     6.8293    84.7073 </r>
       <r>    14.5846     6.1755    85.2791 </r>
       <r>    14.6772     5.0390    85.7457 </r>
       <r>    14.7698     4.3532    86.1488 </r>
       <r>    14.8624     4.7267    86.5865 </r>
       <r>    14.9550     4.5958    87.0120 </r>
       <r>    15.0476     4.3731    87.4169 </r>
       <r>    15.1402     3.3449    87.7267 </r>
       <r>    15.2328     1.7895    87.8924 </r>
       <r>    15.3254     0.8984    87.9755 </r>
       <r>    15.4180     0.2453    87.9983 </r>
       <r>    15.5105     0.0185    88.0000 </r>
       <r>    15.6031     0.0003    88.0000 </r>
       <r>    15.6957     0.0000    88.0000 </r>
       <r>    15.7883     0.0000    88.0000 </r>
       <r>    15.8809     0.0000    88.0000 </r>
       <r>    15.9735     0.0000    88.0000 </r>
       <r>    16.0661     0.0000    88.0000 </r>
       <r>    16.1587     0.0000    88.0000 </r>
       <r>    16.2513     0.0000    88.0000 </r>
       <r>    16.3439     0.0000    88.0000 </r>
       <r>    16.4365     0.0000    88.0000 </r>
       <r>    16.5291     0.0000    88.0000 </r>
      </set>
     </set>
    </array>
   </total>
  </dos>
 </calculation>
 <structure name="finalpos" >
  <crystal>
   <varray name="basis" >
    <v>       5.42903083       0.00000000      -0.03378084 </v>
    <v>       0.00000000       3.14153504       0.00000000 </v>
    <v>      -0.06307892       0.00000000      10.02709678 </v>
   </varray>
   <i name="volume">    171.01036081 </i>
   <varray name="rec_basis" >
    <v>       0.18420215       0.00000000       0.00115879 </v>
    <v>       0.00000000       0.31831572       0.00000000 </v>
    <v>       0.00062057       0.00000000       0.09973367 </v>
   </varray>
  </crystal>
  <varray name="positions" >
   <v>       0.32545531       0.00000000       0.50919538 </v>
   <v>       0.84368701       0.50000000       0.50448206 </v>
   <v>       0.65743039       0.00000000       0.23802497 </v>
   <v>       0.16061338       0.50000000       0.74718597 </v>
   <v>       0.33801716       0.00000000       0.98583183 </v>
   <v>       0.83529877       0.50000000       0.99079916 </v>
   <v>       0.17107940       0.50000000       0.24914153 </v>
   <v>       0.67082014       0.00000000       0.75648862 </v>
   <v>       0.32254779       0.00000000       0.69200373 </v>
   <v>       0.83945227       0.50000000       0.68153731 </v>
   <v>       0.17304067       0.50000000       0.44207261 </v>
   <v>       0.67352927       0.00000000       0.95131263 </v>
   <v>       0.34002472       0.00000000       0.18847414 </v>
   <v>       0.81882119       0.50000000       0.20211000 </v>
   <v>       0.66382860       0.00000000       0.42949926 </v>
   <v>       0.16635394       0.50000000       0.93184081 </v>
  </varray>
 </structure>
</modeling>
