<?xml version="1.0" encoding="ISO-8859-1"?>
<modeling>
 <generator>
  <i name="program" type="string">vasp </i>
  <i name="version" type="string">5.3.5  </i>
  <i name="subversion" type="string">31Mar14 (build Jun 20 2014 13:15:13) complex                          parallel </i>
  <i name="platform" type="string">LinuxIFC </i>
  <i name="date" type="string">2025 12 12 </i>
  <i name="time" type="string">11:57:46 </i>
 </generator>
 <incar>
  <i type="string" name="PREC">accurate</i>
  <i type="int" name="IALGO">    38</i>
  <i type="logical" name="ADDGRID"> T  </i>
  <i type="int" name="ISPIN">     2</i>
  <i type="int" name="NELM">   100</i>
  <i type="int" name="NELMIN">     4</i>
  <i name="EDIFF">      0.00000100</i>
  <i name="ENCUT">    500.00000000</i>
  <i type="logical" name="LREAL"> F  </i>
  <i type="int" name="ISMEAR">     0</i>
  <i name="SIGMA">      0.05000000</i>
  <i type="logical" name="LWAVE"> F  </i>
  <i type="logical" name="LCHARG"> F  </i>
  <i type="int" name="NELM">   100</i>
  <i type="logical" name="LDAU"> T  </i>
  <v name="LDAUU">      0.00000000      4.00000000      0.00000000</v>
  <v name="LDAUJ">      0.00000000      0.00000000      0.00000000</v>
 </incar>
 <kpoints>
  <generation param="Auto">
   <i name="subdivisionlength">     20.00000000 </i>
   <v type="int" name="divisions">       5        3        1 </v>
   <v name="usershift">      0.00000000       0.00000000       0.00000000 </v>
   <v name="genvec1">      0.20000000       0.00000000       0.00000000 </v>
   <v name="genvec2">      0.00000000       0.33333333       0.00000000 </v>
   <v name="genvec3">      0.00000000       0.00000000       1.00000000 </v>
   <v name="shift">      0.00000000       0.00000000       0.00000000 </v>
  </generation>
  <varray name="kpointlist" >
   <v>       0.00000000       0.00000000       0.00000000 </v>
   <v>       0.20000000       0.00000000       0.00000000 </v>
   <v>       0.40000000       0.00000000       0.00000000 </v>
   <v>       0.00000000       0.33333333       0.00000000 </v>
   <v>       0.20000000       0.33333333       0.00000000 </v>
   <v>       0.40000000       0.33333333       0.00000000 </v>
  </varray>
  <varray name="weights" >
   <v>       0.06666667 </v>
   <v>       0.13333333 </v>
   <v>       0.13333333 </v>
   <v>       0.13333333 </v>
   <v>       0.26666667 </v>
   <v>       0.26666667 </v>
  </varray>
 </kpoints>
 <parameters>
  <separator name="general" >
   <i type="string" name="SYSTEM">unknown system</i>
   <i type="logical" name="LCOMPAT"> F  </i>
  </separator>
  <separator name="electronic" >
   <i type="string" name="PREC">accura</i>
   <i name="ENMAX">    500.00000000</i>
   <i name="ENAUG">    586.98000000</i>
   <i name="EDIFF">      0.00000100</i>
   <i type="int" name="IALGO">    38</i>
   <i type="int" name="IWAVPR">    10</i>
   <i type="int" name="NBANDS">   176</i>
   <i name="NELECT">    264.00000000</i>
   <i type="int" name="TURBO">     0</i>
   <i type="int" name="IRESTART">     0</i>
   <i type="int" name="NREBOOT">     0</i>
   <i type="int" name="NMIN">     0</i>
   <i name="EREF">      0.00000000</i>
   <separator name="electronic smearing" >
    <i type="int" name="ISMEAR">     0</i>
    <i name="SIGMA">      0.05000000</i>
    <i name="KSPACING">      0.50000000</i>
    <i type="logical" name="KGAMMA"> T  </i>
   </separator>
   <separator name="electronic projectors" >
    <i type="logical" name="LREAL"> F  </i>
    <v name="ROPT">      0.00000000      0.00000000      0.00000000</v>
    <i type="int" name="LMAXPAW">  -100</i>
    <i type="int" name="LMAXMIX">     2</i>
    <i type="logical" name="NLSPLINE"> F  </i>
   </separator>
   <separator name="electronic startup" >
    <i type="int" name="ISTART">     0</i>
    <i type="int" name="ICHARG">     2</i>
    <i type="int" name="INIWAV">     1</i>
   </separator>
   <separator name="electronic spin" >
    <i type="int" name="ISPIN">     2</i>
    <i type="logical" name="LNONCOLLINEAR"> F  </i>
    <v name="MAGMOM">      1.00000000      1.00000000      1.00000000      1.00000000      1.00000000      1.00000000      1.00000000      1.00000000      1.00000000      1.00000000      1.00000000      1.00000000      1.00000000      1.00000000      1.00000000      1.00000000      1.00000000      1.00000000      1.00000000      1.00000000
      1.00000000      1.00000000      1.00000000      1.00000000      1.00000000      1.00000000      1.00000000      1.00000000      1.00000000      1.00000000      1.00000000      1.00000000</v>
    <i name="NUPDOWN">     -1.00000000</i>
    <i type="logical" name="LSORBIT"> F  </i>
    <v name="SAXIS">      0.00000000      0.00000000      1.00000000</v>
    <i type="logical" name="LSPIRAL"> F  </i>
    <v name="QSPIRAL">      0.00000000      0.00000000      0.00000000</v>
    <i type="logical" name="LZEROZ"> F  </i>
   </separator>
   <separator name="electronic exchange-correlation" >
    <i type="logical" name="LASPH"> F  </i>
    <i type="logical" name="LMETAGGA"> F  </i>
   </separator>
   <separator name="electronic convergence" >
    <i type="int" name="NELM">   100</i>
    <i type="int" name="NELMDL">    -5</i>
    <i type="int" name="NELMIN">     4</i>
    <i name="ENINI">    500.00000000</i>
    <separator name="electronic convergence detail" >
     <i type="logical" name="LDIAG"> T  </i>
     <i type="logical" name="LSUBROT"> F  </i>
     <i name="WEIMIN">      0.00000000</i>
     <i name="EBREAK">      0.00000000</i>
     <i name="DEPER">      0.30000000</i>
     <i type="int" name="NRMM">     4</i>
     <i name="TIME">      0.40000000</i>
    </separator>
   </separator>
   <separator name="electronic mixer" >
    <i name="AMIX">      0.40000000</i>
    <i name="BMIX">      1.00000000</i>
    <i name="AMIN">      0.10000000</i>
    <i name="AMIX_MAG">      1.60000000</i>
    <i name="BMIX_MAG">      1.00000000</i>
    <separator name="electronic mixer details" >
     <i type="int" name="IMIX">     4</i>
     <i type="int" name="MAXMIX">   -45</i>
     <i name="WC">    100.00000000</i>
     <i type="int" name="INIMIX">     1</i>
     <i type="int" name="MIXPRE">     1</i>
     <i type="int" name="MREMOVE">     5</i>
    </separator>
   </separator>
   <separator name="electronic dipolcorrection" >
    <i type="logical" name="LDIPOL"> F  </i>
    <i type="logical" name="LMONO"> F  </i>
    <i type="int" name="IDIPOL">     0</i>
    <i name="EPSILON">      1.00000000</i>
    <v name="DIPOL">   -100.00000000   -100.00000000   -100.00000000</v>
    <i name="EFIELD">      0.00000000</i>
   </separator>
  </separator>
  <separator name="grids" >
   <i type="int" name="NGX">    30</i>
   <i type="int" name="NGY">    60</i>
   <i type="int" name="NGZ">   120</i>
   <i type="int" name="NGXF">    60</i>
   <i type="int" name="NGYF">   120</i>
   <i type="int" name="NGZF">   240</i>
   <i type="logical" name="ADDGRID"> T  </i>
  </separator>
  <separator name="ionic" >
   <i type="int" name="NSW">     0</i>
   <i type="int" name="IBRION">    -1</i>
   <i type="int" name="ISIF">     2</i>
   <i name="PSTRESS">      0.00000000</i>
   <i name="EDIFFG">      0.00001000</i>
   <i type="int" name="NFREE">     0</i>
   <i name="POTIM">      0.50000000</i>
   <i name="SMASS">     -3.00000000</i>
   <i name="SCALEE">      1.00000000</i>
  </separator>
  <separator name="ionic md" >
   <i name="TEBEG">      0.00010000</i>
   <i name="TEEND">      0.00010000</i>
   <i type="int" name="NBLOCK">     1</i>
   <i type="int" name="KBLOCK">     1</i>
   <i type="int" name="NPACO">   256</i>
   <i name="APACO">     16.00000000</i>
  </separator>
  <separator name="symmetry" >
   <i type="int" name="ISYM">     2</i>
   <i name="SYMPREC">      0.00001000</i>
  </separator>
  <separator name="dos" >
   <i type="logical" name="LORBIT"> F  </i>
   <v name="RWIGS">     -1.00000000     -1.00000000     -1.00000000</v>
   <i type="int" name="NEDOS">   301</i>
   <i name="EMIN">     10.00000000</i>
   <i name="EMAX">    -10.00000000</i>
   <i name="EFERMI">      0.00000000</i>
  </separator>
  <separator name="writing" >
   <i type="int" name="NWRITE">     2</i>
   <i type="logical" name="LWAVE"> F  </i>
   <i type="logical" name="LCHARG"> F  </i>
   <i type="logical" name="LPARD"> F  </i>
   <i type="logical" name="LVTOT"> F  </i>
   <i type="logical" name="LVHAR"> F  </i>
   <i type="logical" name="LELF"> F  </i>
   <i type="logical" name="LOPTICS"> F  </i>
   <v name="STM">      0.00000000      0.00000000      0.00000000      0.00000000      0.00000000      0.00000000      0.00000000</v>
  </separator>
  <separator name="performance" >
   <i type="int" name="NPAR">     4</i>
   <i type="int" name="NSIM">     4</i>
   <i type="int" name="NBLK">    -1</i>
   <i type="logical" name="LPLANE"> T  </i>
   <i type="logical" name="LSCALAPACK"> T  </i>
   <i type="logical" name="LSCAAWARE"> F  </i>
   <i type="logical" name="LSCALU"> F  </i>
   <i type="logical" name="LASYNC"> F  </i>
   <i type="logical" name="LORBITALREAL"> F  </i>
  </separator>
  <separator name="miscellaneous" >
   <i type="int" name="IDIOT">     3</i>
   <i type="logical" name="LMUSIC"> F  </i>
   <v name="POMASS">     87.62000000     63.54600000     16.00000000</v>
   <v name="DARWINR">      0.00000000      0.00000000      0.00000000</v>
   <v name="DARWINV">      1.00000000      1.00000000      1.00000000</v>
   <i type="logical" name="LCORR"> T  </i>
  </separator>
  <i type="logical" name="GGA_COMPAT"> T  </i>
  <i type="logical" name="LBERRY"> F  </i>
  <i type="int" name="ICORELEVEL">     0</i>
  <i type="logical" name="LDAU"> T  </i>
  <v type="int" name="LDAUTYPE">     2</v>
  <v type="int" name="LDAUL">     2</v>
  <v name="LDAUU">      0.00000000</v>
  <v name="LDAUJ">      0.00000000</v>
  <i type="int" name="LDAUPRINT">     0</i>
  <i type="int" name="I_CONSTRAINED_M">     0</i>
  <separator name="electronic exchange-correlation" >
   <i type="string" name="GGA">--</i>
   <i type="int" name="VOSKOWN">     0</i>
   <i type="logical" name="LHFCALC"> F  </i>
   <i type="string" name="PRECFOCK"></i>
   <i type="logical" name="LSYMGRAD"> F  </i>
   <i type="logical" name="LHFONE"> F  </i>
   <i type="logical" name="LRHFCALC"> F  </i>
   <i type="logical" name="LTHOMAS"> F  </i>
   <i type="logical" name="LMODELHF"> F  </i>
   <i name="ENCUT4O">     -1.00000000</i>
   <i type="int" name="EXXOEP">     0</i>
   <i type="int" name="FOURORBIT">     0</i>
   <i name="AEXX">      0.00000000</i>
   <i name="HFALPHA">      0.00000000</i>
   <i name="MCALPHA">      0.00000000</i>
   <i name="ALDAX">      1.00000000</i>
   <i name="AGGAX">      1.00000000</i>
   <i name="ALDAC">      1.00000000</i>
   <i name="AGGAC">      1.00000000</i>
   <i type="int" name="NKREDX">     1</i>
   <i type="int" name="NKREDY">     1</i>
   <i type="int" name="NKREDZ">     1</i>
   <i type="logical" name="SHIFTRED"> F  </i>
   <i type="logical" name="ODDONLY"> F  </i>
   <i type="logical" name="EVENONLY"> F  </i>
   <i type="int" name="LMAXFOCK">     0</i>
   <i type="int" name="NMAXFOCKAE">     0</i>
   <i type="logical" name="LFOCKAEDFT"> F  </i>
   <i name="HFSCREEN">      0.00000000</i>
   <i name="HFSCREENC">      0.00000000</i>
   <i type="int" name="NBANDSGWLOW">     0</i>
  </separator>
  <separator name="vdW DFT" >
   <i type="logical" name="LUSE_VDW"> F  </i>
   <i name="Zab_VDW">     -0.84910000</i>
   <i name="PARAM1">      0.12340000</i>
   <i name="PARAM2">      1.00000000</i>
   <i name="PARAM3">      0.00000000</i>
  </separator>
  <separator name="model GW" >
   <i type="int" name="MODEL_GW">     0</i>
   <i name="MODEL_EPS0">      9.60000000</i>
   <i name="MODEL_ALPHA">      1.00000000</i>
  </separator>
  <separator name="linear response parameters" >
   <i type="logical" name="LEPSILON"> F  </i>
   <i type="logical" name="LRPA"> F  </i>
   <i type="logical" name="LNABLA"> F  </i>
   <i type="logical" name="LVEL"> F  </i>
   <i type="int" name="KINTER">     0</i>
   <i name="CSHIFT">      0.10000000</i>
   <i name="OMEGAMAX">     -1.00000000</i>
   <i name="DEG_THRESHOLD">      0.00200000</i>
  </separator>
  <separator name="orbital magnetization" >
   <i type="logical" name="NUCIND"> F  </i>
   <v name="MAGPOS">      0.00000000      0.00000000      0.00000000</v>
   <i type="logical" name="LNICSALL"> T  </i>
   <i type="logical" name="ORBITALMAG"> F  </i>
   <i type="logical" name="LMAGBLOCH"> F  </i>
   <i type="logical" name="LCHIMAG"> F  </i>
   <i type="logical" name="LGAUGE"> T  </i>
   <i type="int" name="MAGATOM">     0</i>
   <v name="MAGDIPOL">      0.00000000      0.00000000      0.00000000</v>
   <v name="AVECCONST">      0.00000000      0.00000000      0.00000000</v>
  </separator>
  <separator name="response functions" >
   <i type="logical" name="LADDER"> F  </i>
   <i type="logical" name="LFXC"> F  </i>
   <i type="logical" name="LHARTREE"> T  </i>
   <i type="int" name="IBSE">     0</i>
   <i type="logical" name="LTCTE"> F  </i>
   <i type="logical" name="LTETE"> F  </i>
   <i type="logical" name="LTRIPLET"> F  </i>
   <i type="logical" name="LFXCEPS"> F  </i>
   <i type="logical" name="LFXHEG"> F  </i>
   <i type="logical" name="L2ORDER"> F  </i>
   <i type="logical" name="LUSEW"> F  </i>
   <i name="ENCUTGW">     -2.00000000</i>
   <i name="ENCUTGWSOFT">     -2.00000000</i>
   <i name="ENCUTLF">     -1.00000000</i>
   <i type="int" name="LMAXMP2">    -1</i>
   <i name="SCISSOR">      0.00000000</i>
   <i type="int" name="NOMEGA">     0</i>
   <i type="int" name="NOMEGAR">     0</i>
   <i type="int" name="NBANDSGW">    -1</i>
   <i type="int" name="NBANDSO">    -1</i>
   <i type="int" name="NBANDSV">    -1</i>
   <i type="int" name="NELM">   100</i>
   <i type="int" name="DIM">     3</i>
   <i type="int" name="ANTIRES">     0</i>
   <i name="OMEGAMAX">    -30.00000000</i>
   <i name="OMEGAMIN">    -30.00000000</i>
   <i name="OMEGATL">   -200.00000000</i>
   <i type="int" name="OMEGAGRID">     0</i>
   <i name="CSHIFT">     -0.10000000</i>
   <i type="logical" name="SELFENERGY"> F  </i>
   <i type="logical" name="LSPECTRAL"> F  </i>
   <i type="logical" name="ODDONLYGW"> F  </i>
   <i type="logical" name="EVENONLYGW"> F  </i>
   <i type="int" name="NKREDLFX">     1</i>
   <i type="int" name="NKREDLFY">     1</i>
   <i type="int" name="NKREDLFZ">     1</i>
   <i type="int" name="MAXMEM">  1800</i>
   <i type="int" name="TELESCOPE">     0</i>
   <i type="int" name="TAUPAR">     1</i>
  </separator>
  <separator name="External order field" >
   <i name="OFIELD_KAPPA">      0.00000000</i>
   <v name="OFIELD_K">      0.00000000      0.00000000      0.00000000</v>
   <i name="OFIELD_Q6_NEAR">      0.00000000</i>
   <i name="OFIELD_Q6_FAR">      0.00000000</i>
   <i name="OFIELD_A">      0.00000000</i>
  </separator>
 </parameters>
 <atominfo>
  <atoms>      32 </atoms>
  <types>       3 </types>
  <array name="atoms" >
   <dimension dim="1">ion</dimension>
   <field type="string">element</field>
   <field type="int">atomtype</field>
   <set>
    <rc><c>Sr</c><c>   1</c></rc>
    <rc><c>Sr</c><c>   1</c></rc>
    <rc><c>Sr</c><c>   1</c></rc>
    <rc><c>Sr</c><c>   1</c></rc>
    <rc><c>Sr</c><c>   1</c></rc>
    <rc><c>Sr</c><c>   1</c></rc>
    <rc><c>Sr</c><c>   1</c></rc>
    <rc><c>Sr</c><c>   1</c></rc>
    <rc><c>Cu</c><c>   2</c></rc>
    <rc><c>Cu</c><c>   2</c></rc>
    <rc><c>Cu</c><c>   2</c></rc>
    <rc><c>Cu</c><c>   2</c></rc>
    <rc><c>Cu</c><c>   2</c></rc>
    <rc><c>Cu</c><c>   2</c></rc>
    <rc><c>Cu</c><c>   2</c></rc>
    <rc><c>Cu</c><c>   2</c></rc>
    <rc><c>O </c><c>   3</c></rc>
    <rc><c>O </c><c>   3</c></rc>
    <rc><c>O </c><c>   3</c></rc>
    <rc><c>O </c><c>   3</c></rc>
    <rc><c>O </c><c>   3</c></rc>
    <rc><c>O </c><c>   3</c></rc>
    <rc><c>O </c><c>   3</c></rc>
    <rc><c>O </c><c>   3</c></rc>
    <rc><c>O </c><c>   3</c></rc>
    <rc><c>O </c><c>   3</c></rc>
    <rc><c>O </c><c>   3</c></rc>
    <rc><c>O </c><c>   3</c></rc>
    <rc><c>O </c><c>   3</c></rc>
    <rc><c>O </c><c>   3</c></rc>
    <rc><c>O </c><c>   3</c></rc>
    <rc><c>O </c><c>   3</c></rc>
   </set>
  </array>
  <array name="atomtypes" >
   <dimension dim="1">type</dimension>
   <field type="int">atomspertype</field>
   <field type="string">element</field>
   <field>mass</field>
   <field>valence</field>
   <field type="string">pseudopotential</field>
   <set>
    <rc><c>   8</c><c>Sr</c><c>     87.62000000</c><c>     10.00000000</c><c>  PAW_PBE Sr_sv 07Sep2000               </c></rc>
    <rc><c>   8</c><c>Cu</c><c>     63.54600000</c><c>     11.00000000</c><c>  PAW_PBE Cu 22Jun2005                  </c></rc>
    <rc><c>  16</c><c>O </c><c>     16.00000000</c><c>      6.00000000</c><c>  PAW_PBE O_s 07Sep2000                 </c></rc>
   </set>
  </array>
 </atominfo>
 <structure name="initialpos" >
  <crystal>
   <varray name="basis" >
    <v>       4.00000000       0.00000000       0.00000000 </v>
    <v>       0.00000000       8.00000000       0.00000000 </v>
    <v>       0.00000000       0.00000000      16.00000000 </v>
   </varray>
   <i name="volume">    512.00000000 </i>
   <varray name="rec_basis" >
    <v>       0.25000000       0.00000000       0.00000000 </v>
    <v>       0.00000000       0.12500000       0.00000000 </v>
    <v>       0.00000000       0.00000000       0.06250000 </v>
   </varray>
  </crystal>
  <varray name="positions" >
   <v>       0.00000000       0.25000000       0.25000000 </v>
   <v>       0.00000000       0.75000000       0.50000000 </v>
   <v>       0.00000000       0.75000000       0.25000000 </v>
   <v>       0.00000000       0.25000000       0.50000000 </v>
   <v>       0.00000000       0.75000000       0.75000000 </v>
   <v>       0.00000000       0.25000000       0.00000000 </v>
   <v>       0.00000000       0.25000000       0.75000000 </v>
   <v>       0.00000000       0.75000000       0.00000000 </v>
   <v>       0.50000000       0.00000000       0.62500000 </v>
   <v>       0.50000000       0.00000000       0.37500000 </v>
   <v>       0.50000000       0.50000000       0.62500000 </v>
   <v>       0.50000000       0.50000000       0.37500000 </v>
   <v>       0.50000000       0.50000000       0.12500000 </v>
   <v>       0.50000000       0.50000000       0.87500000 </v>
   <v>       0.50000000       0.00000000       0.12500000 </v>
   <v>       0.50000000       0.00000000       0.87500000 </v>
   <v>       0.50000000       0.00000000       0.50000000 </v>
   <v>       0.50000000       0.00000000       0.25000000 </v>
   <v>       0.50000000       0.50000000       0.50000000 </v>
   <v>       0.00000000       0.00000000       0.37500000 </v>
   <v>       0.00000000       0.50000000       0.62500000 </v>
   <v>       0.00000000       0.50000000       0.37500000 </v>
   <v>       0.50000000       0.75000000       0.62500000 </v>
   <v>       0.50000000       0.25000000       0.62500000 </v>
   <v>       0.50000000       0.50000000       0.00000000 </v>
   <v>       0.50000000       0.50000000       0.75000000 </v>
   <v>       0.50000000       0.00000000       0.00000000 </v>
   <v>       0.00000000       0.50000000       0.87500000 </v>
   <v>       0.00000000       0.00000000       0.12500000 </v>
   <v>       0.00000000       0.00000000       0.87500000 </v>
   <v>       0.50000000       0.25000000       0.12500000 </v>
   <v>       0.50000000       0.75000000       0.12500000 </v>
  </varray>
 </structure>
 <calculation>
  <scstep>
   <time name="dav">    5.67    5.67</time>
   <time name="total">    5.96    5.97</time>
   <energy>
    <i name="alphaZ">   1197.30728288 </i>
    <i name="ewald"> -17172.72757505 </i>
    <i name="hartreedc">  -7715.57897744 </i>
    <i name="XCdc">   1086.30175604 </i>
    <i name="pawpsdc">  20377.93945936 </i>
    <i name="pawaedc"> -21035.46554250 </i>
    <i name="eentropy">     -0.00721190 </i>
    <i name="bandstr">   1939.08554818 </i>
    <i name="atom">  24790.01456472 </i>
    <i name="e_fr_energy">   3466.86930429 </i>
    <i name="e_wo_entrp">   3466.87651619 </i>
    <i name="e_0_energy">   3466.87291024 </i>
   </energy>
  </scstep>
  <scstep>
   <time name="dav">    5.76    5.77</time>
   <time name="total">    5.76    5.78</time>
   <energy>
    <i name="e_fr_energy">    410.26613162 </i>
    <i name="e_wo_entrp">    410.28079479 </i>
    <i name="e_0_energy">    410.27346321 </i>
   </energy>
  </scstep>
  <scstep>
   <time name="dav">    5.73    5.74</time>
   <time name="total">    5.74    5.75</time>
   <energy>
    <i name="e_fr_energy">   -140.20601660 </i>
    <i name="e_wo_entrp">   -140.18389358 </i>
    <i name="e_0_energy">   -140.19495509 </i>
   </energy>
  </scstep>
  <scstep>
   <time name="dav">    7.39    7.40</time>
   <time name="total">    7.39    7.41</time>
   <energy>
    <i name="e_fr_energy">   -191.36696594 </i>
    <i name="e_wo_entrp">   -191.34745932 </i>
    <i name="e_0_energy">   -191.35721263 </i>
   </energy>
  </scstep>
  <scstep>
   <time name="dav">    9.08    9.08</time>
   <time name="total">    9.55    9.57</time>
   <energy>
    <i name="e_fr_energy">   -194.62189519 </i>
    <i name="e_wo_entrp">   -194.60333402 </i>
    <i name="e_0_energy">   -194.61261461 </i>
   </energy>
  </scstep>
  <scstep>
   <time name="dav">    7.88    7.89</time>
   <time name="total">    8.64    8.66</time>
   <energy>
    <i name="e_fr_energy">   -169.36191454 </i>
    <i name="e_wo_entrp">   -169.34242895 </i>
    <i name="e_0_energy">   -169.35217175 </i>
   </energy>
  </scstep>
  <scstep>
   <time name="dav">    7.67    7.67</time>
   <time name="total">    8.42    8.44</time>
   <energy>
    <i name="e_fr_energy">   -158.10119848 </i>
    <i name="e_wo_entrp">   -158.07840451 </i>
    <i name="e_0_energy">   -158.08980149 </i>
   </energy>
  </scstep>
  <scstep>
   <time name="dav">    8.33    8.33</time>
   <time name="total">    9.09    9.11</time>
   <energy>
    <i name="e_fr_energy">   -159.97691434 </i>
    <i name="e_wo_entrp">   -159.95958133 </i>
    <i name="e_0_energy">   -159.96824783 </i>
   </energy>
  </scstep>
  <scstep>
   <time name="dav">    8.07    8.07</time>
   <time name="total">    8.82    8.84</time>
   <energy>
    <i name="e_fr_energy">   -164.06908211 </i>
    <i name="e_wo_entrp">   -164.05547335 </i>
    <i name="e_0_energy">   -164.06227773 </i>
   </energy>
  </scstep>
  <scstep>
   <time name="dav">    7.61    7.61</time>
   <time name="total">    8.37    8.38</time>
   <energy>
    <i name="e_fr_energy">   -159.09084294 </i>
    <i name="e_wo_entrp">   -159.07721396 </i>
    <i name="e_0_energy">   -159.08402845 </i>
   </energy>
  </scstep>
  <scstep>
   <time name="dav">    8.24    8.24</time>
   <time name="total">    8.99    9.01</time>
   <energy>
    <i name="e_fr_energy">   -156.46389020 </i>
    <i name="e_wo_entrp">   -156.45005745 </i>
    <i name="e_0_energy">   -156.45697382 </i>
   </energy>
  </scstep>
  <scstep>
   <time name="dav">    8.05    8.06</time>
   <time name="total">    8.81    8.83</time>
   <energy>
    <i name="e_fr_energy">   -156.89906840 </i>
    <i name="e_wo_entrp">   -156.88859918 </i>
    <i name="e_0_energy">   -156.89383379 </i>
   </energy>
  </scstep>
  <scstep>
   <time name="dav">    7.99    8.00</time>
   <time name="total">    8.75    8.77</time>
   <energy>
    <i name="e_fr_energy">   -156.96905598 </i>
    <i name="e_wo_entrp">   -156.95630881 </i>
    <i name="e_0_energy">   -156.96268240 </i>
   </energy>
  </scstep>
  <scstep>
   <time name="dav">    7.55    7.56</time>
   <time name="total">    8.31    8.33</time>
   <energy>
    <i name="e_fr_energy">   -157.19913699 </i>
    <i name="e_wo_entrp">   -157.18403077 </i>
    <i name="e_0_energy">   -157.19158388 </i>
   </energy>
  </scstep>
  <scstep>
   <time name="dav">    7.70    7.70</time>
   <time name="total">    8.46    8.47</time>
   <energy>
    <i name="e_fr_energy">   -157.66037041 </i>
    <i name="e_wo_entrp">   -157.64126191 </i>
    <i name="e_0_energy">   -157.65081616 </i>
   </energy>
  </scstep>
  <scstep>
   <time name="dav">    7.73    7.74</time>
   <time name="total">    8.50    8.51</time>
   <energy>
    <i name="e_fr_energy">   -157.78647075 </i>
    <i name="e_wo_entrp">   -157.76564060 </i>
    <i name="e_0_energy">   -157.77605567 </i>
   </energy>
  </scstep>
  <scstep>
   <time name="dav">    8.12    8.13</time>
   <time name="total">    8.88    8.90</time>
   <energy>
    <i name="e_fr_energy">   -157.81783989 </i>
    <i name="e_wo_entrp">   -157.79624102 </i>
    <i name="e_0_energy">   -157.80704046 </i>
   </energy>
  </scstep>
  <scstep>
   <time name="dav">    8.08    8.08</time>
   <time name="total">    8.84    8.85</time>
   <energy>
    <i name="e_fr_energy">   -157.82259706 </i>
    <i name="e_wo_entrp">   -157.80094979 </i>
    <i name="e_0_energy">   -157.81177343 </i>
   </energy>
  </scstep>
  <scstep>
   <time name="dav">    7.86    7.86</time>
   <time name="total">    8.62    8.64</time>
   <energy>
    <i name="e_fr_energy">   -157.83096154 </i>
    <i name="e_wo_entrp">   -157.81022683 </i>
    <i name="e_0_energy">   -157.82059419 </i>
   </energy>
  </scstep>
  <scstep>
   <time name="dav">    7.80    7.80</time>
   <time name="total">    8.56    8.57</time>
   <energy>
    <i name="e_fr_energy">   -157.83510052 </i>
    <i name="e_wo_entrp">   -157.81617184 </i>
    <i name="e_0_energy">   -157.82563618 </i>
   </energy>
  </scstep>
  <scstep>
   <time name="dav">    8.22    8.22</time>
   <time name="total">    8.98    8.99</time>
   <energy>
    <i name="e_fr_energy">   -157.83708735 </i>
    <i name="e_wo_entrp">   -157.81893375 </i>
    <i name="e_0_energy">   -157.82801055 </i>
   </energy>
  </scstep>
  <scstep>
   <time name="dav">    7.99    7.99</time>
   <time name="total">    8.75    8.76</time>
   <energy>
    <i name="e_fr_energy">   -157.83777171 </i>
    <i name="e_wo_entrp">   -157.81985191 </i>
    <i name="e_0_energy">   -157.82881181 </i>
   </energy>
  </scstep>
  <scstep>
   <time name="dav">    7.73    7.74</time>
   <time name="total">    8.49    8.51</time>
   <energy>
    <i name="e_fr_energy">   -157.83849075 </i>
    <i name="e_wo_entrp">   -157.82139392 </i>
    <i name="e_0_energy">   -157.82994234 </i>
   </energy>
  </scstep>
  <scstep>
   <time name="dav">    7.92    7.93</time>
   <time name="total">    8.68    8.70</time>
   <energy>
    <i name="e_fr_energy">   -157.83931575 </i>
    <i name="e_wo_entrp">   -157.82403661 </i>
    <i name="e_0_energy">   -157.83167618 </i>
   </energy>
  </scstep>
  <scstep>
   <time name="dav">    8.00    8.01</time>
   <time name="total">    8.76    8.78</time>
   <energy>
    <i name="e_fr_energy">   -157.83986766 </i>
    <i name="e_wo_entrp">   -157.82624113 </i>
    <i name="e_0_energy">   -157.83305440 </i>
   </energy>
  </scstep>
  <scstep>
   <time name="dav">    8.32    8.32</time>
   <time name="total">    9.08    9.10</time>
   <energy>
    <i name="e_fr_energy">   -157.84011740 </i>
    <i name="e_wo_entrp">   -157.82775673 </i>
    <i name="e_0_energy">   -157.83393707 </i>
   </energy>
  </scstep>
  <scstep>
   <time name="dav">    8.28    8.28</time>
   <time name="total">    9.04    9.05</time>
   <energy>
    <i name="e_fr_energy">   -157.84022612 </i>
    <i name="e_wo_entrp">   -157.82862186 </i>
    <i name="e_0_energy">   -157.83442399 </i>
   </energy>
  </scstep>
  <scstep>
   <time name="dav">    8.17    8.18</time>
   <time name="total">    8.93    8.95</time>
   <energy>
    <i name="e_fr_energy">   -157.84026503 </i>
    <i name="e_wo_entrp">   -157.82900564 </i>
    <i name="e_0_energy">   -157.83463534 </i>
   </energy>
  </scstep>
  <scstep>
   <time name="dav">    7.35    7.36</time>
   <time name="total">    8.11    8.13</time>
   <energy>
    <i name="e_fr_energy">   -157.84027964 </i>
    <i name="e_wo_entrp">   -157.82903973 </i>
    <i name="e_0_energy">   -157.83465969 </i>
   </energy>
  </scstep>
  <scstep>
   <time name="dav">    6.88    6.89</time>
   <time name="total">    7.64    7.66</time>
   <energy>
    <i name="e_fr_energy">   -157.84028659 </i>
    <i name="e_wo_entrp">   -157.82913830 </i>
    <i name="e_0_energy">   -157.83471245 </i>
   </energy>
  </scstep>
  <scstep>
   <time name="dav">    6.16    6.16</time>
   <time name="total">    6.92    6.94</time>
   <energy>
    <i name="e_fr_energy">   -157.84029188 </i>
    <i name="e_wo_entrp">   -157.82911918 </i>
    <i name="e_0_energy">   -157.83470553 </i>
   </energy>
  </scstep>
  <scstep>
   <time name="dav">    6.45    6.45</time>
   <time name="total">    7.21    7.23</time>
   <energy>
    <i name="e_fr_energy">   -157.84029647 </i>
    <i name="e_wo_entrp">   -157.82922968 </i>
    <i name="e_0_energy">   -157.83476307 </i>
   </energy>
  </scstep>
  <scstep>
   <time name="dav">    5.99    5.99</time>
   <time name="total">    6.75    6.76</time>
   <energy>
    <i name="e_fr_energy">   -157.84029911 </i>
    <i name="e_wo_entrp">   -157.82922464 </i>
    <i name="e_0_energy">   -157.83476187 </i>
   </energy>
  </scstep>
  <scstep>
   <time name="dav">    4.14    4.14</time>
   <time name="total">    4.90    4.91</time>
   <energy>
    <i name="e_fr_energy">   -157.84030053 </i>
    <i name="e_wo_entrp">   -157.82925272 </i>
    <i name="e_0_energy">   -157.83477663 </i>
   </energy>
  </scstep>
  <scstep>
   <time name="dav">    4.09    4.09</time>
   <time name="total">    4.85    4.86</time>
   <energy>
    <i name="e_fr_energy">   -157.84030153 </i>
    <i name="e_wo_entrp">   -157.82926421 </i>
    <i name="e_0_energy">   -157.83478287 </i>
   </energy>
  </scstep>
  <scstep>
   <time name="dav">    4.20    4.20</time>
   <time name="total">    4.48    4.50</time>
   <energy>
    <i name="alphaZ">   1197.30728288 </i>
    <i name="ewald"> -17172.72757505 </i>
    <i name="hartreedc">  -7725.42235646 </i>
    <i name="XCdc">   1086.86797058 </i>
    <i name="pawpsdc">  31091.88212280 </i>
    <i name="pawaedc"> -31822.26684411 </i>
    <i name="eentropy">     -0.01103078 </i>
    <i name="bandstr">  -1603.48443678 </i>
    <i name="atom">  24790.01456472 </i>
    <i name="e_fr_energy">   -157.84030219 </i>
    <i name="e_wo_entrp">   -157.82927141 </i>
    <i name="e_0_energy">   -157.83478680 </i>
   </energy>
  </scstep>
  <structure>
   <crystal>
    <varray name="basis" >
     <v>       4.00000000       0.00000000       0.00000000 </v>
     <v>       0.00000000       8.00000000       0.00000000 </v>
     <v>       0.00000000       0.00000000      16.00000000 </v>
    </varray>
    <i name="volume">    512.00000000 </i>
    <varray name="rec_basis" >
     <v>       0.25000000       0.00000000       0.00000000 </v>
     <v>       0.00000000       0.12500000       0.00000000 </v>
     <v>       0.00000000       0.00000000       0.06250000 </v>
    </varray>
   </crystal>
   <varray name="positions" >
    <v>       0.00000000       0.25000000       0.25000000 </v>
    <v>       0.00000000       0.75000000       0.50000000 </v>
    <v>       0.00000000       0.75000000       0.25000000 </v>
    <v>       0.00000000       0.25000000       0.50000000 </v>
    <v>       0.00000000       0.75000000       0.75000000 </v>
    <v>       0.00000000       0.25000000       0.00000000 </v>
    <v>       0.00000000       0.25000000       0.75000000 </v>
    <v>       0.00000000       0.75000000       0.00000000 </v>
    <v>       0.50000000       0.00000000       0.62500000 </v>
    <v>       0.50000000       0.00000000       0.37500000 </v>
    <v>       0.50000000       0.50000000       0.62500000 </v>
    <v>       0.50000000       0.50000000       0.37500000 </v>
    <v>       0.50000000       0.50000000       0.12500000 </v>
    <v>       0.50000000       0.50000000       0.87500000 </v>
    <v>       0.50000000       0.00000000       0.12500000 </v>
    <v>       0.50000000       0.00000000       0.87500000 </v>
    <v>       0.50000000       0.00000000       0.50000000 </v>
    <v>       0.50000000       0.00000000       0.25000000 </v>
    <v>       0.50000000       0.50000000       0.50000000 </v>
    <v>       0.00000000       0.00000000       0.37500000 </v>
    <v>       0.00000000       0.50000000       0.62500000 </v>
    <v>       0.00000000       0.50000000       0.37500000 </v>
    <v>       0.50000000       0.75000000       0.62500000 </v>
    <v>       0.50000000       0.25000000       0.62500000 </v>
    <v>       0.50000000       0.50000000       0.00000000 </v>
    <v>       0.50000000       0.50000000       0.75000000 </v>
    <v>       0.50000000       0.00000000       0.00000000 </v>
    <v>       0.00000000       0.50000000       0.87500000 </v>
    <v>       0.00000000       0.00000000       0.12500000 </v>
    <v>       0.00000000       0.00000000       0.87500000 </v>
    <v>       0.50000000       0.25000000       0.12500000 </v>
    <v>       0.50000000       0.75000000       0.12500000 </v>
   </varray>
  </structure>
  <varray name="forces" >
   <v>       0.00000000      -2.01900711      -0.92647639 </v>
   <v>       0.00000000      -0.64454654       0.86469509 </v>
   <v>       0.00000000       2.01900711      -0.92647639 </v>
   <v>       0.00000000       0.64454654       0.86469509 </v>
   <v>       0.00000000      -2.01900711      -0.92647639 </v>
   <v>       0.00000000      -0.64454654       0.86469509 </v>
   <v>       0.00000000       2.01900711      -0.92647639 </v>
   <v>       0.00000000       0.64454654       0.86469509 </v>
   <v>       0.00000000       0.00000000      -0.57623201 </v>
   <v>       0.00000000       0.00000000       0.17234382 </v>
   <v>       0.00000000       0.00000000      -0.28606404 </v>
   <v>       0.00000000       0.00000000       0.65123596 </v>
   <v>       0.00000000       0.00000000      -0.57623201 </v>
   <v>       0.00000000       0.00000000       0.17234382 </v>
   <v>       0.00000000       0.00000000      -0.28606404 </v>
   <v>       0.00000000       0.00000000       0.65123596 </v>
   <v>       0.00000000       0.00000000      -1.03246188 </v>
   <v>       0.00000000       0.00000000       1.33682857 </v>
   <v>       0.00000000       0.00000000      -0.17267365 </v>
   <v>       0.00000000       0.00000000      -0.15364804 </v>
   <v>       0.00000000       0.00000000       0.17252167 </v>
   <v>       0.00000000       0.00000000      -1.37820770 </v>
   <v>       0.00000000       2.03201726       0.69495995 </v>
   <v>       0.00000000      -2.03201726       0.69495995 </v>
   <v>       0.00000000       0.00000000      -1.03246188 </v>
   <v>       0.00000000       0.00000000       1.33682857 </v>
   <v>       0.00000000       0.00000000      -0.17267365 </v>
   <v>       0.00000000       0.00000000      -0.15364804 </v>
   <v>       0.00000000       0.00000000       0.17252167 </v>
   <v>       0.00000000       0.00000000      -1.37820770 </v>
   <v>       0.00000000       2.03201726       0.69495995 </v>
   <v>       0.00000000      -2.03201726       0.69495995 </v>
  </varray>
  <varray name="stress" >
   <v>     -95.79643472       0.00000000       0.00000000 </v>
   <v>       0.00000000    -117.95403954       0.00000000 </v>
   <v>       0.00000000       0.00000000     -71.84662329 </v>
  </varray>
  <energy>
   <i name="e_fr_energy">   -157.84030219 </i>
   <i name="e_wo_entrp">   -157.83478680 </i>
   <i name="e_0_energy">     -0.01103078 </i>
  </energy>
  <time name="totalsc">  296.40  297.04</time>
  <eigenvalues>
   <array>
    <dimension dim="1">band</dimension>
    <dimension dim="2">kpoint</dimension>
    <dimension dim="3">spin</dimension>
    <field>eigene</field>
    <field>occ</field>
    <set>
     <set comment="spin 1">
      <set comment="kpoint 1">
       <r>  -31.7557    1.0000 </r>
       <r>  -31.7556    1.0000 </r>
       <r>  -31.7428    1.0000 </r>
       <r>  -31.7428    1.0000 </r>
       <r>  -31.0090    1.0000 </r>
       <r>  -31.0089    1.0000 </r>
       <r>  -30.9954    1.0000 </r>
       <r>  -30.9953    1.0000 </r>
       <r>  -15.1034    1.0000 </r>
       <r>  -15.0580    1.0000 </r>
       <r>  -14.8570    1.0000 </r>
       <r>  -14.8311    1.0000 </r>
       <r>  -14.7569    1.0000 </r>
       <r>  -14.6823    1.0000 </r>
       <r>  -14.3566    1.0000 </r>
       <r>  -14.2963    1.0000 </r>
       <r>  -14.2879    1.0000 </r>
       <r>  -14.2641    1.0000 </r>
       <r>  -13.9384    1.0000 </r>
       <r>  -13.8148    1.0000 </r>
       <r>  -13.7992    1.0000 </r>
       <r>  -13.7100    1.0000 </r>
       <r>  -13.7098    1.0000 </r>
       <r>  -13.6836    1.0000 </r>
       <r>  -13.6835    1.0000 </r>
       <r>  -13.6624    1.0000 </r>
       <r>  -13.6586    1.0000 </r>
       <r>  -13.6577    1.0000 </r>
       <r>  -13.5051    1.0000 </r>
       <r>  -13.4590    1.0000 </r>
       <r>  -13.4558    1.0000 </r>
       <r>  -13.4309    1.0000 </r>
       <r>  -13.3936    1.0000 </r>
       <r>  -13.2721    1.0000 </r>
       <r>  -13.1914    1.0000 </r>
       <r>  -13.1196    1.0000 </r>
       <r>  -12.9427    1.0000 </r>
       <r>  -12.9270    1.0000 </r>
       <r>  -12.9267    1.0000 </r>
       <r>  -12.9145    1.0000 </r>
       <r>  -12.8917    1.0000 </r>
       <r>  -12.8914    1.0000 </r>
       <r>  -12.8283    1.0000 </r>
       <r>  -12.8115    1.0000 </r>
       <r>  -12.7945    1.0000 </r>
       <r>  -12.7581    1.0000 </r>
       <r>  -12.4031    1.0000 </r>
       <r>  -12.3892    1.0000 </r>
       <r>   -3.0711    1.0000 </r>
       <r>   -3.0501    1.0000 </r>
       <r>   -2.7058    1.0000 </r>
       <r>   -2.6305    1.0000 </r>
       <r>   -2.0599    1.0000 </r>
       <r>   -2.0431    1.0000 </r>
       <r>   -2.0176    1.0000 </r>
       <r>   -1.9524    1.0000 </r>
       <r>   -1.6264    1.0000 </r>
       <r>   -1.6206    1.0000 </r>
       <r>   -1.5945    1.0000 </r>
       <r>   -1.5934    1.0000 </r>
       <r>   -1.2722    1.0000 </r>
       <r>   -1.2687    1.0000 </r>
       <r>   -1.2482    1.0000 </r>
       <r>   -1.2473    1.0000 </r>
       <r>   -1.2025    1.0000 </r>
       <r>   -1.1563    1.0000 </r>
       <r>   -1.0000    1.0000 </r>
       <r>   -0.9135    1.0000 </r>
       <r>   -0.8712    1.0000 </r>
       <r>   -0.8600    1.0000 </r>
       <r>   -0.8285    1.0000 </r>
       <r>   -0.8271    1.0000 </r>
       <r>   -0.7841    1.0000 </r>
       <r>   -0.7831    1.0000 </r>
       <r>   -0.6881    1.0000 </r>
       <r>   -0.6556    1.0000 </r>
       <r>   -0.6427    1.0000 </r>
       <r>   -0.6301    1.0000 </r>
       <r>   -0.6107    1.0000 </r>
       <r>   -0.5501    1.0000 </r>
       <r>   -0.5001    1.0000 </r>
       <r>   -0.4986    1.0000 </r>
       <r>   -0.4970    1.0000 </r>
       <r>   -0.4937    1.0000 </r>
       <r>   -0.4533    1.0000 </r>
       <r>   -0.4276    1.0000 </r>
       <r>   -0.3908    1.0000 </r>
       <r>   -0.3799    1.0000 </r>
       <r>   -0.3757    1.0000 </r>
       <r>   -0.3745    1.0000 </r>
       <r>   -0.3725    1.0000 </r>
       <r>   -0.3513    1.0000 </r>
       <r>   -0.2468    1.0000 </r>
       <r>   -0.2390    1.0000 </r>
       <r>   -0.1897    1.0000 </r>
       <r>   -0.1886    1.0000 </r>
       <r>   -0.1118    1.0000 </r>
       <r>   -0.0945    1.0000 </r>
       <r>   -0.0309    1.0000 </r>
       <r>   -0.0242    1.0000 </r>
       <r>    0.1430    1.0000 </r>
       <r>    0.1636    1.0000 </r>
       <r>    0.1734    1.0000 </r>
       <r>    0.3784    1.0000 </r>
       <r>    0.4628    1.0000 </r>
       <r>    0.5062    1.0000 </r>
       <r>    0.7295    1.0000 </r>
       <r>    0.8105    1.0000 </r>
       <r>    0.8732    1.0000 </r>
       <r>    0.9685    1.0000 </r>
       <r>    1.0903    1.0000 </r>
       <r>    1.1084    1.0000 </r>
       <r>    1.1116    1.0000 </r>
       <r>    1.1203    1.0000 </r>
       <r>    1.1428    1.0000 </r>
       <r>    1.1598    1.0000 </r>
       <r>    1.5831    1.0000 </r>
       <r>    1.5961    1.0000 </r>
       <r>    1.6144    1.0000 </r>
       <r>    1.6238    1.0000 </r>
       <r>    1.7064    1.0000 </r>
       <r>    1.7167    1.0000 </r>
       <r>    1.7564    1.0000 </r>
       <r>    1.7585    1.0000 </r>
       <r>    1.7621    1.0000 </r>
       <r>    1.7904    1.0000 </r>
       <r>    1.7997    1.0000 </r>
       <r>    1.8269    1.0000 </r>
       <r>    1.8797    1.0000 </r>
       <r>    2.0156    1.0000 </r>
       <r>    2.0337    1.0000 </r>
       <r>    2.0420    1.0000 </r>
       <r>    2.1116    1.0000 </r>
       <r>    2.1696    1.0000 </r>
       <r>    2.3457    1.0000 </r>
       <r>    2.3955    1.0000 </r>
       <r>    3.3603    0.0000 </r>
       <r>    3.6737    0.0000 </r>
       <r>    4.7557    0.0000 </r>
       <r>    5.1522    0.0000 </r>
       <r>    5.5471    0.0000 </r>
       <r>    5.5837    0.0000 </r>
       <r>    5.5926    0.0000 </r>
       <r>    6.1897    0.0000 </r>
       <r>    6.7881    0.0000 </r>
       <r>    7.1567    0.0000 </r>
       <r>    7.3589    0.0000 </r>
       <r>    7.5107    0.0000 </r>
       <r>    7.5339    0.0000 </r>
       <r>    7.5981    0.0000 </r>
       <r>    7.7587    0.0000 </r>
       <r>    7.9199    0.0000 </r>
       <r>    8.1926    0.0000 </r>
       <r>    8.2129    0.0000 </r>
       <r>    8.3003    0.0000 </r>
       <r>    8.3623    0.0000 </r>
       <r>    8.3790    0.0000 </r>
       <r>    8.3797    0.0000 </r>
       <r>    8.7273    0.0000 </r>
       <r>    8.7886    0.0000 </r>
       <r>    9.0683    0.0000 </r>
       <r>    9.0888    0.0000 </r>
       <r>    9.2710    0.0000 </r>
       <r>    9.3462    0.0000 </r>
       <r>    9.3558    0.0000 </r>
       <r>    9.3883    0.0000 </r>
       <r>    9.4191    0.0000 </r>
       <r>    9.5278    0.0000 </r>
       <r>    9.7262    0.0000 </r>
       <r>    9.7340    0.0000 </r>
       <r>    9.8010    0.0000 </r>
       <r>    9.8772    0.0000 </r>
       <r>    9.8832    0.0000 </r>
       <r>   10.0173    0.0000 </r>
       <r>   10.0630    0.0000 </r>
       <r>   10.0633    0.0000 </r>
      </set>
      <set comment="kpoint 2">
       <r>  -31.7513    1.0000 </r>
       <r>  -31.7512    1.0000 </r>
       <r>  -31.7387    1.0000 </r>
       <r>  -31.7386    1.0000 </r>
       <r>  -31.0043    1.0000 </r>
       <r>  -31.0042    1.0000 </r>
       <r>  -30.9911    1.0000 </r>
       <r>  -30.9911    1.0000 </r>
       <r>  -15.0048    1.0000 </r>
       <r>  -14.9766    1.0000 </r>
       <r>  -14.7516    1.0000 </r>
       <r>  -14.7485    1.0000 </r>
       <r>  -14.7218    1.0000 </r>
       <r>  -14.6636    1.0000 </r>
       <r>  -14.3259    1.0000 </r>
       <r>  -14.2824    1.0000 </r>
       <r>  -14.2610    1.0000 </r>
       <r>  -14.1929    1.0000 </r>
       <r>  -14.0384    1.0000 </r>
       <r>  -13.9813    1.0000 </r>
       <r>  -13.8719    1.0000 </r>
       <r>  -13.8391    1.0000 </r>
       <r>  -13.7658    1.0000 </r>
       <r>  -13.7606    1.0000 </r>
       <r>  -13.7242    1.0000 </r>
       <r>  -13.7172    1.0000 </r>
       <r>  -13.6397    1.0000 </r>
       <r>  -13.6394    1.0000 </r>
       <r>  -13.4961    1.0000 </r>
       <r>  -13.4570    1.0000 </r>
       <r>  -13.4441    1.0000 </r>
       <r>  -13.3567    1.0000 </r>
       <r>  -13.3298    1.0000 </r>
       <r>  -13.3182    1.0000 </r>
       <r>  -13.2246    1.0000 </r>
       <r>  -13.1463    1.0000 </r>
       <r>  -13.0398    1.0000 </r>
       <r>  -13.0369    1.0000 </r>
       <r>  -12.8680    1.0000 </r>
       <r>  -12.8639    1.0000 </r>
       <r>  -12.8463    1.0000 </r>
       <r>  -12.8083    1.0000 </r>
       <r>  -12.8057    1.0000 </r>
       <r>  -12.7895    1.0000 </r>
       <r>  -12.7156    1.0000 </r>
       <r>  -12.7124    1.0000 </r>
       <r>  -12.5103    1.0000 </r>
       <r>  -12.4914    1.0000 </r>
       <r>   -3.0669    1.0000 </r>
       <r>   -3.0410    1.0000 </r>
       <r>   -2.7241    1.0000 </r>
       <r>   -2.6572    1.0000 </r>
       <r>   -2.0819    1.0000 </r>
       <r>   -2.0566    1.0000 </r>
       <r>   -1.9903    1.0000 </r>
       <r>   -1.9774    1.0000 </r>
       <r>   -1.8885    1.0000 </r>
       <r>   -1.8705    1.0000 </r>
       <r>   -1.8441    1.0000 </r>
       <r>   -1.8279    1.0000 </r>
       <r>   -1.8087    1.0000 </r>
       <r>   -1.7916    1.0000 </r>
       <r>   -1.7913    1.0000 </r>
       <r>   -1.7481    1.0000 </r>
       <r>   -1.7278    1.0000 </r>
       <r>   -1.7259    1.0000 </r>
       <r>   -1.5036    1.0000 </r>
       <r>   -1.4630    1.0000 </r>
       <r>   -1.2388    1.0000 </r>
       <r>   -1.2144    1.0000 </r>
       <r>   -1.1690    1.0000 </r>
       <r>   -1.1611    1.0000 </r>
       <r>   -1.1607    1.0000 </r>
       <r>   -1.1536    1.0000 </r>
       <r>   -1.0261    1.0000 </r>
       <r>   -0.9682    1.0000 </r>
       <r>   -0.9573    1.0000 </r>
       <r>   -0.9572    1.0000 </r>
       <r>   -0.7761    1.0000 </r>
       <r>   -0.7279    1.0000 </r>
       <r>   -0.6311    1.0000 </r>
       <r>   -0.6018    1.0000 </r>
       <r>   -0.5485    1.0000 </r>
       <r>   -0.5484    1.0000 </r>
       <r>   -0.5465    1.0000 </r>
       <r>   -0.5241    1.0000 </r>
       <r>   -0.4371    1.0000 </r>
       <r>   -0.4018    1.0000 </r>
       <r>   -0.3674    1.0000 </r>
       <r>   -0.3599    1.0000 </r>
       <r>   -0.1486    1.0000 </r>
       <r>   -0.0882    1.0000 </r>
       <r>   -0.0550    1.0000 </r>
       <r>    0.0154    1.0000 </r>
       <r>    0.1129    1.0000 </r>
       <r>    0.1736    1.0000 </r>
       <r>    0.1889    1.0000 </r>
       <r>    0.2667    1.0000 </r>
       <r>    0.5199    1.0000 </r>
       <r>    0.5240    1.0000 </r>
       <r>    0.6101    1.0000 </r>
       <r>    0.6444    1.0000 </r>
       <r>    0.6488    1.0000 </r>
       <r>    0.6905    1.0000 </r>
       <r>    0.7178    1.0000 </r>
       <r>    0.7430    1.0000 </r>
       <r>    0.9064    1.0000 </r>
       <r>    0.9811    1.0000 </r>
       <r>    1.0369    1.0000 </r>
       <r>    1.1044    1.0000 </r>
       <r>    1.1153    1.0000 </r>
       <r>    1.1414    1.0000 </r>
       <r>    1.2048    1.0000 </r>
       <r>    1.2444    1.0000 </r>
       <r>    1.2643    1.0000 </r>
       <r>    1.2781    1.0000 </r>
       <r>    1.4147    1.0000 </r>
       <r>    1.4197    1.0000 </r>
       <r>    1.4725    1.0000 </r>
       <r>    1.5869    1.0000 </r>
       <r>    1.6269    1.0000 </r>
       <r>    1.6755    1.0000 </r>
       <r>    1.7382    1.0000 </r>
       <r>    1.7859    1.0000 </r>
       <r>    1.8211    1.0000 </r>
       <r>    1.8736    1.0000 </r>
       <r>    2.0223    1.0000 </r>
       <r>    2.0785    1.0000 </r>
       <r>    2.1061    1.0000 </r>
       <r>    2.1289    1.0000 </r>
       <r>    2.3487    1.0000 </r>
       <r>    2.3631    1.0000 </r>
       <r>    2.5875    0.5515 </r>
       <r>    2.6347    0.1140 </r>
       <r>    2.8357    0.0000 </r>
       <r>    3.0638    0.0000 </r>
       <r>    4.0625    0.0000 </r>
       <r>    4.0689    0.0000 </r>
       <r>    5.0058    0.0000 </r>
       <r>    5.2315    0.0000 </r>
       <r>    5.2465    0.0000 </r>
       <r>    5.3287    0.0000 </r>
       <r>    5.8678    0.0000 </r>
       <r>    6.1776    0.0000 </r>
       <r>    7.1288    0.0000 </r>
       <r>    7.3062    0.0000 </r>
       <r>    7.5617    0.0000 </r>
       <r>    7.6767    0.0000 </r>
       <r>    7.6976    0.0000 </r>
       <r>    7.7638    0.0000 </r>
       <r>    7.7882    0.0000 </r>
       <r>    7.8329    0.0000 </r>
       <r>    7.9044    0.0000 </r>
       <r>    8.1429    0.0000 </r>
       <r>    8.1753    0.0000 </r>
       <r>    8.4123    0.0000 </r>
       <r>    8.6140    0.0000 </r>
       <r>    8.6601    0.0000 </r>
       <r>    8.6951    0.0000 </r>
       <r>    8.9672    0.0000 </r>
       <r>    8.9922    0.0000 </r>
       <r>    9.0343    0.0000 </r>
       <r>    9.3067    0.0000 </r>
       <r>    9.3277    0.0000 </r>
       <r>    9.3414    0.0000 </r>
       <r>    9.5077    0.0000 </r>
       <r>    9.5790    0.0000 </r>
       <r>    9.6292    0.0000 </r>
       <r>    9.7355    0.0000 </r>
       <r>    9.9096    0.0000 </r>
       <r>    9.9406    0.0000 </r>
       <r>    9.9499    0.0000 </r>
       <r>    9.9752    0.0000 </r>
       <r>   10.0393    0.0000 </r>
       <r>   10.1737    0.0000 </r>
       <r>   10.2057    0.0000 </r>
      </set>
      <set comment="kpoint 3">
       <r>  -31.7442    1.0000 </r>
       <r>  -31.7441    1.0000 </r>
       <r>  -31.7319    1.0000 </r>
       <r>  -31.7319    1.0000 </r>
       <r>  -30.9967    1.0000 </r>
       <r>  -30.9967    1.0000 </r>
       <r>  -30.9843    1.0000 </r>
       <r>  -30.9842    1.0000 </r>
       <r>  -14.8386    1.0000 </r>
       <r>  -14.8281    1.0000 </r>
       <r>  -14.7540    1.0000 </r>
       <r>  -14.7258    1.0000 </r>
       <r>  -14.5394    1.0000 </r>
       <r>  -14.5064    1.0000 </r>
       <r>  -14.3124    1.0000 </r>
       <r>  -14.3121    1.0000 </r>
       <r>  -14.3078    1.0000 </r>
       <r>  -14.3026    1.0000 </r>
       <r>  -14.0335    1.0000 </r>
       <r>  -13.9720    1.0000 </r>
       <r>  -13.8765    1.0000 </r>
       <r>  -13.7853    1.0000 </r>
       <r>  -13.7761    1.0000 </r>
       <r>  -13.7604    1.0000 </r>
       <r>  -13.7430    1.0000 </r>
       <r>  -13.7305    1.0000 </r>
       <r>  -13.6182    1.0000 </r>
       <r>  -13.6175    1.0000 </r>
       <r>  -13.5616    1.0000 </r>
       <r>  -13.5485    1.0000 </r>
       <r>  -13.5294    1.0000 </r>
       <r>  -13.5251    1.0000 </r>
       <r>  -13.2899    1.0000 </r>
       <r>  -13.2682    1.0000 </r>
       <r>  -13.2510    1.0000 </r>
       <r>  -13.2032    1.0000 </r>
       <r>  -13.0988    1.0000 </r>
       <r>  -13.0786    1.0000 </r>
       <r>  -12.9602    1.0000 </r>
       <r>  -12.9465    1.0000 </r>
       <r>  -12.8769    1.0000 </r>
       <r>  -12.8691    1.0000 </r>
       <r>  -12.8182    1.0000 </r>
       <r>  -12.8174    1.0000 </r>
       <r>  -12.6175    1.0000 </r>
       <r>  -12.5954    1.0000 </r>
       <r>  -12.5091    1.0000 </r>
       <r>  -12.5077    1.0000 </r>
       <r>   -3.1198    1.0000 </r>
       <r>   -3.0434    1.0000 </r>
       <r>   -2.9889    1.0000 </r>
       <r>   -2.9806    1.0000 </r>
       <r>   -2.8881    1.0000 </r>
       <r>   -2.7915    1.0000 </r>
       <r>   -2.7405    1.0000 </r>
       <r>   -2.7350    1.0000 </r>
       <r>   -2.4735    1.0000 </r>
       <r>   -2.4463    1.0000 </r>
       <r>   -2.1919    1.0000 </r>
       <r>   -2.0688    1.0000 </r>
       <r>   -2.0409    1.0000 </r>
       <r>   -2.0314    1.0000 </r>
       <r>   -1.9172    1.0000 </r>
       <r>   -1.9055    1.0000 </r>
       <r>   -1.9047    1.0000 </r>
       <r>   -1.8945    1.0000 </r>
       <r>   -1.8492    1.0000 </r>
       <r>   -1.7040    1.0000 </r>
       <r>   -1.5146    1.0000 </r>
       <r>   -1.5058    1.0000 </r>
       <r>   -1.4334    1.0000 </r>
       <r>   -1.3918    1.0000 </r>
       <r>   -1.2949    1.0000 </r>
       <r>   -1.2926    1.0000 </r>
       <r>   -1.1913    1.0000 </r>
       <r>   -1.1809    1.0000 </r>
       <r>   -1.1205    1.0000 </r>
       <r>   -1.0049    1.0000 </r>
       <r>   -0.7723    1.0000 </r>
       <r>   -0.7361    1.0000 </r>
       <r>   -0.6133    1.0000 </r>
       <r>   -0.6007    1.0000 </r>
       <r>   -0.5976    1.0000 </r>
       <r>   -0.5481    1.0000 </r>
       <r>   -0.5192    1.0000 </r>
       <r>   -0.5058    1.0000 </r>
       <r>   -0.4529    1.0000 </r>
       <r>   -0.4273    1.0000 </r>
       <r>   -0.4069    1.0000 </r>
       <r>   -0.3129    1.0000 </r>
       <r>   -0.1199    1.0000 </r>
       <r>    0.0632    1.0000 </r>
       <r>    0.0992    1.0000 </r>
       <r>    0.1646    1.0000 </r>
       <r>    0.2297    1.0000 </r>
       <r>    0.3546    1.0000 </r>
       <r>    0.3687    1.0000 </r>
       <r>    0.5605    1.0000 </r>
       <r>    0.7611    1.0000 </r>
       <r>    0.8059    1.0000 </r>
       <r>    0.8284    1.0000 </r>
       <r>    0.9352    1.0000 </r>
       <r>    0.9356    1.0000 </r>
       <r>    0.9411    1.0000 </r>
       <r>    1.0463    1.0000 </r>
       <r>    1.0563    1.0000 </r>
       <r>    1.0765    1.0000 </r>
       <r>    1.1573    1.0000 </r>
       <r>    1.2387    1.0000 </r>
       <r>    1.2418    1.0000 </r>
       <r>    1.2572    1.0000 </r>
       <r>    1.2924    1.0000 </r>
       <r>    1.3432    1.0000 </r>
       <r>    1.3558    1.0000 </r>
       <r>    1.3695    1.0000 </r>
       <r>    1.4137    1.0000 </r>
       <r>    1.4514    1.0000 </r>
       <r>    1.4547    1.0000 </r>
       <r>    1.4791    1.0000 </r>
       <r>    1.5068    1.0000 </r>
       <r>    1.6087    1.0000 </r>
       <r>    1.6460    1.0000 </r>
       <r>    1.8530    1.0000 </r>
       <r>    1.9063    1.0000 </r>
       <r>    1.9094    1.0000 </r>
       <r>    2.0314    1.0000 </r>
       <r>    2.3265    1.0000 </r>
       <r>    2.3538    1.0000 </r>
       <r>    2.3882    1.0000 </r>
       <r>    2.4058    1.0000 </r>
       <r>    2.4556    0.9999 </r>
       <r>    2.5234    0.9740 </r>
       <r>    2.8620    0.0000 </r>
       <r>    3.1241    0.0000 </r>
       <r>    3.8821    0.0000 </r>
       <r>    3.8930    0.0000 </r>
       <r>    4.6736    0.0000 </r>
       <r>    4.7889    0.0000 </r>
       <r>    4.8038    0.0000 </r>
       <r>    4.8248    0.0000 </r>
       <r>    5.0607    0.0000 </r>
       <r>    5.1860    0.0000 </r>
       <r>    6.1945    0.0000 </r>
       <r>    6.2802    0.0000 </r>
       <r>    7.0234    0.0000 </r>
       <r>    7.2642    0.0000 </r>
       <r>    7.4515    0.0000 </r>
       <r>    7.8713    0.0000 </r>
       <r>    7.9498    0.0000 </r>
       <r>    7.9852    0.0000 </r>
       <r>    8.1522    0.0000 </r>
       <r>    8.1622    0.0000 </r>
       <r>    8.2541    0.0000 </r>
       <r>    8.4829    0.0000 </r>
       <r>    8.6860    0.0000 </r>
       <r>    8.8059    0.0000 </r>
       <r>    8.8076    0.0000 </r>
       <r>    8.9128    0.0000 </r>
       <r>    8.9339    0.0000 </r>
       <r>    9.1167    0.0000 </r>
       <r>    9.1991    0.0000 </r>
       <r>    9.3118    0.0000 </r>
       <r>    9.3219    0.0000 </r>
       <r>    9.4444    0.0000 </r>
       <r>    9.4981    0.0000 </r>
       <r>    9.6058    0.0000 </r>
       <r>    9.7449    0.0000 </r>
       <r>    9.9645    0.0000 </r>
       <r>   10.0403    0.0000 </r>
       <r>   10.1564    0.0000 </r>
       <r>   10.2204    0.0000 </r>
       <r>   10.3127    0.0000 </r>
       <r>   10.4147    0.0000 </r>
       <r>   10.5713    0.0000 </r>
       <r>   10.7259    0.0000 </r>
       <r>   10.7733    0.0000 </r>
      </set>
      <set comment="kpoint 4">
       <r>  -31.7525    1.0000 </r>
       <r>  -31.7524    1.0000 </r>
       <r>  -31.7460    1.0000 </r>
       <r>  -31.7460    1.0000 </r>
       <r>  -31.0056    1.0000 </r>
       <r>  -31.0055    1.0000 </r>
       <r>  -30.9988    1.0000 </r>
       <r>  -30.9987    1.0000 </r>
       <r>  -15.0350    1.0000 </r>
       <r>  -15.0035    1.0000 </r>
       <r>  -14.8584    1.0000 </r>
       <r>  -14.8528    1.0000 </r>
       <r>  -14.7783    1.0000 </r>
       <r>  -14.7006    1.0000 </r>
       <r>  -14.3929    1.0000 </r>
       <r>  -14.3844    1.0000 </r>
       <r>  -14.2123    1.0000 </r>
       <r>  -14.2053    1.0000 </r>
       <r>  -13.9197    1.0000 </r>
       <r>  -13.9073    1.0000 </r>
       <r>  -13.8768    1.0000 </r>
       <r>  -13.7897    1.0000 </r>
       <r>  -13.7037    1.0000 </r>
       <r>  -13.7035    1.0000 </r>
       <r>  -13.6900    1.0000 </r>
       <r>  -13.6898    1.0000 </r>
       <r>  -13.6799    1.0000 </r>
       <r>  -13.6583    1.0000 </r>
       <r>  -13.4633    1.0000 </r>
       <r>  -13.4523    1.0000 </r>
       <r>  -13.4265    1.0000 </r>
       <r>  -13.4156    1.0000 </r>
       <r>  -13.3646    1.0000 </r>
       <r>  -13.2691    1.0000 </r>
       <r>  -13.1661    1.0000 </r>
       <r>  -13.1484    1.0000 </r>
       <r>  -12.9183    1.0000 </r>
       <r>  -12.9180    1.0000 </r>
       <r>  -12.9102    1.0000 </r>
       <r>  -12.9006    1.0000 </r>
       <r>  -12.9003    1.0000 </r>
       <r>  -12.8954    1.0000 </r>
       <r>  -12.8063    1.0000 </r>
       <r>  -12.7889    1.0000 </r>
       <r>  -12.6935    1.0000 </r>
       <r>  -12.6832    1.0000 </r>
       <r>  -12.4870    1.0000 </r>
       <r>  -12.4746    1.0000 </r>
       <r>   -2.8570    1.0000 </r>
       <r>   -2.8054    1.0000 </r>
       <r>   -2.6404    1.0000 </r>
       <r>   -2.5190    1.0000 </r>
       <r>   -2.0738    1.0000 </r>
       <r>   -1.9997    1.0000 </r>
       <r>   -1.9742    1.0000 </r>
       <r>   -1.9580    1.0000 </r>
       <r>   -1.6226    1.0000 </r>
       <r>   -1.6196    1.0000 </r>
       <r>   -1.5660    1.0000 </r>
       <r>   -1.5654    1.0000 </r>
       <r>   -1.5555    1.0000 </r>
       <r>   -1.5222    1.0000 </r>
       <r>   -1.3395    1.0000 </r>
       <r>   -1.2999    1.0000 </r>
       <r>   -1.2363    1.0000 </r>
       <r>   -1.2131    1.0000 </r>
       <r>   -1.1976    1.0000 </r>
       <r>   -1.1551    1.0000 </r>
       <r>   -0.9868    1.0000 </r>
       <r>   -0.9377    1.0000 </r>
       <r>   -0.8528    1.0000 </r>
       <r>   -0.8451    1.0000 </r>
       <r>   -0.8439    1.0000 </r>
       <r>   -0.8321    1.0000 </r>
       <r>   -0.7827    1.0000 </r>
       <r>   -0.7819    1.0000 </r>
       <r>   -0.7658    1.0000 </r>
       <r>   -0.7451    1.0000 </r>
       <r>   -0.6552    1.0000 </r>
       <r>   -0.6391    1.0000 </r>
       <r>   -0.5166    1.0000 </r>
       <r>   -0.5142    1.0000 </r>
       <r>   -0.4987    1.0000 </r>
       <r>   -0.4897    1.0000 </r>
       <r>   -0.4618    1.0000 </r>
       <r>   -0.4006    1.0000 </r>
       <r>   -0.3784    1.0000 </r>
       <r>   -0.3771    1.0000 </r>
       <r>   -0.3180    1.0000 </r>
       <r>   -0.3076    1.0000 </r>
       <r>   -0.2595    1.0000 </r>
       <r>   -0.2467    1.0000 </r>
       <r>   -0.2097    1.0000 </r>
       <r>   -0.2040    1.0000 </r>
       <r>   -0.1991    1.0000 </r>
       <r>   -0.1763    1.0000 </r>
       <r>   -0.1402    1.0000 </r>
       <r>   -0.1209    1.0000 </r>
       <r>    0.0489    1.0000 </r>
       <r>    0.0546    1.0000 </r>
       <r>    0.1614    1.0000 </r>
       <r>    0.1821    1.0000 </r>
       <r>    0.5118    1.0000 </r>
       <r>    0.5765    1.0000 </r>
       <r>    0.6453    1.0000 </r>
       <r>    0.7411    1.0000 </r>
       <r>    0.7810    1.0000 </r>
       <r>    0.7993    1.0000 </r>
       <r>    0.9190    1.0000 </r>
       <r>    0.9537    1.0000 </r>
       <r>    0.9898    1.0000 </r>
       <r>    1.0961    1.0000 </r>
       <r>    1.0971    1.0000 </r>
       <r>    1.1553    1.0000 </r>
       <r>    1.2217    1.0000 </r>
       <r>    1.3183    1.0000 </r>
       <r>    1.4195    1.0000 </r>
       <r>    1.4715    1.0000 </r>
       <r>    1.6249    1.0000 </r>
       <r>    1.6309    1.0000 </r>
       <r>    1.6335    1.0000 </r>
       <r>    1.6379    1.0000 </r>
       <r>    1.6715    1.0000 </r>
       <r>    1.6751    1.0000 </r>
       <r>    1.8157    1.0000 </r>
       <r>    1.8250    1.0000 </r>
       <r>    1.8305    1.0000 </r>
       <r>    1.8344    1.0000 </r>
       <r>    1.8765    1.0000 </r>
       <r>    1.9795    1.0000 </r>
       <r>    2.0421    1.0000 </r>
       <r>    2.0468    1.0000 </r>
       <r>    2.0891    1.0000 </r>
       <r>    2.2630    1.0000 </r>
       <r>    2.3899    1.0000 </r>
       <r>    2.4657    0.9998 </r>
       <r>    3.6155    0.0000 </r>
       <r>    3.7514    0.0000 </r>
       <r>    4.7714    0.0000 </r>
       <r>    5.0119    0.0000 </r>
       <r>    5.0860    0.0000 </r>
       <r>    5.2128    0.0000 </r>
       <r>    6.1370    0.0000 </r>
       <r>    6.4319    0.0000 </r>
       <r>    6.8244    0.0000 </r>
       <r>    7.1198    0.0000 </r>
       <r>    7.4079    0.0000 </r>
       <r>    7.5221    0.0000 </r>
       <r>    7.7382    0.0000 </r>
       <r>    7.7664    0.0000 </r>
       <r>    7.9166    0.0000 </r>
       <r>    8.0899    0.0000 </r>
       <r>    8.0908    0.0000 </r>
       <r>    8.1119    0.0000 </r>
       <r>    8.2027    0.0000 </r>
       <r>    8.2221    0.0000 </r>
       <r>    8.6334    0.0000 </r>
       <r>    8.6985    0.0000 </r>
       <r>    8.7464    0.0000 </r>
       <r>    8.7741    0.0000 </r>
       <r>    8.8645    0.0000 </r>
       <r>    8.8699    0.0000 </r>
       <r>    9.0789    0.0000 </r>
       <r>    9.0811    0.0000 </r>
       <r>    9.3499    0.0000 </r>
       <r>    9.4312    0.0000 </r>
       <r>    9.4779    0.0000 </r>
       <r>    9.6368    0.0000 </r>
       <r>    9.7497    0.0000 </r>
       <r>    9.7692    0.0000 </r>
       <r>    9.8330    0.0000 </r>
       <r>    9.8643    0.0000 </r>
       <r>    9.8774    0.0000 </r>
       <r>    9.8832    0.0000 </r>
       <r>   10.0545    0.0000 </r>
       <r>   10.0997    0.0000 </r>
      </set>
      <set comment="kpoint 5">
       <r>  -31.7481    1.0000 </r>
       <r>  -31.7481    1.0000 </r>
       <r>  -31.7418    1.0000 </r>
       <r>  -31.7418    1.0000 </r>
       <r>  -31.0010    1.0000 </r>
       <r>  -31.0009    1.0000 </r>
       <r>  -30.9944    1.0000 </r>
       <r>  -30.9944    1.0000 </r>
       <r>  -14.9460    1.0000 </r>
       <r>  -14.9235    1.0000 </r>
       <r>  -14.7829    1.0000 </r>
       <r>  -14.7790    1.0000 </r>
       <r>  -14.6955    1.0000 </r>
       <r>  -14.6530    1.0000 </r>
       <r>  -14.4053    1.0000 </r>
       <r>  -14.3965    1.0000 </r>
       <r>  -14.1548    1.0000 </r>
       <r>  -14.1412    1.0000 </r>
       <r>  -14.0019    1.0000 </r>
       <r>  -14.0005    1.0000 </r>
       <r>  -13.8818    1.0000 </r>
       <r>  -13.8393    1.0000 </r>
       <r>  -13.8334    1.0000 </r>
       <r>  -13.7912    1.0000 </r>
       <r>  -13.7815    1.0000 </r>
       <r>  -13.7744    1.0000 </r>
       <r>  -13.6226    1.0000 </r>
       <r>  -13.6087    1.0000 </r>
       <r>  -13.4550    1.0000 </r>
       <r>  -13.4548    1.0000 </r>
       <r>  -13.3774    1.0000 </r>
       <r>  -13.3767    1.0000 </r>
       <r>  -13.3669    1.0000 </r>
       <r>  -13.2960    1.0000 </r>
       <r>  -13.2148    1.0000 </r>
       <r>  -13.1950    1.0000 </r>
       <r>  -13.0540    1.0000 </r>
       <r>  -13.0521    1.0000 </r>
       <r>  -12.8524    1.0000 </r>
       <r>  -12.8516    1.0000 </r>
       <r>  -12.8415    1.0000 </r>
       <r>  -12.8295    1.0000 </r>
       <r>  -12.7862    1.0000 </r>
       <r>  -12.7727    1.0000 </r>
       <r>  -12.6528    1.0000 </r>
       <r>  -12.6523    1.0000 </r>
       <r>  -12.5447    1.0000 </r>
       <r>  -12.5341    1.0000 </r>
       <r>   -2.8718    1.0000 </r>
       <r>   -2.8177    1.0000 </r>
       <r>   -2.6414    1.0000 </r>
       <r>   -2.5239    1.0000 </r>
       <r>   -2.1216    1.0000 </r>
       <r>   -2.0575    1.0000 </r>
       <r>   -1.9488    1.0000 </r>
       <r>   -1.9326    1.0000 </r>
       <r>   -1.8940    1.0000 </r>
       <r>   -1.8823    1.0000 </r>
       <r>   -1.8435    1.0000 </r>
       <r>   -1.8379    1.0000 </r>
       <r>   -1.7993    1.0000 </r>
       <r>   -1.7909    1.0000 </r>
       <r>   -1.7540    1.0000 </r>
       <r>   -1.7490    1.0000 </r>
       <r>   -1.7237    1.0000 </r>
       <r>   -1.7217    1.0000 </r>
       <r>   -1.5297    1.0000 </r>
       <r>   -1.4738    1.0000 </r>
       <r>   -1.4209    1.0000 </r>
       <r>   -1.4151    1.0000 </r>
       <r>   -1.2747    1.0000 </r>
       <r>   -1.2145    1.0000 </r>
       <r>   -1.1585    1.0000 </r>
       <r>   -1.1568    1.0000 </r>
       <r>   -1.1184    1.0000 </r>
       <r>   -1.1071    1.0000 </r>
       <r>   -1.0035    1.0000 </r>
       <r>   -0.9953    1.0000 </r>
       <r>   -0.9937    1.0000 </r>
       <r>   -0.9772    1.0000 </r>
       <r>   -0.7725    1.0000 </r>
       <r>   -0.7535    1.0000 </r>
       <r>   -0.6303    1.0000 </r>
       <r>   -0.6269    1.0000 </r>
       <r>   -0.5169    1.0000 </r>
       <r>   -0.5133    1.0000 </r>
       <r>   -0.4623    1.0000 </r>
       <r>   -0.4514    1.0000 </r>
       <r>   -0.3573    1.0000 </r>
       <r>   -0.3506    1.0000 </r>
       <r>   -0.1685    1.0000 </r>
       <r>   -0.1292    1.0000 </r>
       <r>   -0.0337    1.0000 </r>
       <r>   -0.0198    1.0000 </r>
       <r>    0.1137    1.0000 </r>
       <r>    0.2193    1.0000 </r>
       <r>    0.3748    1.0000 </r>
       <r>    0.3968    1.0000 </r>
       <r>    0.5305    1.0000 </r>
       <r>    0.5575    1.0000 </r>
       <r>    0.6584    1.0000 </r>
       <r>    0.7319    1.0000 </r>
       <r>    0.7733    1.0000 </r>
       <r>    0.8083    1.0000 </r>
       <r>    0.8108    1.0000 </r>
       <r>    0.8164    1.0000 </r>
       <r>    0.9691    1.0000 </r>
       <r>    0.9849    1.0000 </r>
       <r>    1.0335    1.0000 </r>
       <r>    1.1108    1.0000 </r>
       <r>    1.1558    1.0000 </r>
       <r>    1.2101    1.0000 </r>
       <r>    1.2566    1.0000 </r>
       <r>    1.2677    1.0000 </r>
       <r>    1.2977    1.0000 </r>
       <r>    1.4012    1.0000 </r>
       <r>    1.4124    1.0000 </r>
       <r>    1.4559    1.0000 </r>
       <r>    1.5001    1.0000 </r>
       <r>    1.5317    1.0000 </r>
       <r>    1.5619    1.0000 </r>
       <r>    1.6885    1.0000 </r>
       <r>    1.7413    1.0000 </r>
       <r>    1.8176    1.0000 </r>
       <r>    1.8678    1.0000 </r>
       <r>    1.8747    1.0000 </r>
       <r>    1.9025    1.0000 </r>
       <r>    1.9391    1.0000 </r>
       <r>    2.2000    1.0000 </r>
       <r>    2.2885    1.0000 </r>
       <r>    2.3483    1.0000 </r>
       <r>    2.4131    1.0000 </r>
       <r>    2.6172    0.2385 </r>
       <r>    2.6344    0.1155 </r>
       <r>    2.8879    0.0000 </r>
       <r>    3.0321    0.0000 </r>
       <r>    4.0641    0.0000 </r>
       <r>    4.0703    0.0000 </r>
       <r>    4.9116    0.0000 </r>
       <r>    5.0570    0.0000 </r>
       <r>    5.1852    0.0000 </r>
       <r>    5.3012    0.0000 </r>
       <r>    6.1509    0.0000 </r>
       <r>    6.2838    0.0000 </r>
       <r>    7.2173    0.0000 </r>
       <r>    7.2286    0.0000 </r>
       <r>    7.4193    0.0000 </r>
       <r>    7.5939    0.0000 </r>
       <r>    7.6703    0.0000 </r>
       <r>    7.7718    0.0000 </r>
       <r>    7.9672    0.0000 </r>
       <r>    8.1489    0.0000 </r>
       <r>    8.1696    0.0000 </r>
       <r>    8.1748    0.0000 </r>
       <r>    8.3011    0.0000 </r>
       <r>    8.4167    0.0000 </r>
       <r>    8.6930    0.0000 </r>
       <r>    8.7918    0.0000 </r>
       <r>    8.8312    0.0000 </r>
       <r>    8.8327    0.0000 </r>
       <r>    8.9122    0.0000 </r>
       <r>    8.9271    0.0000 </r>
       <r>    9.1394    0.0000 </r>
       <r>    9.2801    0.0000 </r>
       <r>    9.3048    0.0000 </r>
       <r>    9.3554    0.0000 </r>
       <r>    9.3925    0.0000 </r>
       <r>    9.5767    0.0000 </r>
       <r>    9.6119    0.0000 </r>
       <r>    9.7141    0.0000 </r>
       <r>    9.7748    0.0000 </r>
       <r>    9.8208    0.0000 </r>
       <r>    9.9176    0.0000 </r>
       <r>    9.9387    0.0000 </r>
       <r>    9.9976    0.0000 </r>
       <r>   10.2065    0.0000 </r>
      </set>
      <set comment="kpoint 6">
       <r>  -31.7411    1.0000 </r>
       <r>  -31.7411    1.0000 </r>
       <r>  -31.7350    1.0000 </r>
       <r>  -31.7349    1.0000 </r>
       <r>  -30.9936    1.0000 </r>
       <r>  -30.9935    1.0000 </r>
       <r>  -30.9874    1.0000 </r>
       <r>  -30.9873    1.0000 </r>
       <r>  -14.7838    1.0000 </r>
       <r>  -14.7819    1.0000 </r>
       <r>  -14.7387    1.0000 </r>
       <r>  -14.7067    1.0000 </r>
       <r>  -14.5410    1.0000 </r>
       <r>  -14.4869    1.0000 </r>
       <r>  -14.4595    1.0000 </r>
       <r>  -14.4229    1.0000 </r>
       <r>  -14.2005    1.0000 </r>
       <r>  -14.1795    1.0000 </r>
       <r>  -14.0556    1.0000 </r>
       <r>  -14.0404    1.0000 </r>
       <r>  -13.9767    1.0000 </r>
       <r>  -13.9616    1.0000 </r>
       <r>  -13.7916    1.0000 </r>
       <r>  -13.7836    1.0000 </r>
       <r>  -13.7359    1.0000 </r>
       <r>  -13.7274    1.0000 </r>
       <r>  -13.5867    1.0000 </r>
       <r>  -13.5676    1.0000 </r>
       <r>  -13.5376    1.0000 </r>
       <r>  -13.5026    1.0000 </r>
       <r>  -13.4433    1.0000 </r>
       <r>  -13.4407    1.0000 </r>
       <r>  -13.3328    1.0000 </r>
       <r>  -13.3325    1.0000 </r>
       <r>  -13.2433    1.0000 </r>
       <r>  -13.2252    1.0000 </r>
       <r>  -13.0905    1.0000 </r>
       <r>  -13.0855    1.0000 </r>
       <r>  -12.9453    1.0000 </r>
       <r>  -12.9258    1.0000 </r>
       <r>  -12.7882    1.0000 </r>
       <r>  -12.7870    1.0000 </r>
       <r>  -12.7845    1.0000 </r>
       <r>  -12.7822    1.0000 </r>
       <r>  -12.6499    1.0000 </r>
       <r>  -12.6346    1.0000 </r>
       <r>  -12.5826    1.0000 </r>
       <r>  -12.5823    1.0000 </r>
       <r>   -3.0692    1.0000 </r>
       <r>   -3.0183    1.0000 </r>
       <r>   -2.8910    1.0000 </r>
       <r>   -2.8547    1.0000 </r>
       <r>   -2.7567    1.0000 </r>
       <r>   -2.7399    1.0000 </r>
       <r>   -2.6874    1.0000 </r>
       <r>   -2.6791    1.0000 </r>
       <r>   -2.4522    1.0000 </r>
       <r>   -2.3949    1.0000 </r>
       <r>   -2.1457    1.0000 </r>
       <r>   -2.0745    1.0000 </r>
       <r>   -2.0367    1.0000 </r>
       <r>   -2.0253    1.0000 </r>
       <r>   -1.9652    1.0000 </r>
       <r>   -1.9204    1.0000 </r>
       <r>   -1.8515    1.0000 </r>
       <r>   -1.8480    1.0000 </r>
       <r>   -1.7940    1.0000 </r>
       <r>   -1.7289    1.0000 </r>
       <r>   -1.4857    1.0000 </r>
       <r>   -1.4801    1.0000 </r>
       <r>   -1.4504    1.0000 </r>
       <r>   -1.4229    1.0000 </r>
       <r>   -1.4177    1.0000 </r>
       <r>   -1.3727    1.0000 </r>
       <r>   -1.3379    1.0000 </r>
       <r>   -1.3317    1.0000 </r>
       <r>   -1.2226    1.0000 </r>
       <r>   -1.1377    1.0000 </r>
       <r>   -1.0806    1.0000 </r>
       <r>   -1.0174    1.0000 </r>
       <r>   -0.7422    1.0000 </r>
       <r>   -0.7336    1.0000 </r>
       <r>   -0.7198    1.0000 </r>
       <r>   -0.7094    1.0000 </r>
       <r>   -0.5064    1.0000 </r>
       <r>   -0.5016    1.0000 </r>
       <r>   -0.4449    1.0000 </r>
       <r>   -0.4374    1.0000 </r>
       <r>   -0.4282    1.0000 </r>
       <r>   -0.4213    1.0000 </r>
       <r>   -0.1189    1.0000 </r>
       <r>   -0.0370    1.0000 </r>
       <r>    0.2002    1.0000 </r>
       <r>    0.2308    1.0000 </r>
       <r>    0.4162    1.0000 </r>
       <r>    0.4371    1.0000 </r>
       <r>    0.5615    1.0000 </r>
       <r>    0.6400    1.0000 </r>
       <r>    0.8135    1.0000 </r>
       <r>    0.8613    1.0000 </r>
       <r>    0.9250    1.0000 </r>
       <r>    0.9445    1.0000 </r>
       <r>    0.9811    1.0000 </r>
       <r>    0.9918    1.0000 </r>
       <r>    1.0994    1.0000 </r>
       <r>    1.1173    1.0000 </r>
       <r>    1.1548    1.0000 </r>
       <r>    1.1636    1.0000 </r>
       <r>    1.2033    1.0000 </r>
       <r>    1.2546    1.0000 </r>
       <r>    1.2871    1.0000 </r>
       <r>    1.3196    1.0000 </r>
       <r>    1.3515    1.0000 </r>
       <r>    1.3682    1.0000 </r>
       <r>    1.3775    1.0000 </r>
       <r>    1.4246    1.0000 </r>
       <r>    1.4466    1.0000 </r>
       <r>    1.4496    1.0000 </r>
       <r>    1.4765    1.0000 </r>
       <r>    1.5151    1.0000 </r>
       <r>    1.6501    1.0000 </r>
       <r>    1.6895    1.0000 </r>
       <r>    1.8259    1.0000 </r>
       <r>    1.8737    1.0000 </r>
       <r>    2.0584    1.0000 </r>
       <r>    2.1052    1.0000 </r>
       <r>    2.2695    1.0000 </r>
       <r>    2.2758    1.0000 </r>
       <r>    2.3644    1.0000 </r>
       <r>    2.4108    1.0000 </r>
       <r>    2.4638    0.9999 </r>
       <r>    2.5253    0.9705 </r>
       <r>    2.9991    0.0000 </r>
       <r>    3.1933    0.0000 </r>
       <r>    3.8580    0.0000 </r>
       <r>    3.8715    0.0000 </r>
       <r>    4.6742    0.0000 </r>
       <r>    4.6912    0.0000 </r>
       <r>    5.0115    0.0000 </r>
       <r>    5.0454    0.0000 </r>
       <r>    5.1538    0.0000 </r>
       <r>    5.2598    0.0000 </r>
       <r>    5.9450    0.0000 </r>
       <r>    5.9634    0.0000 </r>
       <r>    7.2134    0.0000 </r>
       <r>    7.4188    0.0000 </r>
       <r>    7.5916    0.0000 </r>
       <r>    7.6873    0.0000 </r>
       <r>    7.8216    0.0000 </r>
       <r>    7.8905    0.0000 </r>
       <r>    7.9567    0.0000 </r>
       <r>    8.1071    0.0000 </r>
       <r>    8.1319    0.0000 </r>
       <r>    8.2816    0.0000 </r>
       <r>    8.6116    0.0000 </r>
       <r>    8.7203    0.0000 </r>
       <r>    8.9956    0.0000 </r>
       <r>    9.0079    0.0000 </r>
       <r>    9.0459    0.0000 </r>
       <r>    9.2031    0.0000 </r>
       <r>    9.2493    0.0000 </r>
       <r>    9.3812    0.0000 </r>
       <r>    9.4577    0.0000 </r>
       <r>    9.4665    0.0000 </r>
       <r>    9.6553    0.0000 </r>
       <r>    9.6999    0.0000 </r>
       <r>    9.7223    0.0000 </r>
       <r>    9.7658    0.0000 </r>
       <r>    9.9481    0.0000 </r>
       <r>   10.0037    0.0000 </r>
       <r>   10.1538    0.0000 </r>
       <r>   10.1646    0.0000 </r>
       <r>   10.2637    0.0000 </r>
       <r>   10.2852    0.0000 </r>
       <r>   10.3713    0.0000 </r>
       <r>   10.4950    0.0000 </r>
      </set>
     </set>
     <set comment="spin 2">
      <set comment="kpoint 1">
       <r>  -31.7540    1.0000 </r>
       <r>  -31.7539    1.0000 </r>
       <r>  -31.7412    1.0000 </r>
       <r>  -31.7411    1.0000 </r>
       <r>  -31.0096    1.0000 </r>
       <r>  -31.0096    1.0000 </r>
       <r>  -30.9960    1.0000 </r>
       <r>  -30.9960    1.0000 </r>
       <r>  -15.0711    1.0000 </r>
       <r>  -15.0354    1.0000 </r>
       <r>  -14.8356    1.0000 </r>
       <r>  -14.8171    1.0000 </r>
       <r>  -14.6764    1.0000 </r>
       <r>  -14.6015    1.0000 </r>
       <r>  -14.2963    1.0000 </r>
       <r>  -14.2376    1.0000 </r>
       <r>  -14.2211    1.0000 </r>
       <r>  -14.1847    1.0000 </r>
       <r>  -13.8886    1.0000 </r>
       <r>  -13.7386    1.0000 </r>
       <r>  -13.7141    1.0000 </r>
       <r>  -13.7085    1.0000 </r>
       <r>  -13.7083    1.0000 </r>
       <r>  -13.6823    1.0000 </r>
       <r>  -13.6822    1.0000 </r>
       <r>  -13.6554    1.0000 </r>
       <r>  -13.6529    1.0000 </r>
       <r>  -13.5619    1.0000 </r>
       <r>  -13.4796    1.0000 </r>
       <r>  -13.4204    1.0000 </r>
       <r>  -13.3966    1.0000 </r>
       <r>  -13.3491    1.0000 </r>
       <r>  -13.2834    1.0000 </r>
       <r>  -13.2208    1.0000 </r>
       <r>  -13.1300    1.0000 </r>
       <r>  -13.0573    1.0000 </r>
       <r>  -12.9281    1.0000 </r>
       <r>  -12.9278    1.0000 </r>
       <r>  -12.9215    1.0000 </r>
       <r>  -12.8991    1.0000 </r>
       <r>  -12.8928    1.0000 </r>
       <r>  -12.8925    1.0000 </r>
       <r>  -12.8172    1.0000 </r>
       <r>  -12.7911    1.0000 </r>
       <r>  -12.7581    1.0000 </r>
       <r>  -12.7255    1.0000 </r>
       <r>  -12.3707    1.0000 </r>
       <r>  -12.3572    1.0000 </r>
       <r>   -2.6286    1.0000 </r>
       <r>   -2.4990    1.0000 </r>
       <r>   -2.2492    1.0000 </r>
       <r>   -2.0389    1.0000 </r>
       <r>   -1.9061    1.0000 </r>
       <r>   -1.8775    1.0000 </r>
       <r>   -1.7375    1.0000 </r>
       <r>   -1.6819    1.0000 </r>
       <r>   -1.4173    1.0000 </r>
       <r>   -1.3962    1.0000 </r>
       <r>   -1.3524    1.0000 </r>
       <r>   -1.3507    1.0000 </r>
       <r>   -1.2196    1.0000 </r>
       <r>   -1.2140    1.0000 </r>
       <r>   -1.1668    1.0000 </r>
       <r>   -1.1509    1.0000 </r>
       <r>   -1.1412    1.0000 </r>
       <r>   -1.0671    1.0000 </r>
       <r>   -0.9682    1.0000 </r>
       <r>   -0.8902    1.0000 </r>
       <r>   -0.8127    1.0000 </r>
       <r>   -0.8025    1.0000 </r>
       <r>   -0.7881    1.0000 </r>
       <r>   -0.7738    1.0000 </r>
       <r>   -0.7736    1.0000 </r>
       <r>   -0.7561    1.0000 </r>
       <r>   -0.6070    1.0000 </r>
       <r>   -0.5968    1.0000 </r>
       <r>   -0.5968    1.0000 </r>
       <r>   -0.5766    1.0000 </r>
       <r>   -0.5717    1.0000 </r>
       <r>   -0.4880    1.0000 </r>
       <r>   -0.4518    1.0000 </r>
       <r>   -0.4512    1.0000 </r>
       <r>   -0.4501    1.0000 </r>
       <r>   -0.4473    1.0000 </r>
       <r>   -0.3764    1.0000 </r>
       <r>   -0.3655    1.0000 </r>
       <r>   -0.3593    1.0000 </r>
       <r>   -0.3572    1.0000 </r>
       <r>   -0.3550    1.0000 </r>
       <r>   -0.3399    1.0000 </r>
       <r>   -0.3289    1.0000 </r>
       <r>   -0.2927    1.0000 </r>
       <r>   -0.2488    1.0000 </r>
       <r>   -0.2452    1.0000 </r>
       <r>   -0.1612    1.0000 </r>
       <r>   -0.1104    1.0000 </r>
       <r>   -0.0674    1.0000 </r>
       <r>   -0.0501    1.0000 </r>
       <r>    0.1526    1.0000 </r>
       <r>    0.1698    1.0000 </r>
       <r>    0.4075    1.0000 </r>
       <r>    0.4503    1.0000 </r>
       <r>    0.5754    1.0000 </r>
       <r>    0.5808    1.0000 </r>
       <r>    0.6994    1.0000 </r>
       <r>    0.7155    1.0000 </r>
       <r>    0.9092    1.0000 </r>
       <r>    1.0291    1.0000 </r>
       <r>    1.0713    1.0000 </r>
       <r>    1.1610    1.0000 </r>
       <r>    1.1764    1.0000 </r>
       <r>    1.1856    1.0000 </r>
       <r>    1.1898    1.0000 </r>
       <r>    1.2135    1.0000 </r>
       <r>    1.2205    1.0000 </r>
       <r>    1.2262    1.0000 </r>
       <r>    1.6505    1.0000 </r>
       <r>    1.6540    1.0000 </r>
       <r>    1.6622    1.0000 </r>
       <r>    1.6675    1.0000 </r>
       <r>    1.8356    1.0000 </r>
       <r>    1.8379    1.0000 </r>
       <r>    1.8447    1.0000 </r>
       <r>    1.8651    1.0000 </r>
       <r>    1.8754    1.0000 </r>
       <r>    1.9035    1.0000 </r>
       <r>    1.9285    1.0000 </r>
       <r>    1.9651    1.0000 </r>
       <r>    1.9904    1.0000 </r>
       <r>    2.1366    1.0000 </r>
       <r>    2.1437    1.0000 </r>
       <r>    2.1511    1.0000 </r>
       <r>    2.1900    1.0000 </r>
       <r>    2.2535    1.0000 </r>
       <r>    2.7424    0.0000 </r>
       <r>    2.7791    0.0000 </r>
       <r>    3.4690    0.0000 </r>
       <r>    3.8437    0.0000 </r>
       <r>    4.9388    0.0000 </r>
       <r>    5.3673    0.0000 </r>
       <r>    5.5658    0.0000 </r>
       <r>    5.6035    0.0000 </r>
       <r>    5.6352    0.0000 </r>
       <r>    6.2220    0.0000 </r>
       <r>    6.8078    0.0000 </r>
       <r>    7.1754    0.0000 </r>
       <r>    7.4048    0.0000 </r>
       <r>    7.5316    0.0000 </r>
       <r>    7.5469    0.0000 </r>
       <r>    7.6126    0.0000 </r>
       <r>    7.7723    0.0000 </r>
       <r>    7.9282    0.0000 </r>
       <r>    8.2244    0.0000 </r>
       <r>    8.2363    0.0000 </r>
       <r>    8.3034    0.0000 </r>
       <r>    8.3894    0.0000 </r>
       <r>    8.4491    0.0000 </r>
       <r>    8.4497    0.0000 </r>
       <r>    8.7291    0.0000 </r>
       <r>    8.7922    0.0000 </r>
       <r>    9.0760    0.0000 </r>
       <r>    9.0994    0.0000 </r>
       <r>    9.2814    0.0000 </r>
       <r>    9.3564    0.0000 </r>
[...]
       <r>     5.2711     8.3351   141.3667 </r>
       <r>     5.4271     3.2029   141.8663 </r>
       <r>     5.5831     0.7432   141.9822 </r>
       <r>     5.7391     0.5415   142.0667 </r>
       <r>     5.8951     0.8469   142.1988 </r>
       <r>     6.0511     3.4238   142.7329 </r>
       <r>     6.2071     4.0146   143.3591 </r>
       <r>     6.3630     3.2460   143.8655 </r>
       <r>     6.5190     0.8565   143.9991 </r>
       <r>     6.6750     0.0062   144.0000 </r>
       <r>     6.8310     0.8696   144.1357 </r>
       <r>     6.9870     0.5421   144.2203 </r>
       <r>     7.1430     2.1548   144.5564 </r>
       <r>     7.2990     6.8598   145.6265 </r>
       <r>     7.4550     5.2955   146.4525 </r>
       <r>     7.6110     6.2236   147.4234 </r>
       <r>     7.7670     9.1606   148.8523 </r>
       <r>     7.9230     9.4191   150.3216 </r>
       <r>     8.0790     7.0065   151.4146 </r>
       <r>     8.2349    15.3579   153.8103 </r>
       <r>     8.3909     6.5598   154.8336 </r>
       <r>     8.5469     3.2627   155.3425 </r>
       <r>     8.7029     7.4503   156.5047 </r>
       <r>     8.8589    12.1273   158.3965 </r>
       <r>     9.0149    11.1148   160.1303 </r>
       <r>     9.1709     8.6983   161.4871 </r>
       <r>     9.3269    10.6670   163.1511 </r>
       <r>     9.4829    14.2707   165.3772 </r>
       <r>     9.6389     9.2721   166.8236 </r>
       <r>     9.7949    14.6580   169.1101 </r>
       <r>     9.9509    12.8462   171.1140 </r>
       <r>    10.1068    11.4421   172.8989 </r>
       <r>    10.2628     9.8749   174.4393 </r>
       <r>    10.4188     5.2159   175.2529 </r>
       <r>    10.5748     2.6652   175.6687 </r>
       <r>    10.7308     0.9868   175.8226 </r>
       <r>    10.8868     1.1365   175.9999 </r>
       <r>    11.0428     0.0006   176.0000 </r>
       <r>    11.1988     0.0000   176.0000 </r>
       <r>    11.3548     0.0000   176.0000 </r>
       <r>    11.5108     0.0000   176.0000 </r>
       <r>    11.6668     0.0000   176.0000 </r>
       <r>    11.8228     0.0000   176.0000 </r>
       <r>    11.9788     0.0000   176.0000 </r>
       <r>    12.1347     0.0000   176.0000 </r>
       <r>    12.2907     0.0000   176.0000 </r>
       <r>    12.4467     0.0000   176.0000 </r>
       <r>    12.6027     0.0000   176.0000 </r>
       <r>    12.7587     0.0000   176.0000 </r>
       <r>    12.9147     0.0000   176.0000 </r>
      </set>
      <set comment="spin 2">
       <r>   -33.8828     0.0000     0.0000 </r>
       <r>   -33.7268     0.0000     0.0000 </r>
       <r>   -33.5709     0.0000     0.0000 </r>
       <r>   -33.4149     0.0000     0.0000 </r>
       <r>   -33.2589     0.0000     0.0000 </r>
       <r>   -33.1029     0.0000     0.0000 </r>
       <r>   -32.9469     0.0000     0.0000 </r>
       <r>   -32.7909     0.0000     0.0000 </r>
       <r>   -32.6349     0.0000     0.0000 </r>
       <r>   -32.4789     0.0000     0.0000 </r>
       <r>   -32.3229     0.0000     0.0000 </r>
       <r>   -32.1669     0.0000     0.0000 </r>
       <r>   -32.0109     0.0000     0.0000 </r>
       <r>   -31.8549     0.0199     0.0031 </r>
       <r>   -31.6990    22.5789     3.5252 </r>
       <r>   -31.5430     3.0435     4.0000 </r>
       <r>   -31.3870     0.0000     4.0000 </r>
       <r>   -31.2310     0.0000     4.0000 </r>
       <r>   -31.0750     0.3681     4.0574 </r>
       <r>   -30.9190    24.8726     7.9373 </r>
       <r>   -30.7630     0.4017     8.0000 </r>
       <r>   -30.6070     0.0000     8.0000 </r>
       <r>   -30.4510     0.0000     8.0000 </r>
       <r>   -30.2950     0.0000     8.0000 </r>
       <r>   -30.1390     0.0000     8.0000 </r>
       <r>   -29.9830     0.0000     8.0000 </r>
       <r>   -29.8271     0.0000     8.0000 </r>
       <r>   -29.6711     0.0000     8.0000 </r>
       <r>   -29.5151     0.0000     8.0000 </r>
       <r>   -29.3591     0.0000     8.0000 </r>
       <r>   -29.2031     0.0000     8.0000 </r>
       <r>   -29.0471     0.0000     8.0000 </r>
       <r>   -28.8911     0.0000     8.0000 </r>
       <r>   -28.7351     0.0000     8.0000 </r>
       <r>   -28.5791     0.0000     8.0000 </r>
       <r>   -28.4231     0.0000     8.0000 </r>
       <r>   -28.2671     0.0000     8.0000 </r>
       <r>   -28.1111     0.0000     8.0000 </r>
       <r>   -27.9551     0.0000     8.0000 </r>
       <r>   -27.7992     0.0000     8.0000 </r>
       <r>   -27.6432     0.0000     8.0000 </r>
       <r>   -27.4872     0.0000     8.0000 </r>
       <r>   -27.3312     0.0000     8.0000 </r>
       <r>   -27.1752     0.0000     8.0000 </r>
       <r>   -27.0192     0.0000     8.0000 </r>
       <r>   -26.8632     0.0000     8.0000 </r>
       <r>   -26.7072     0.0000     8.0000 </r>
       <r>   -26.5512     0.0000     8.0000 </r>
       <r>   -26.3952     0.0000     8.0000 </r>
       <r>   -26.2392     0.0000     8.0000 </r>
       <r>   -26.0832     0.0000     8.0000 </r>
       <r>   -25.9273     0.0000     8.0000 </r>
       <r>   -25.7713     0.0000     8.0000 </r>
       <r>   -25.6153     0.0000     8.0000 </r>
       <r>   -25.4593     0.0000     8.0000 </r>
       <r>   -25.3033     0.0000     8.0000 </r>
       <r>   -25.1473     0.0000     8.0000 </r>
       <r>   -24.9913     0.0000     8.0000 </r>
       <r>   -24.8353     0.0000     8.0000 </r>
       <r>   -24.6793     0.0000     8.0000 </r>
       <r>   -24.5233     0.0000     8.0000 </r>
       <r>   -24.3673     0.0000     8.0000 </r>
       <r>   -24.2113     0.0000     8.0000 </r>
       <r>   -24.0554     0.0000     8.0000 </r>
       <r>   -23.8994     0.0000     8.0000 </r>
       <r>   -23.7434     0.0000     8.0000 </r>
       <r>   -23.5874     0.0000     8.0000 </r>
       <r>   -23.4314     0.0000     8.0000 </r>
       <r>   -23.2754     0.0000     8.0000 </r>
       <r>   -23.1194     0.0000     8.0000 </r>
       <r>   -22.9634     0.0000     8.0000 </r>
       <r>   -22.8074     0.0000     8.0000 </r>
       <r>   -22.6514     0.0000     8.0000 </r>
       <r>   -22.4954     0.0000     8.0000 </r>
       <r>   -22.3394     0.0000     8.0000 </r>
       <r>   -22.1835     0.0000     8.0000 </r>
       <r>   -22.0275     0.0000     8.0000 </r>
       <r>   -21.8715     0.0000     8.0000 </r>
       <r>   -21.7155     0.0000     8.0000 </r>
       <r>   -21.5595     0.0000     8.0000 </r>
       <r>   -21.4035     0.0000     8.0000 </r>
       <r>   -21.2475     0.0000     8.0000 </r>
       <r>   -21.0915     0.0000     8.0000 </r>
       <r>   -20.9355     0.0000     8.0000 </r>
       <r>   -20.7795     0.0000     8.0000 </r>
       <r>   -20.6235     0.0000     8.0000 </r>
       <r>   -20.4675     0.0000     8.0000 </r>
       <r>   -20.3116     0.0000     8.0000 </r>
       <r>   -20.1556     0.0000     8.0000 </r>
       <r>   -19.9996     0.0000     8.0000 </r>
       <r>   -19.8436     0.0000     8.0000 </r>
       <r>   -19.6876     0.0000     8.0000 </r>
       <r>   -19.5316     0.0000     8.0000 </r>
       <r>   -19.3756     0.0000     8.0000 </r>
       <r>   -19.2196     0.0000     8.0000 </r>
       <r>   -19.0636     0.0000     8.0000 </r>
       <r>   -18.9076     0.0000     8.0000 </r>
       <r>   -18.7516     0.0000     8.0000 </r>
       <r>   -18.5956     0.0000     8.0000 </r>
       <r>   -18.4397     0.0000     8.0000 </r>
       <r>   -18.2837     0.0000     8.0000 </r>
       <r>   -18.1277     0.0000     8.0000 </r>
       <r>   -17.9717     0.0000     8.0000 </r>
       <r>   -17.8157     0.0000     8.0000 </r>
       <r>   -17.6597     0.0000     8.0000 </r>
       <r>   -17.5037     0.0000     8.0000 </r>
       <r>   -17.3477     0.0000     8.0000 </r>
       <r>   -17.1917     0.0000     8.0000 </r>
       <r>   -17.0357     0.0000     8.0000 </r>
       <r>   -16.8797     0.0000     8.0000 </r>
       <r>   -16.7237     0.0000     8.0000 </r>
       <r>   -16.5677     0.0000     8.0000 </r>
       <r>   -16.4118     0.0000     8.0000 </r>
       <r>   -16.2558     0.0000     8.0000 </r>
       <r>   -16.0998     0.0000     8.0000 </r>
       <r>   -15.9438     0.0000     8.0000 </r>
       <r>   -15.7878     0.0000     8.0000 </r>
       <r>   -15.6318     0.0000     8.0000 </r>
       <r>   -15.4758     0.0000     8.0000 </r>
       <r>   -15.3198     0.0000     8.0000 </r>
       <r>   -15.1638     0.0019     8.0003 </r>
       <r>   -15.0078     1.6084     8.2512 </r>
       <r>   -14.8518     6.8217     9.3153 </r>
       <r>   -14.6958    13.7653    11.4626 </r>
       <r>   -14.5399    11.5995    13.2720 </r>
       <r>   -14.3839     6.7238    14.3209 </r>
       <r>   -14.2279    11.0324    16.0418 </r>
       <r>   -14.0719    11.3958    17.8195 </r>
       <r>   -13.9159    11.5990    19.6288 </r>
       <r>   -13.7599    19.8834    22.7305 </r>
       <r>   -13.6039    25.1231    26.6495 </r>
       <r>   -13.4479    16.5807    29.2359 </r>
       <r>   -13.2919    20.0340    32.3611 </r>
       <r>   -13.1359    19.6930    35.4330 </r>
       <r>   -12.9799    14.3946    37.6785 </r>
       <r>   -12.8239    19.3966    40.7042 </r>
       <r>   -12.6680    24.9306    44.5931 </r>
       <r>   -12.5120    13.8707    46.7568 </r>
       <r>   -12.3560     7.6069    47.9434 </r>
       <r>   -12.2000     0.3626    48.0000 </r>
       <r>   -12.0440     0.0000    48.0000 </r>
       <r>   -11.8880     0.0000    48.0000 </r>
       <r>   -11.7320     0.0000    48.0000 </r>
       <r>   -11.5760     0.0000    48.0000 </r>
       <r>   -11.4200     0.0000    48.0000 </r>
       <r>   -11.2640     0.0000    48.0000 </r>
       <r>   -11.1080     0.0000    48.0000 </r>
       <r>   -10.9520     0.0000    48.0000 </r>
       <r>   -10.7961     0.0000    48.0000 </r>
       <r>   -10.6401     0.0000    48.0000 </r>
       <r>   -10.4841     0.0000    48.0000 </r>
       <r>   -10.3281     0.0000    48.0000 </r>
       <r>   -10.1721     0.0000    48.0000 </r>
       <r>   -10.0161     0.0000    48.0000 </r>
       <r>    -9.8601     0.0000    48.0000 </r>
       <r>    -9.7041     0.0000    48.0000 </r>
       <r>    -9.5481     0.0000    48.0000 </r>
       <r>    -9.3921     0.0000    48.0000 </r>
       <r>    -9.2361     0.0000    48.0000 </r>
       <r>    -9.0801     0.0000    48.0000 </r>
       <r>    -8.9242     0.0000    48.0000 </r>
       <r>    -8.7682     0.0000    48.0000 </r>
       <r>    -8.6122     0.0000    48.0000 </r>
       <r>    -8.4562     0.0000    48.0000 </r>
       <r>    -8.3002     0.0000    48.0000 </r>
       <r>    -8.1442     0.0000    48.0000 </r>
       <r>    -7.9882     0.0000    48.0000 </r>
       <r>    -7.8322     0.0000    48.0000 </r>
       <r>    -7.6762     0.0000    48.0000 </r>
       <r>    -7.5202     0.0000    48.0000 </r>
       <r>    -7.3642     0.0000    48.0000 </r>
       <r>    -7.2082     0.0000    48.0000 </r>
       <r>    -7.0522     0.0000    48.0000 </r>
       <r>    -6.8963     0.0000    48.0000 </r>
       <r>    -6.7403     0.0000    48.0000 </r>
       <r>    -6.5843     0.0000    48.0000 </r>
       <r>    -6.4283     0.0000    48.0000 </r>
       <r>    -6.2723     0.0000    48.0000 </r>
       <r>    -6.1163     0.0000    48.0000 </r>
       <r>    -5.9603     0.0000    48.0000 </r>
       <r>    -5.8043     0.0000    48.0000 </r>
       <r>    -5.6483     0.0000    48.0000 </r>
       <r>    -5.4923     0.0000    48.0000 </r>
       <r>    -5.3363     0.0000    48.0000 </r>
       <r>    -5.1803     0.0000    48.0000 </r>
       <r>    -5.0244     0.0000    48.0000 </r>
       <r>    -4.8684     0.0000    48.0000 </r>
       <r>    -4.7124     0.0000    48.0000 </r>
       <r>    -4.5564     0.0000    48.0000 </r>
       <r>    -4.4004     0.0000    48.0000 </r>
       <r>    -4.2444     0.0000    48.0000 </r>
       <r>    -4.0884     0.0000    48.0000 </r>
       <r>    -3.9324     0.0000    48.0000 </r>
       <r>    -3.7764     0.0000    48.0000 </r>
       <r>    -3.6204     0.0000    48.0000 </r>
       <r>    -3.4644     0.0000    48.0000 </r>
       <r>    -3.3084     0.0000    48.0000 </r>
       <r>    -3.1525     0.0000    48.0000 </r>
       <r>    -2.9965     0.1724    48.0269 </r>
       <r>    -2.8405     7.0454    49.1259 </r>
       <r>    -2.6845     3.2917    49.6394 </r>
       <r>    -2.5285     3.6861    50.2144 </r>
       <r>    -2.3725     7.2416    51.3440 </r>
       <r>    -2.2165     3.2670    51.8536 </r>
       <r>    -2.0605     9.6741    53.3627 </r>
       <r>    -1.9045    12.7693    55.3546 </r>
       <r>    -1.7485    21.2835    58.6747 </r>
       <r>    -1.5925    25.1883    62.6038 </r>
       <r>    -1.4365    17.8941    65.3952 </r>
       <r>    -1.2806    20.9762    68.6673 </r>
       <r>    -1.1246    21.3618    71.9996 </r>
       <r>    -0.9686    20.3635    75.1761 </r>
       <r>    -0.8126    15.8383    77.6467 </r>
       <r>    -0.6566    19.5726    80.6999 </r>
       <r>    -0.5006    18.0759    83.5196 </r>
       <r>    -0.3446    33.5226    88.7488 </r>
       <r>    -0.1886    11.6625    90.5681 </r>
       <r>    -0.0326    13.9199    92.7395 </r>
       <r>     0.1234     8.8393    94.1183 </r>
       <r>     0.2794     9.9498    95.6704 </r>
       <r>     0.4354     8.0211    96.9217 </r>
       <r>     0.5913     9.6797    98.4316 </r>
       <r>     0.7473    11.8841   100.2854 </r>
       <r>     0.9033    13.4358   102.3813 </r>
       <r>     1.0593    19.4972   105.4227 </r>
       <r>     1.2153    24.7569   109.2846 </r>
       <r>     1.3713    23.7314   112.9865 </r>
       <r>     1.5273    23.7627   116.6933 </r>
       <r>     1.6833    22.2524   120.1645 </r>
       <r>     1.8393    15.2786   122.5478 </r>
       <r>     1.9953    19.5090   125.5910 </r>
       <r>     2.1513    10.7695   127.2710 </r>
       <r>     2.3073     7.9443   128.5102 </r>
       <r>     2.4633     8.8793   129.8953 </r>
       <r>     2.6192     7.4646   131.0598 </r>
       <r>     2.7752     3.5807   131.6183 </r>
       <r>     2.9312     7.0973   132.7254 </r>
       <r>     3.0872     5.4788   133.5801 </r>
       <r>     3.2432     2.0912   133.9063 </r>
       <r>     3.3992     3.3474   134.4285 </r>
       <r>     3.5552     3.6588   134.9992 </r>
       <r>     3.7112     2.3176   135.3608 </r>
       <r>     3.8672     0.6469   135.4617 </r>
       <r>     4.0232     0.9031   135.6025 </r>
       <r>     4.1792     6.9015   136.6791 </r>
       <r>     4.3352     3.3390   137.2000 </r>
       <r>     4.4911     0.0002   137.2000 </r>
       <r>     4.6471     0.0998   137.2156 </r>
       <r>     4.8031     2.3599   137.5837 </r>
       <r>     4.9591     4.5255   138.2896 </r>
       <r>     5.1151     6.8175   139.3531 </r>
       <r>     5.2711     8.9334   140.7467 </r>
       <r>     5.4271     6.9316   141.8279 </r>
       <r>     5.5831     0.6925   141.9360 </r>
       <r>     5.7391     0.8372   142.0666 </r>
       <r>     5.8951     0.2112   142.0995 </r>
       <r>     6.0511     3.4625   142.6396 </r>
       <r>     6.2071     2.7684   143.0715 </r>
       <r>     6.3630     4.3510   143.7502 </r>
       <r>     6.5190     1.5530   143.9925 </r>
       <r>     6.6750     0.0484   144.0000 </r>
       <r>     6.8310     0.6146   144.0959 </r>
       <r>     6.9870     0.6921   144.2038 </r>
       <r>     7.1430     1.6157   144.4559 </r>
       <r>     7.2990     6.5758   145.4816 </r>
       <r>     7.4550     4.4778   146.1801 </r>
       <r>     7.6110     6.8257   147.2449 </r>
       <r>     7.7670     8.8983   148.6330 </r>
       <r>     7.9230     9.0392   150.0430 </r>
       <r>     8.0790     7.5260   151.2170 </r>
       <r>     8.2349    15.2396   153.5942 </r>
       <r>     8.3909     6.8992   154.6705 </r>
       <r>     8.5469     4.2008   155.3258 </r>
       <r>     8.7029     6.4749   156.3358 </r>
       <r>     8.8589    12.0736   158.2192 </r>
       <r>     9.0149    11.1016   159.9509 </r>
       <r>     9.1709     9.1385   161.3765 </r>
       <r>     9.3269     9.5001   162.8584 </r>
       <r>     9.4829    14.9350   165.1881 </r>
       <r>     9.6389     9.4221   166.6579 </r>
       <r>     9.7949    14.4004   168.9043 </r>
       <r>     9.9509    12.5842   170.8673 </r>
       <r>    10.1068    12.3551   172.7946 </r>
       <r>    10.2628     9.5230   174.2801 </r>
       <r>    10.4188     6.3171   175.2655 </r>
       <r>    10.5748     2.5448   175.6625 </r>
       <r>    10.7308     0.7747   175.7833 </r>
       <r>    10.8868     1.3868   175.9997 </r>
       <r>    11.0428     0.0022   176.0000 </r>
       <r>    11.1988     0.0000   176.0000 </r>
       <r>    11.3548     0.0000   176.0000 </r>
       <r>    11.5108     0.0000   176.0000 </r>
       <r>    11.6668     0.0000   176.0000 </r>
       <r>    11.8228     0.0000   176.0000 </r>
       <r>    11.9788     0.0000   176.0000 </r>
       <r>    12.1347     0.0000   176.0000 </r>
       <r>    12.2907     0.0000   176.0000 </r>
       <r>    12.4467     0.0000   176.0000 </r>
       <r>    12.6027     0.0000   176.0000 </r>
       <r>    12.7587     0.0000   176.0000 </r>
       <r>    12.9147     0.0000   176.0000 </r>
      </set>
     </set>
    </array>
   </total>
  </dos>
 </calculation>
 <structure name="finalpos" >
  <crystal>
   <varray name="basis" >
    <v>       4.00000000       0.00000000       0.00000000 </v>
    <v>       0.00000000       8.00000000       0.00000000 </v>
    <v>       0.00000000       0.00000000      16.00000000 </v>
   </varray>
   <i name="volume">    512.00000000 </i>
   <varray name="rec_basis" >
    <v>       0.25000000       0.00000000       0.00000000 </v>
    <v>       0.00000000       0.12500000       0.00000000 </v>
    <v>       0.00000000       0.00000000       0.06250000 </v>
   </varray>
  </crystal>
  <varray name="positions" >
   <v>       0.00000000       0.25000000       0.25000000 </v>
   <v>       0.00000000       0.75000000       0.50000000 </v>
   <v>       0.00000000       0.75000000       0.25000000 </v>
   <v>       0.00000000       0.25000000       0.50000000 </v>
   <v>       0.00000000       0.75000000       0.75000000 </v>
   <v>       0.00000000       0.25000000       0.00000000 </v>
   <v>       0.00000000       0.25000000       0.75000000 </v>
   <v>       0.00000000       0.75000000       0.00000000 </v>
   <v>       0.50000000       0.00000000       0.62500000 </v>
   <v>       0.50000000       0.00000000       0.37500000 </v>
   <v>       0.50000000       0.50000000       0.62500000 </v>
   <v>       0.50000000       0.50000000       0.37500000 </v>
   <v>       0.50000000       0.50000000       0.12500000 </v>
   <v>       0.50000000       0.50000000       0.87500000 </v>
   <v>       0.50000000       0.00000000       0.12500000 </v>
   <v>       0.50000000       0.00000000       0.87500000 </v>
   <v>       0.50000000       0.00000000       0.50000000 </v>
   <v>       0.50000000       0.00000000       0.25000000 </v>
   <v>       0.50000000       0.50000000       0.50000000 </v>
   <v>       0.00000000       0.00000000       0.37500000 </v>
   <v>       0.00000000       0.50000000       0.62500000 </v>
   <v>       0.00000000       0.50000000       0.37500000 </v>
   <v>       0.50000000       0.75000000       0.62500000 </v>
   <v>       0.50000000       0.25000000       0.62500000 </v>
   <v>       0.50000000       0.50000000       0.00000000 </v>
   <v>       0.50000000       0.50000000       0.75000000 </v>
   <v>       0.50000000       0.00000000       0.00000000 </v>
   <v>       0.00000000       0.50000000       0.87500000 </v>
   <v>       0.00000000       0.00000000       0.12500000 </v>
   <v>       0.00000000       0.00000000       0.87500000 </v>
   <v>       0.50000000       0.25000000       0.12500000 </v>
   <v>       0.50000000       0.75000000       0.12500000 </v>
  </varray>
 </structure>
</modeling>
