<?xml version="1.0" encoding="ISO-8859-1"?>
<modeling>
 <generator>
  <i name="program" type="string">vasp </i>
  <i name="version" type="string">5.3.5  </i>
  <i name="subversion" type="string">31Mar14 (build Jun 20 2014 13:15:13) complex                          parallel </i>
  <i name="platform" type="string">LinuxIFC </i>
  <i name="date" type="string">2025 11 21 </i>
  <i name="time" type="string">11:03:54 </i>
 </generator>
 <incar>
  <i type="string" name="PREC">accurate</i>
  <i type="int" name="IALGO">    68</i>
  <i type="logical" name="ADDGRID"> T  </i>
  <i type="int" name="NELM">   100</i>
  <i type="int" name="NELMIN">     4</i>
  <i type="int" name="IBRION">     2</i>
  <i name="EDIFF">      0.00000100</i>
  <i name="EDIFFG">     -0.02000000</i>
  <i type="int" name="NSW">    30</i>
  <i type="int" name="ISIF">     3</i>
  <i name="ENCUT">    500.00000000</i>
  <i type="logical" name="LREAL"> F  </i>
  <i type="int" name="ISMEAR">     1</i>
  <i name="SIGMA">      0.30000000</i>
  <i type="logical" name="LWAVE"> F  </i>
  <i type="logical" name="LCHARG"> F  </i>
  <i type="int" name="NELM">   100</i>
 </incar>
 <kpoints>
  <generation param="Auto">
   <i name="subdivisionlength">     70.00000000 </i>
   <v type="int" name="divisions">      28       28        6 </v>
   <v name="usershift">      0.00000000       0.00000000       0.00000000 </v>
   <v name="genvec1">      0.03571429       0.00000000       0.00000000 </v>
   <v name="genvec2">      0.00000000       0.03571429       0.00000000 </v>
   <v name="genvec3">      0.00000000       0.00000000       0.16666667 </v>
   <v name="shift">      0.00000000       0.00000000       0.00000000 </v>
  </generation>
  <varray name="kpointlist" >
   <v>       0.00000000       0.00000000       0.00000000 </v>
   <v>       0.03571429       0.00000000       0.00000000 </v>
   <v>       0.07142857       0.00000000       0.00000000 </v>
   <v>       0.10714286       0.00000000       0.00000000 </v>
   <v>       0.14285714       0.00000000       0.00000000 </v>
   <v>       0.17857143       0.00000000       0.00000000 </v>
   <v>       0.21428571       0.00000000       0.00000000 </v>
   <v>       0.25000000       0.00000000       0.00000000 </v>
   <v>       0.28571429       0.00000000       0.00000000 </v>
   <v>       0.32142857       0.00000000       0.00000000 </v>
   <v>       0.35714286       0.00000000       0.00000000 </v>
   <v>       0.39285714       0.00000000       0.00000000 </v>
   <v>       0.42857143       0.00000000       0.00000000 </v>
   <v>       0.46428571       0.00000000       0.00000000 </v>
   <v>       0.50000000       0.00000000       0.00000000 </v>
   <v>       0.00000000       0.03571429       0.00000000 </v>
   <v>       0.03571429       0.03571429       0.00000000 </v>
   <v>       0.07142857       0.03571429       0.00000000 </v>
   <v>       0.10714286       0.03571429       0.00000000 </v>
   <v>       0.14285714       0.03571429       0.00000000 </v>
   <v>       0.17857143       0.03571429       0.00000000 </v>
   <v>       0.21428571       0.03571429       0.00000000 </v>
   <v>       0.25000000       0.03571429       0.00000000 </v>
   <v>       0.28571429       0.03571429       0.00000000 </v>
   <v>       0.32142857       0.03571429       0.00000000 </v>
   <v>       0.35714286       0.03571429       0.00000000 </v>
   <v>       0.39285714       0.03571429       0.00000000 </v>
   <v>       0.42857143       0.03571429       0.00000000 </v>
   <v>       0.46428571       0.03571429       0.00000000 </v>
   <v>       0.00000000       0.07142857       0.00000000 </v>
   <v>       0.03571429       0.07142857       0.00000000 </v>
   <v>       0.07142857       0.07142857       0.00000000 </v>
   <v>       0.10714286       0.07142857       0.00000000 </v>
   <v>       0.14285714       0.07142857       0.00000000 </v>
   <v>       0.17857143       0.07142857       0.00000000 </v>
   <v>       0.21428571       0.07142857       0.00000000 </v>
   <v>       0.25000000       0.07142857       0.00000000 </v>
   <v>       0.28571429       0.07142857       0.00000000 </v>
   <v>       0.32142857       0.07142857       0.00000000 </v>
   <v>       0.35714286       0.07142857       0.00000000 </v>
   <v>       0.39285714       0.07142857       0.00000000 </v>
   <v>       0.42857143       0.07142857       0.00000000 </v>
   <v>       0.46428571       0.07142857       0.00000000 </v>
   <v>      -0.03571429       0.07142857       0.00000000 </v>
   <v>       0.00000000       0.10714286       0.00000000 </v>
   <v>       0.03571429       0.10714286       0.00000000 </v>
   <v>       0.07142857       0.10714286       0.00000000 </v>
   <v>       0.10714286       0.10714286       0.00000000 </v>
   <v>       0.14285714       0.10714286       0.00000000 </v>
   <v>       0.17857143       0.10714286       0.00000000 </v>
   <v>       0.21428571       0.10714286       0.00000000 </v>
   <v>       0.25000000       0.10714286       0.00000000 </v>
   <v>       0.28571429       0.10714286       0.00000000 </v>
   <v>       0.32142857       0.10714286       0.00000000 </v>
   <v>       0.35714286       0.10714286       0.00000000 </v>
   <v>       0.39285714       0.10714286       0.00000000 </v>
   <v>       0.42857143       0.10714286       0.00000000 </v>
   <v>      -0.07142857       0.10714286       0.00000000 </v>
   <v>       0.00000000       0.14285714       0.00000000 </v>
   <v>       0.03571429       0.14285714       0.00000000 </v>
   <v>       0.07142857       0.14285714       0.00000000 </v>
   <v>       0.10714286       0.14285714       0.00000000 </v>
   <v>       0.14285714       0.14285714       0.00000000 </v>
   <v>       0.17857143       0.14285714       0.00000000 </v>
   <v>       0.21428571       0.14285714       0.00000000 </v>
   <v>       0.25000000       0.14285714       0.00000000 </v>
   <v>       0.28571429       0.14285714       0.00000000 </v>
   <v>       0.32142857       0.14285714       0.00000000 </v>
   <v>       0.35714286       0.14285714       0.00000000 </v>
   <v>       0.39285714       0.14285714       0.00000000 </v>
   <v>       0.42857143       0.14285714       0.00000000 </v>
   <v>      -0.10714286       0.14285714       0.00000000 </v>
   <v>      -0.07142857       0.14285714       0.00000000 </v>
   <v>       0.00000000       0.17857143       0.00000000 </v>
   <v>       0.03571429       0.17857143       0.00000000 </v>
   <v>       0.07142857       0.17857143       0.00000000 </v>
   <v>       0.10714286       0.17857143       0.00000000 </v>
   <v>       0.14285714       0.17857143       0.00000000 </v>
   <v>       0.17857143       0.17857143       0.00000000 </v>
   <v>       0.21428571       0.17857143       0.00000000 </v>
   <v>       0.25000000       0.17857143       0.00000000 </v>
   <v>       0.28571429       0.17857143       0.00000000 </v>
   <v>       0.32142857       0.17857143       0.00000000 </v>
   <v>       0.35714286       0.17857143       0.00000000 </v>
   <v>       0.39285714       0.17857143       0.00000000 </v>
   <v>      -0.14285714       0.17857143       0.00000000 </v>
   <v>      -0.10714286       0.17857143       0.00000000 </v>
   <v>       0.00000000       0.21428571       0.00000000 </v>
   <v>       0.03571429       0.21428571       0.00000000 </v>
   <v>       0.07142857       0.21428571       0.00000000 </v>
   <v>       0.10714286       0.21428571       0.00000000 </v>
   <v>       0.14285714       0.21428571       0.00000000 </v>
   <v>       0.17857143       0.21428571       0.00000000 </v>
   <v>       0.21428571       0.21428571       0.00000000 </v>
   <v>       0.25000000       0.21428571       0.00000000 </v>
   <v>       0.28571429       0.21428571       0.00000000 </v>
   <v>       0.32142857       0.21428571       0.00000000 </v>
   <v>       0.35714286       0.21428571       0.00000000 </v>
   <v>       0.39285714       0.21428571       0.00000000 </v>
   <v>      -0.17857143       0.21428571       0.00000000 </v>
   <v>      -0.14285714       0.21428571       0.00000000 </v>
   <v>      -0.10714286       0.21428571       0.00000000 </v>
   <v>       0.00000000       0.25000000       0.00000000 </v>
   <v>       0.03571429       0.25000000       0.00000000 </v>
   <v>       0.07142857       0.25000000       0.00000000 </v>
   <v>       0.10714286       0.25000000       0.00000000 </v>
   <v>       0.14285714       0.25000000       0.00000000 </v>
   <v>       0.17857143       0.25000000       0.00000000 </v>
   <v>       0.21428571       0.25000000       0.00000000 </v>
   <v>       0.25000000       0.25000000       0.00000000 </v>
   <v>       0.28571429       0.25000000       0.00000000 </v>
   <v>       0.32142857       0.25000000       0.00000000 </v>
   <v>       0.35714286       0.25000000       0.00000000 </v>
   <v>      -0.21428571       0.25000000       0.00000000 </v>
   <v>      -0.17857143       0.25000000       0.00000000 </v>
   <v>      -0.14285714       0.25000000       0.00000000 </v>
   <v>       0.00000000       0.28571429       0.00000000 </v>
   <v>       0.03571429       0.28571429       0.00000000 </v>
   <v>       0.07142857       0.28571429       0.00000000 </v>
   <v>       0.10714286       0.28571429       0.00000000 </v>
   <v>       0.14285714       0.28571429       0.00000000 </v>
   <v>       0.17857143       0.28571429       0.00000000 </v>
   <v>       0.21428571       0.28571429       0.00000000 </v>
   <v>       0.25000000       0.28571429       0.00000000 </v>
   <v>       0.28571429       0.28571429       0.00000000 </v>
   <v>       0.32142857       0.28571429       0.00000000 </v>
   <v>       0.35714286       0.28571429       0.00000000 </v>
   <v>      -0.25000000       0.28571429       0.00000000 </v>
   <v>      -0.21428571       0.28571429       0.00000000 </v>
   <v>      -0.17857143       0.28571429       0.00000000 </v>
   <v>      -0.14285714       0.28571429       0.00000000 </v>
   <v>       0.00000000       0.32142857       0.00000000 </v>
   <v>       0.03571429       0.32142857       0.00000000 </v>
   <v>       0.07142857       0.32142857       0.00000000 </v>
   <v>       0.10714286       0.32142857       0.00000000 </v>
   <v>       0.14285714       0.32142857       0.00000000 </v>
   <v>       0.17857143       0.32142857       0.00000000 </v>
   <v>       0.21428571       0.32142857       0.00000000 </v>
   <v>       0.25000000       0.32142857       0.00000000 </v>
   <v>       0.28571429       0.32142857       0.00000000 </v>
   <v>       0.32142857       0.32142857       0.00000000 </v>
   <v>      -0.28571429       0.32142857       0.00000000 </v>
   <v>      -0.25000000       0.32142857       0.00000000 </v>
   <v>      -0.21428571       0.32142857       0.00000000 </v>
   <v>      -0.17857143       0.32142857       0.00000000 </v>
   <v>       0.00000000       0.35714286       0.00000000 </v>
   <v>       0.03571429       0.35714286       0.00000000 </v>
   <v>       0.07142857       0.35714286       0.00000000 </v>
   <v>       0.10714286       0.35714286       0.00000000 </v>
   <v>       0.14285714       0.35714286       0.00000000 </v>
   <v>       0.17857143       0.35714286       0.00000000 </v>
   <v>       0.21428571       0.35714286       0.00000000 </v>
   <v>       0.25000000       0.35714286       0.00000000 </v>
   <v>       0.28571429       0.35714286       0.00000000 </v>
   <v>       0.32142857       0.35714286       0.00000000 </v>
   <v>      -0.32142857       0.35714286       0.00000000 </v>
   <v>      -0.28571429       0.35714286       0.00000000 </v>
   <v>      -0.25000000       0.35714286       0.00000000 </v>
   <v>      -0.21428571       0.35714286       0.00000000 </v>
   <v>      -0.17857143       0.35714286       0.00000000 </v>
   <v>       0.00000000       0.39285714       0.00000000 </v>
   <v>       0.03571429       0.39285714       0.00000000 </v>
   <v>       0.07142857       0.39285714       0.00000000 </v>
   <v>       0.10714286       0.39285714       0.00000000 </v>
   <v>       0.14285714       0.39285714       0.00000000 </v>
   <v>       0.17857143       0.39285714       0.00000000 </v>
   <v>       0.21428571       0.39285714       0.00000000 </v>
   <v>       0.25000000       0.39285714       0.00000000 </v>
   <v>       0.28571429       0.39285714       0.00000000 </v>
   <v>      -0.35714286       0.39285714       0.00000000 </v>
   <v>      -0.32142857       0.39285714       0.00000000 </v>
   <v>      -0.28571429       0.39285714       0.00000000 </v>
   <v>      -0.25000000       0.39285714       0.00000000 </v>
   <v>      -0.21428571       0.39285714       0.00000000 </v>
   <v>       0.00000000       0.42857143       0.00000000 </v>
   <v>       0.03571429       0.42857143       0.00000000 </v>
   <v>       0.07142857       0.42857143       0.00000000 </v>
   <v>       0.10714286       0.42857143       0.00000000 </v>
   <v>       0.14285714       0.42857143       0.00000000 </v>
   <v>       0.17857143       0.42857143       0.00000000 </v>
   <v>       0.21428571       0.42857143       0.00000000 </v>
   <v>       0.25000000       0.42857143       0.00000000 </v>
   <v>       0.28571429       0.42857143       0.00000000 </v>
   <v>      -0.39285714       0.42857143       0.00000000 </v>
   <v>      -0.35714286       0.42857143       0.00000000 </v>
   <v>      -0.32142857       0.42857143       0.00000000 </v>
   <v>      -0.28571429       0.42857143       0.00000000 </v>
   <v>      -0.25000000       0.42857143       0.00000000 </v>
   <v>      -0.21428571       0.42857143       0.00000000 </v>
   <v>       0.00000000       0.46428571       0.00000000 </v>
   <v>       0.03571429       0.46428571       0.00000000 </v>
   <v>       0.07142857       0.46428571       0.00000000 </v>
   <v>       0.10714286       0.46428571       0.00000000 </v>
   <v>       0.14285714       0.46428571       0.00000000 </v>
   <v>       0.17857143       0.46428571       0.00000000 </v>
   <v>       0.21428571       0.46428571       0.00000000 </v>
   <v>       0.25000000       0.46428571       0.00000000 </v>
   <v>      -0.42857143       0.46428571       0.00000000 </v>
   <v>      -0.39285714       0.46428571       0.00000000 </v>
   <v>      -0.35714286       0.46428571       0.00000000 </v>
   <v>      -0.32142857       0.46428571       0.00000000 </v>
   <v>      -0.28571429       0.46428571       0.00000000 </v>
   <v>      -0.25000000       0.46428571       0.00000000 </v>
   <v>       0.00000000       0.50000000       0.00000000 </v>
   <v>       0.03571429       0.50000000       0.00000000 </v>
   <v>       0.07142857       0.50000000       0.00000000 </v>
   <v>       0.10714286       0.50000000       0.00000000 </v>
   <v>       0.14285714       0.50000000       0.00000000 </v>
   <v>       0.17857143       0.50000000       0.00000000 </v>
   <v>       0.21428571       0.50000000       0.00000000 </v>
   <v>       0.25000000       0.50000000       0.00000000 </v>
   <v>       0.00000000       0.00000000       0.16666667 </v>
   <v>       0.03571429       0.00000000       0.16666667 </v>
   <v>       0.07142857       0.00000000       0.16666667 </v>
   <v>       0.10714286       0.00000000       0.16666667 </v>
   <v>       0.14285714       0.00000000       0.16666667 </v>
   <v>       0.17857143       0.00000000       0.16666667 </v>
   <v>       0.21428571       0.00000000       0.16666667 </v>
   <v>       0.25000000       0.00000000       0.16666667 </v>
   <v>       0.28571429       0.00000000       0.16666667 </v>
   <v>       0.32142857       0.00000000       0.16666667 </v>
   <v>       0.35714286       0.00000000       0.16666667 </v>
   <v>       0.39285714       0.00000000       0.16666667 </v>
   <v>       0.42857143       0.00000000       0.16666667 </v>
   <v>       0.46428571       0.00000000       0.16666667 </v>
   <v>       0.50000000       0.00000000       0.16666667 </v>
   <v>      -0.46428571       0.00000000       0.16666667 </v>
   <v>      -0.42857143       0.00000000       0.16666667 </v>
   <v>      -0.39285714       0.00000000       0.16666667 </v>
   <v>      -0.35714286       0.00000000       0.16666667 </v>
   <v>      -0.32142857       0.00000000       0.16666667 </v>
   <v>      -0.28571429       0.00000000       0.16666667 </v>
   <v>      -0.25000000       0.00000000       0.16666667 </v>
   <v>      -0.21428571       0.00000000       0.16666667 </v>
   <v>      -0.17857143       0.00000000       0.16666667 </v>
   <v>      -0.14285714       0.00000000       0.16666667 </v>
   <v>      -0.10714286       0.00000000       0.16666667 </v>
   <v>      -0.07142857       0.00000000       0.16666667 </v>
   <v>      -0.03571429       0.00000000       0.16666667 </v>
   <v>       0.00000000       0.03571429       0.16666667 </v>
   <v>       0.03571429       0.03571429       0.16666667 </v>
   <v>       0.07142857       0.03571429       0.16666667 </v>
   <v>       0.10714286       0.03571429       0.16666667 </v>
   <v>       0.14285714       0.03571429       0.16666667 </v>
   <v>       0.17857143       0.03571429       0.16666667 </v>
   <v>       0.21428571       0.03571429       0.16666667 </v>
   <v>       0.25000000       0.03571429       0.16666667 </v>
   <v>       0.28571429       0.03571429       0.16666667 </v>
   <v>       0.32142857       0.03571429       0.16666667 </v>
   <v>       0.35714286       0.03571429       0.16666667 </v>
   <v>       0.39285714       0.03571429       0.16666667 </v>
   <v>       0.42857143       0.03571429       0.16666667 </v>
   <v>       0.46428571       0.03571429       0.16666667 </v>
   <v>       0.50000000       0.03571429       0.16666667 </v>
   <v>      -0.46428571       0.03571429       0.16666667 </v>
   <v>      -0.42857143       0.03571429       0.16666667 </v>
   <v>      -0.39285714       0.03571429       0.16666667 </v>
   <v>      -0.35714286       0.03571429       0.16666667 </v>
   <v>      -0.32142857       0.03571429       0.16666667 </v>
   <v>      -0.28571429       0.03571429       0.16666667 </v>
   <v>      -0.25000000       0.03571429       0.16666667 </v>
   <v>      -0.21428571       0.03571429       0.16666667 </v>
   <v>      -0.17857143       0.03571429       0.16666667 </v>
   <v>      -0.14285714       0.03571429       0.16666667 </v>
   <v>      -0.10714286       0.03571429       0.16666667 </v>
   <v>      -0.07142857       0.03571429       0.16666667 </v>
   <v>      -0.03571429       0.03571429       0.16666667 </v>
   <v>       0.00000000       0.07142857       0.16666667 </v>
   <v>       0.03571429       0.07142857       0.16666667 </v>
   <v>       0.07142857       0.07142857       0.16666667 </v>
   <v>       0.10714286       0.07142857       0.16666667 </v>
   <v>       0.14285714       0.07142857       0.16666667 </v>
   <v>       0.17857143       0.07142857       0.16666667 </v>
   <v>       0.21428571       0.07142857       0.16666667 </v>
   <v>       0.25000000       0.07142857       0.16666667 </v>
   <v>       0.28571429       0.07142857       0.16666667 </v>
   <v>       0.32142857       0.07142857       0.16666667 </v>
   <v>       0.35714286       0.07142857       0.16666667 </v>
   <v>       0.39285714       0.07142857       0.16666667 </v>
   <v>       0.42857143       0.07142857       0.16666667 </v>
   <v>       0.46428571       0.07142857       0.16666667 </v>
   <v>       0.50000000       0.07142857       0.16666667 </v>
   <v>      -0.46428571       0.07142857       0.16666667 </v>
   <v>      -0.42857143       0.07142857       0.16666667 </v>
   <v>      -0.39285714       0.07142857       0.16666667 </v>
   <v>      -0.35714286       0.07142857       0.16666667 </v>
   <v>      -0.32142857       0.07142857       0.16666667 </v>
   <v>      -0.28571429       0.07142857       0.16666667 </v>
   <v>      -0.25000000       0.07142857       0.16666667 </v>
   <v>      -0.21428571       0.07142857       0.16666667 </v>
   <v>      -0.17857143       0.07142857       0.16666667 </v>
   <v>      -0.14285714       0.07142857       0.16666667 </v>
   <v>      -0.10714286       0.07142857       0.16666667 </v>
   <v>      -0.07142857       0.07142857       0.16666667 </v>
   <v>      -0.03571429       0.07142857       0.16666667 </v>
   <v>       0.00000000       0.10714286       0.16666667 </v>
   <v>       0.03571429       0.10714286       0.16666667 </v>
   <v>       0.07142857       0.10714286       0.16666667 </v>
   <v>       0.10714286       0.10714286       0.16666667 </v>
   <v>       0.14285714       0.10714286       0.16666667 </v>
   <v>       0.17857143       0.10714286       0.16666667 </v>
   <v>       0.21428571       0.10714286       0.16666667 </v>
   <v>       0.25000000       0.10714286       0.16666667 </v>
   <v>       0.28571429       0.10714286       0.16666667 </v>
   <v>       0.32142857       0.10714286       0.16666667 </v>
   <v>       0.35714286       0.10714286       0.16666667 </v>
   <v>       0.39285714       0.10714286       0.16666667 </v>
   <v>       0.42857143       0.10714286       0.16666667 </v>
   <v>       0.46428571       0.10714286       0.16666667 </v>
   <v>       0.50000000       0.10714286       0.16666667 </v>
   <v>      -0.46428571       0.10714286       0.16666667 </v>
   <v>      -0.42857143       0.10714286       0.16666667 </v>
   <v>      -0.39285714       0.10714286       0.16666667 </v>
   <v>      -0.35714286       0.10714286       0.16666667 </v>
   <v>      -0.32142857       0.10714286       0.16666667 </v>
   <v>      -0.28571429       0.10714286       0.16666667 </v>
   <v>      -0.25000000       0.10714286       0.16666667 </v>
   <v>      -0.21428571       0.10714286       0.16666667 </v>
   <v>      -0.17857143       0.10714286       0.16666667 </v>
   <v>      -0.14285714       0.10714286       0.16666667 </v>
   <v>      -0.10714286       0.10714286       0.16666667 </v>
   <v>      -0.07142857       0.10714286       0.16666667 </v>
   <v>      -0.03571429       0.10714286       0.16666667 </v>
   <v>       0.00000000       0.14285714       0.16666667 </v>
   <v>       0.03571429       0.14285714       0.16666667 </v>
   <v>       0.07142857       0.14285714       0.16666667 </v>
   <v>       0.10714286       0.14285714       0.16666667 </v>
   <v>       0.14285714       0.14285714       0.16666667 </v>
   <v>       0.17857143       0.14285714       0.16666667 </v>
   <v>       0.21428571       0.14285714       0.16666667 </v>
   <v>       0.25000000       0.14285714       0.16666667 </v>
   <v>       0.28571429       0.14285714       0.16666667 </v>
   <v>       0.32142857       0.14285714       0.16666667 </v>
   <v>       0.35714286       0.14285714       0.16666667 </v>
   <v>       0.39285714       0.14285714       0.16666667 </v>
   <v>       0.42857143       0.14285714       0.16666667 </v>
   <v>       0.46428571       0.14285714       0.16666667 </v>
   <v>       0.50000000       0.14285714       0.16666667 </v>
   <v>      -0.46428571       0.14285714       0.16666667 </v>
   <v>      -0.42857143       0.14285714       0.16666667 </v>
   <v>      -0.39285714       0.14285714       0.16666667 </v>
   <v>      -0.35714286       0.14285714       0.16666667 </v>
   <v>      -0.32142857       0.14285714       0.16666667 </v>
   <v>      -0.28571429       0.14285714       0.16666667 </v>
   <v>      -0.25000000       0.14285714       0.16666667 </v>
   <v>      -0.21428571       0.14285714       0.16666667 </v>
   <v>      -0.17857143       0.14285714       0.16666667 </v>
   <v>      -0.14285714       0.14285714       0.16666667 </v>
   <v>      -0.10714286       0.14285714       0.16666667 </v>
   <v>      -0.07142857       0.14285714       0.16666667 </v>
   <v>      -0.03571429       0.14285714       0.16666667 </v>
   <v>       0.00000000       0.17857143       0.16666667 </v>
   <v>       0.03571429       0.17857143       0.16666667 </v>
   <v>       0.07142857       0.17857143       0.16666667 </v>
   <v>       0.10714286       0.17857143       0.16666667 </v>
   <v>       0.14285714       0.17857143       0.16666667 </v>
   <v>       0.17857143       0.17857143       0.16666667 </v>
   <v>       0.21428571       0.17857143       0.16666667 </v>
   <v>       0.25000000       0.17857143       0.16666667 </v>
   <v>       0.28571429       0.17857143       0.16666667 </v>
   <v>       0.32142857       0.17857143       0.16666667 </v>
   <v>       0.35714286       0.17857143       0.16666667 </v>
   <v>       0.39285714       0.17857143       0.16666667 </v>
   <v>       0.42857143       0.17857143       0.16666667 </v>
   <v>       0.46428571       0.17857143       0.16666667 </v>
   <v>       0.50000000       0.17857143       0.16666667 </v>
   <v>      -0.46428571       0.17857143       0.16666667 </v>
   <v>      -0.42857143       0.17857143       0.16666667 </v>
   <v>      -0.39285714       0.17857143       0.16666667 </v>
   <v>      -0.35714286       0.17857143       0.16666667 </v>
   <v>      -0.32142857       0.17857143       0.16666667 </v>
   <v>      -0.28571429       0.17857143       0.16666667 </v>
   <v>      -0.25000000       0.17857143       0.16666667 </v>
   <v>      -0.21428571       0.17857143       0.16666667 </v>
   <v>      -0.17857143       0.17857143       0.16666667 </v>
   <v>      -0.14285714       0.17857143       0.16666667 </v>
   <v>      -0.10714286       0.17857143       0.16666667 </v>
   <v>      -0.07142857       0.17857143       0.16666667 </v>
   <v>      -0.03571429       0.17857143       0.16666667 </v>
   <v>       0.00000000       0.21428571       0.16666667 </v>
   <v>       0.03571429       0.21428571       0.16666667 </v>
   <v>       0.07142857       0.21428571       0.16666667 </v>
   <v>       0.10714286       0.21428571       0.16666667 </v>
   <v>       0.14285714       0.21428571       0.16666667 </v>
   <v>       0.17857143       0.21428571       0.16666667 </v>
   <v>       0.21428571       0.21428571       0.16666667 </v>
   <v>       0.25000000       0.21428571       0.16666667 </v>
   <v>       0.28571429       0.21428571       0.16666667 </v>
   <v>       0.32142857       0.21428571       0.16666667 </v>
   <v>       0.35714286       0.21428571       0.16666667 </v>
   <v>       0.39285714       0.21428571       0.16666667 </v>
   <v>       0.42857143       0.21428571       0.16666667 </v>
   <v>       0.46428571       0.21428571       0.16666667 </v>
   <v>       0.50000000       0.21428571       0.16666667 </v>
   <v>      -0.46428571       0.21428571       0.16666667 </v>
   <v>      -0.42857143       0.21428571       0.16666667 </v>
   <v>      -0.39285714       0.21428571       0.16666667 </v>
   <v>      -0.35714286       0.21428571       0.16666667 </v>
   <v>      -0.32142857       0.21428571       0.16666667 </v>
   <v>      -0.28571429       0.21428571       0.16666667 </v>
   <v>      -0.25000000       0.21428571       0.16666667 </v>
   <v>      -0.21428571       0.21428571       0.16666667 </v>
   <v>      -0.17857143       0.21428571       0.16666667 </v>
   <v>      -0.14285714       0.21428571       0.16666667 </v>
   <v>      -0.10714286       0.21428571       0.16666667 </v>
   <v>      -0.07142857       0.21428571       0.16666667 </v>
   <v>      -0.03571429       0.21428571       0.16666667 </v>
   <v>       0.00000000       0.25000000       0.16666667 </v>
   <v>       0.03571429       0.25000000       0.16666667 </v>
   <v>       0.07142857       0.25000000       0.16666667 </v>
   <v>       0.10714286       0.25000000       0.16666667 </v>
   <v>       0.14285714       0.25000000       0.16666667 </v>
   <v>       0.17857143       0.25000000       0.16666667 </v>
   <v>       0.21428571       0.25000000       0.16666667 </v>
   <v>       0.25000000       0.25000000       0.16666667 </v>
   <v>       0.28571429       0.25000000       0.16666667 </v>
   <v>       0.32142857       0.25000000       0.16666667 </v>
   <v>       0.35714286       0.25000000       0.16666667 </v>
   <v>       0.39285714       0.25000000       0.16666667 </v>
   <v>       0.42857143       0.25000000       0.16666667 </v>
   <v>       0.46428571       0.25000000       0.16666667 </v>
   <v>       0.50000000       0.25000000       0.16666667 </v>
   <v>      -0.46428571       0.25000000       0.16666667 </v>
   <v>      -0.42857143       0.25000000       0.16666667 </v>
   <v>      -0.39285714       0.25000000       0.16666667 </v>
   <v>      -0.35714286       0.25000000       0.16666667 </v>
   <v>      -0.32142857       0.25000000       0.16666667 </v>
   <v>      -0.28571429       0.25000000       0.16666667 </v>
   <v>      -0.25000000       0.25000000       0.16666667 </v>
   <v>      -0.21428571       0.25000000       0.16666667 </v>
   <v>      -0.17857143       0.25000000       0.16666667 </v>
   <v>      -0.14285714       0.25000000       0.16666667 </v>
   <v>      -0.10714286       0.25000000       0.16666667 </v>
   <v>      -0.07142857       0.25000000       0.16666667 </v>
   <v>      -0.03571429       0.25000000       0.16666667 </v>
   <v>       0.00000000       0.28571429       0.16666667 </v>
   <v>       0.03571429       0.28571429       0.16666667 </v>
   <v>       0.07142857       0.28571429       0.16666667 </v>
   <v>       0.10714286       0.28571429       0.16666667 </v>
   <v>       0.14285714       0.28571429       0.16666667 </v>
   <v>       0.17857143       0.28571429       0.16666667 </v>
   <v>       0.21428571       0.28571429       0.16666667 </v>
   <v>       0.25000000       0.28571429       0.16666667 </v>
   <v>       0.28571429       0.28571429       0.16666667 </v>
   <v>       0.32142857       0.28571429       0.16666667 </v>
   <v>       0.35714286       0.28571429       0.16666667 </v>
   <v>       0.39285714       0.28571429       0.16666667 </v>
   <v>       0.42857143       0.28571429       0.16666667 </v>
   <v>       0.46428571       0.28571429       0.16666667 </v>
   <v>       0.50000000       0.28571429       0.16666667 </v>
   <v>      -0.46428571       0.28571429       0.16666667 </v>
   <v>      -0.42857143       0.28571429       0.16666667 </v>
   <v>      -0.39285714       0.28571429       0.16666667 </v>
   <v>      -0.35714286       0.28571429       0.16666667 </v>
   <v>      -0.32142857       0.28571429       0.16666667 </v>
   <v>      -0.28571429       0.28571429       0.16666667 </v>
   <v>      -0.25000000       0.28571429       0.16666667 </v>
   <v>      -0.21428571       0.28571429       0.16666667 </v>
   <v>      -0.17857143       0.28571429       0.16666667 </v>
   <v>      -0.14285714       0.28571429       0.16666667 </v>
   <v>      -0.10714286       0.28571429       0.16666667 </v>
   <v>      -0.07142857       0.28571429       0.16666667 </v>
   <v>      -0.03571429       0.28571429       0.16666667 </v>
   <v>       0.00000000       0.32142857       0.16666667 </v>
   <v>       0.03571429       0.32142857       0.16666667 </v>
   <v>       0.07142857       0.32142857       0.16666667 </v>
   <v>       0.10714286       0.32142857       0.16666667 </v>
   <v>       0.14285714       0.32142857       0.16666667 </v>
   <v>       0.17857143       0.32142857       0.16666667 </v>
   <v>       0.21428571       0.32142857       0.16666667 </v>
   <v>       0.25000000       0.32142857       0.16666667 </v>
   <v>       0.28571429       0.32142857       0.16666667 </v>
   <v>       0.32142857       0.32142857       0.16666667 </v>
   <v>       0.35714286       0.32142857       0.16666667 </v>
   <v>       0.39285714       0.32142857       0.16666667 </v>
   <v>       0.42857143       0.32142857       0.16666667 </v>
   <v>       0.46428571       0.32142857       0.16666667 </v>
   <v>       0.50000000       0.32142857       0.16666667 </v>
   <v>      -0.46428571       0.32142857       0.16666667 </v>
   <v>      -0.42857143       0.32142857       0.16666667 </v>
   <v>      -0.39285714       0.32142857       0.16666667 </v>
   <v>      -0.35714286       0.32142857       0.16666667 </v>
   <v>      -0.32142857       0.32142857       0.16666667 </v>
   <v>      -0.28571429       0.32142857       0.16666667 </v>
   <v>      -0.25000000       0.32142857       0.16666667 </v>
   <v>      -0.21428571       0.32142857       0.16666667 </v>
   <v>      -0.17857143       0.32142857       0.16666667 </v>
   <v>      -0.14285714       0.32142857       0.16666667 </v>
   <v>      -0.10714286       0.32142857       0.16666667 </v>
   <v>      -0.07142857       0.32142857       0.16666667 </v>
   <v>      -0.03571429       0.32142857       0.16666667 </v>
   <v>       0.00000000       0.35714286       0.16666667 </v>
   <v>       0.03571429       0.35714286       0.16666667 </v>
   <v>       0.07142857       0.35714286       0.16666667 </v>
   <v>       0.10714286       0.35714286       0.16666667 </v>
   <v>       0.14285714       0.35714286       0.16666667 </v>
   <v>       0.17857143       0.35714286       0.16666667 </v>
   <v>       0.21428571       0.35714286       0.16666667 </v>
   <v>       0.25000000       0.35714286       0.16666667 </v>
   <v>       0.28571429       0.35714286       0.16666667 </v>
   <v>       0.32142857       0.35714286       0.16666667 </v>
   <v>       0.35714286       0.35714286       0.16666667 </v>
   <v>       0.39285714       0.35714286       0.16666667 </v>
   <v>       0.42857143       0.35714286       0.16666667 </v>
   <v>       0.46428571       0.35714286       0.16666667 </v>
   <v>       0.50000000       0.35714286       0.16666667 </v>
   <v>      -0.46428571       0.35714286       0.16666667 </v>
   <v>      -0.42857143       0.35714286       0.16666667 </v>
   <v>      -0.39285714       0.35714286       0.16666667 </v>
   <v>      -0.35714286       0.35714286       0.16666667 </v>
   <v>      -0.32142857       0.35714286       0.16666667 </v>
   <v>      -0.28571429       0.35714286       0.16666667 </v>
   <v>      -0.25000000       0.35714286       0.16666667 </v>
   <v>      -0.21428571       0.35714286       0.16666667 </v>
   <v>      -0.17857143       0.35714286       0.16666667 </v>
   <v>      -0.14285714       0.35714286       0.16666667 </v>
   <v>      -0.10714286       0.35714286       0.16666667 </v>
   <v>      -0.07142857       0.35714286       0.16666667 </v>
   <v>      -0.03571429       0.35714286       0.16666667 </v>
   <v>       0.00000000       0.39285714       0.16666667 </v>
   <v>       0.03571429       0.39285714       0.16666667 </v>
   <v>       0.07142857       0.39285714       0.16666667 </v>
   <v>       0.10714286       0.39285714       0.16666667 </v>
   <v>       0.14285714       0.39285714       0.16666667 </v>
   <v>       0.17857143       0.39285714       0.16666667 </v>
   <v>       0.21428571       0.39285714       0.16666667 </v>
   <v>       0.25000000       0.39285714       0.16666667 </v>
   <v>       0.28571429       0.39285714       0.16666667 </v>
   <v>       0.32142857       0.39285714       0.16666667 </v>
   <v>       0.35714286       0.39285714       0.16666667 </v>
   <v>       0.39285714       0.39285714       0.16666667 </v>
   <v>       0.42857143       0.39285714       0.16666667 </v>
   <v>       0.46428571       0.39285714       0.16666667 </v>
   <v>       0.50000000       0.39285714       0.16666667 </v>
   <v>      -0.46428571       0.39285714       0.16666667 </v>
   <v>      -0.42857143       0.39285714       0.16666667 </v>
   <v>      -0.39285714       0.39285714       0.16666667 </v>
   <v>      -0.35714286       0.39285714       0.16666667 </v>
   <v>      -0.32142857       0.39285714       0.16666667 </v>
   <v>      -0.28571429       0.39285714       0.16666667 </v>
   <v>      -0.25000000       0.39285714       0.16666667 </v>
   <v>      -0.21428571       0.39285714       0.16666667 </v>
   <v>      -0.17857143       0.39285714       0.16666667 </v>
   <v>      -0.14285714       0.39285714       0.16666667 </v>
   <v>      -0.10714286       0.39285714       0.16666667 </v>
   <v>      -0.07142857       0.39285714       0.16666667 </v>
   <v>      -0.03571429       0.39285714       0.16666667 </v>
   <v>       0.00000000       0.42857143       0.16666667 </v>
   <v>       0.03571429       0.42857143       0.16666667 </v>
   <v>       0.07142857       0.42857143       0.16666667 </v>
   <v>       0.10714286       0.42857143       0.16666667 </v>
   <v>       0.14285714       0.42857143       0.16666667 </v>
   <v>       0.17857143       0.42857143       0.16666667 </v>
   <v>       0.21428571       0.42857143       0.16666667 </v>
   <v>       0.25000000       0.42857143       0.16666667 </v>
   <v>       0.28571429       0.42857143       0.16666667 </v>
   <v>       0.32142857       0.42857143       0.16666667 </v>
   <v>       0.35714286       0.42857143       0.16666667 </v>
   <v>       0.39285714       0.42857143       0.16666667 </v>
   <v>       0.42857143       0.42857143       0.16666667 </v>
   <v>       0.46428571       0.42857143       0.16666667 </v>
   <v>       0.50000000       0.42857143       0.16666667 </v>
   <v>      -0.46428571       0.42857143       0.16666667 </v>
   <v>      -0.42857143       0.42857143       0.16666667 </v>
   <v>      -0.39285714       0.42857143       0.16666667 </v>
   <v>      -0.35714286       0.42857143       0.16666667 </v>
   <v>      -0.32142857       0.42857143       0.16666667 </v>
   <v>      -0.28571429       0.42857143       0.16666667 </v>
   <v>      -0.25000000       0.42857143       0.16666667 </v>
   <v>      -0.21428571       0.42857143       0.16666667 </v>
   <v>      -0.17857143       0.42857143       0.16666667 </v>
   <v>      -0.14285714       0.42857143       0.16666667 </v>
   <v>      -0.10714286       0.42857143       0.16666667 </v>
   <v>      -0.07142857       0.42857143       0.16666667 </v>
   <v>      -0.03571429       0.42857143       0.16666667 </v>
   <v>       0.00000000       0.46428571       0.16666667 </v>
   <v>       0.03571429       0.46428571       0.16666667 </v>
   <v>       0.07142857       0.46428571       0.16666667 </v>
   <v>       0.10714286       0.46428571       0.16666667 </v>
   <v>       0.14285714       0.46428571       0.16666667 </v>
   <v>       0.17857143       0.46428571       0.16666667 </v>
   <v>       0.21428571       0.46428571       0.16666667 </v>
   <v>       0.25000000       0.46428571       0.16666667 </v>
   <v>       0.28571429       0.46428571       0.16666667 </v>
   <v>       0.32142857       0.46428571       0.16666667 </v>
   <v>       0.35714286       0.46428571       0.16666667 </v>
   <v>       0.39285714       0.46428571       0.16666667 </v>
   <v>       0.42857143       0.46428571       0.16666667 </v>
   <v>       0.46428571       0.46428571       0.16666667 </v>
   <v>       0.50000000       0.46428571       0.16666667 </v>
   <v>      -0.46428571       0.46428571       0.16666667 </v>
   <v>      -0.42857143       0.46428571       0.16666667 </v>
   <v>      -0.39285714       0.46428571       0.16666667 </v>
   <v>      -0.35714286       0.46428571       0.16666667 </v>
   <v>      -0.32142857       0.46428571       0.16666667 </v>
   <v>      -0.28571429       0.46428571       0.16666667 </v>
   <v>      -0.25000000       0.46428571       0.16666667 </v>
   <v>      -0.21428571       0.46428571       0.16666667 </v>
   <v>      -0.17857143       0.46428571       0.16666667 </v>
   <v>      -0.14285714       0.46428571       0.16666667 </v>
   <v>      -0.10714286       0.46428571       0.16666667 </v>
   <v>      -0.07142857       0.46428571       0.16666667 </v>
   <v>      -0.03571429       0.46428571       0.16666667 </v>
   <v>       0.00000000       0.50000000       0.16666667 </v>
   <v>       0.03571429       0.50000000       0.16666667 </v>
   <v>       0.07142857       0.50000000       0.16666667 </v>
   <v>       0.10714286       0.50000000       0.16666667 </v>
   <v>       0.14285714       0.50000000       0.16666667 </v>
   <v>       0.17857143       0.50000000       0.16666667 </v>
   <v>       0.21428571       0.50000000       0.16666667 </v>
   <v>       0.25000000       0.50000000       0.16666667 </v>
   <v>       0.28571429       0.50000000       0.16666667 </v>
   <v>       0.32142857       0.50000000       0.16666667 </v>
   <v>       0.35714286       0.50000000       0.16666667 </v>
   <v>       0.39285714       0.50000000       0.16666667 </v>
   <v>       0.42857143       0.50000000       0.16666667 </v>
   <v>       0.46428571       0.50000000       0.16666667 </v>
   <v>       0.00000000       0.00000000       0.33333333 </v>
   <v>       0.03571429       0.00000000       0.33333333 </v>
   <v>       0.07142857       0.00000000       0.33333333 </v>
   <v>       0.10714286       0.00000000       0.33333333 </v>
   <v>       0.14285714       0.00000000       0.33333333 </v>
   <v>       0.17857143       0.00000000       0.33333333 </v>
   <v>       0.21428571       0.00000000       0.33333333 </v>
   <v>       0.25000000       0.00000000       0.33333333 </v>
   <v>       0.28571429       0.00000000       0.33333333 </v>
   <v>       0.32142857       0.00000000       0.33333333 </v>
   <v>       0.35714286       0.00000000       0.33333333 </v>
   <v>       0.39285714       0.00000000       0.33333333 </v>
   <v>       0.42857143       0.00000000       0.33333333 </v>
   <v>       0.46428571       0.00000000       0.33333333 </v>
   <v>      -0.46428571       0.00000000       0.33333333 </v>
   <v>      -0.42857143       0.00000000       0.33333333 </v>
   <v>      -0.39285714       0.00000000       0.33333333 </v>
   <v>      -0.35714286       0.00000000       0.33333333 </v>
   <v>      -0.32142857       0.00000000       0.33333333 </v>
   <v>      -0.28571429       0.00000000       0.33333333 </v>
   <v>      -0.25000000       0.00000000       0.33333333 </v>
   <v>      -0.21428571       0.00000000       0.33333333 </v>
   <v>      -0.17857143       0.00000000       0.33333333 </v>
   <v>      -0.14285714       0.00000000       0.33333333 </v>
   <v>      -0.10714286       0.00000000       0.33333333 </v>
   <v>      -0.07142857       0.00000000       0.33333333 </v>
   <v>      -0.03571429       0.00000000       0.33333333 </v>
   <v>       0.00000000       0.03571429       0.33333333 </v>
   <v>       0.03571429       0.03571429       0.33333333 </v>
   <v>       0.07142857       0.03571429       0.33333333 </v>
   <v>       0.10714286       0.03571429       0.33333333 </v>
   <v>       0.14285714       0.03571429       0.33333333 </v>
   <v>       0.17857143       0.03571429       0.33333333 </v>
   <v>       0.21428571       0.03571429       0.33333333 </v>
   <v>       0.25000000       0.03571429       0.33333333 </v>
   <v>       0.28571429       0.03571429       0.33333333 </v>
   <v>       0.32142857       0.03571429       0.33333333 </v>
   <v>       0.35714286       0.03571429       0.33333333 </v>
   <v>       0.39285714       0.03571429       0.33333333 </v>
   <v>       0.42857143       0.03571429       0.33333333 </v>
   <v>      -0.46428571       0.03571429       0.33333333 </v>
   <v>      -0.42857143       0.03571429       0.33333333 </v>
   <v>      -0.39285714       0.03571429       0.33333333 </v>
   <v>      -0.35714286       0.03571429       0.33333333 </v>
   <v>      -0.32142857       0.03571429       0.33333333 </v>
   <v>      -0.28571429       0.03571429       0.33333333 </v>
   <v>      -0.25000000       0.03571429       0.33333333 </v>
   <v>      -0.21428571       0.03571429       0.33333333 </v>
   <v>      -0.17857143       0.03571429       0.33333333 </v>
   <v>      -0.14285714       0.03571429       0.33333333 </v>
   <v>      -0.10714286       0.03571429       0.33333333 </v>
   <v>      -0.07142857       0.03571429       0.33333333 </v>
   <v>      -0.03571429       0.03571429       0.33333333 </v>
   <v>       0.00000000       0.07142857       0.33333333 </v>
   <v>       0.03571429       0.07142857       0.33333333 </v>
   <v>       0.07142857       0.07142857       0.33333333 </v>
   <v>       0.10714286       0.07142857       0.33333333 </v>
   <v>       0.14285714       0.07142857       0.33333333 </v>
   <v>       0.17857143       0.07142857       0.33333333 </v>
   <v>       0.21428571       0.07142857       0.33333333 </v>
   <v>       0.25000000       0.07142857       0.33333333 </v>
   <v>       0.28571429       0.07142857       0.33333333 </v>
   <v>       0.32142857       0.07142857       0.33333333 </v>
   <v>       0.35714286       0.07142857       0.33333333 </v>
   <v>       0.39285714       0.07142857       0.33333333 </v>
   <v>       0.46428571       0.07142857       0.33333333 </v>
   <v>      -0.46428571       0.07142857       0.33333333 </v>
   <v>      -0.42857143       0.07142857       0.33333333 </v>
   <v>      -0.39285714       0.07142857       0.33333333 </v>
   <v>      -0.35714286       0.07142857       0.33333333 </v>
   <v>      -0.32142857       0.07142857       0.33333333 </v>
   <v>      -0.28571429       0.07142857       0.33333333 </v>
   <v>      -0.25000000       0.07142857       0.33333333 </v>
   <v>      -0.21428571       0.07142857       0.33333333 </v>
   <v>      -0.17857143       0.07142857       0.33333333 </v>
   <v>      -0.14285714       0.07142857       0.33333333 </v>
   <v>      -0.10714286       0.07142857       0.33333333 </v>
   <v>      -0.07142857       0.07142857       0.33333333 </v>
   <v>      -0.03571429       0.07142857       0.33333333 </v>
   <v>       0.00000000       0.10714286       0.33333333 </v>
   <v>       0.03571429       0.10714286       0.33333333 </v>
   <v>       0.07142857       0.10714286       0.33333333 </v>
   <v>       0.10714286       0.10714286       0.33333333 </v>
   <v>       0.14285714       0.10714286       0.33333333 </v>
   <v>       0.17857143       0.10714286       0.33333333 </v>
   <v>       0.21428571       0.10714286       0.33333333 </v>
   <v>       0.25000000       0.10714286       0.33333333 </v>
   <v>       0.28571429       0.10714286       0.33333333 </v>
   <v>       0.32142857       0.10714286       0.33333333 </v>
   <v>       0.35714286       0.10714286       0.33333333 </v>
   <v>       0.42857143       0.10714286       0.33333333 </v>
   <v>       0.46428571       0.10714286       0.33333333 </v>
   <v>      -0.46428571       0.10714286       0.33333333 </v>
   <v>      -0.42857143       0.10714286       0.33333333 </v>
   <v>      -0.39285714       0.10714286       0.33333333 </v>
   <v>      -0.35714286       0.10714286       0.33333333 </v>
   <v>      -0.32142857       0.10714286       0.33333333 </v>
   <v>      -0.28571429       0.10714286       0.33333333 </v>
   <v>      -0.25000000       0.10714286       0.33333333 </v>
   <v>      -0.21428571       0.10714286       0.33333333 </v>
   <v>      -0.17857143       0.10714286       0.33333333 </v>
   <v>      -0.14285714       0.10714286       0.33333333 </v>
   <v>      -0.10714286       0.10714286       0.33333333 </v>
   <v>      -0.07142857       0.10714286       0.33333333 </v>
   <v>      -0.03571429       0.10714286       0.33333333 </v>
   <v>       0.00000000       0.14285714       0.33333333 </v>
   <v>       0.03571429       0.14285714       0.33333333 </v>
   <v>       0.07142857       0.14285714       0.33333333 </v>
   <v>       0.10714286       0.14285714       0.33333333 </v>
   <v>       0.14285714       0.14285714       0.33333333 </v>
   <v>       0.17857143       0.14285714       0.33333333 </v>
   <v>       0.21428571       0.14285714       0.33333333 </v>
   <v>       0.25000000       0.14285714       0.33333333 </v>
   <v>       0.28571429       0.14285714       0.33333333 </v>
   <v>       0.32142857       0.14285714       0.33333333 </v>
   <v>       0.39285714       0.14285714       0.33333333 </v>
   <v>       0.42857143       0.14285714       0.33333333 </v>
   <v>       0.46428571       0.14285714       0.33333333 </v>
   <v>      -0.46428571       0.14285714       0.33333333 </v>
   <v>      -0.42857143       0.14285714       0.33333333 </v>
   <v>      -0.39285714       0.14285714       0.33333333 </v>
   <v>      -0.35714286       0.14285714       0.33333333 </v>
   <v>      -0.32142857       0.14285714       0.33333333 </v>
   <v>      -0.28571429       0.14285714       0.33333333 </v>
   <v>      -0.25000000       0.14285714       0.33333333 </v>
   <v>      -0.21428571       0.14285714       0.33333333 </v>
   <v>      -0.17857143       0.14285714       0.33333333 </v>
   <v>      -0.14285714       0.14285714       0.33333333 </v>
   <v>      -0.10714286       0.14285714       0.33333333 </v>
   <v>      -0.07142857       0.14285714       0.33333333 </v>
   <v>      -0.03571429       0.14285714       0.33333333 </v>
   <v>       0.00000000       0.17857143       0.33333333 </v>
   <v>       0.03571429       0.17857143       0.33333333 </v>
   <v>       0.07142857       0.17857143       0.33333333 </v>
   <v>       0.10714286       0.17857143       0.33333333 </v>
   <v>       0.14285714       0.17857143       0.33333333 </v>
   <v>       0.17857143       0.17857143       0.33333333 </v>
   <v>       0.21428571       0.17857143       0.33333333 </v>
   <v>       0.25000000       0.17857143       0.33333333 </v>
   <v>       0.28571429       0.17857143       0.33333333 </v>
   <v>       0.35714286       0.17857143       0.33333333 </v>
   <v>       0.39285714       0.17857143       0.33333333 </v>
   <v>       0.42857143       0.17857143       0.33333333 </v>
   <v>       0.46428571       0.17857143       0.33333333 </v>
   <v>      -0.46428571       0.17857143       0.33333333 </v>
   <v>      -0.42857143       0.17857143       0.33333333 </v>
   <v>      -0.39285714       0.17857143       0.33333333 </v>
   <v>      -0.35714286       0.17857143       0.33333333 </v>
   <v>      -0.32142857       0.17857143       0.33333333 </v>
   <v>      -0.28571429       0.17857143       0.33333333 </v>
   <v>      -0.25000000       0.17857143       0.33333333 </v>
   <v>      -0.21428571       0.17857143       0.33333333 </v>
   <v>      -0.17857143       0.17857143       0.33333333 </v>
   <v>      -0.14285714       0.17857143       0.33333333 </v>
   <v>      -0.10714286       0.17857143       0.33333333 </v>
   <v>      -0.07142857       0.17857143       0.33333333 </v>
   <v>      -0.03571429       0.17857143       0.33333333 </v>
   <v>       0.00000000       0.21428571       0.33333333 </v>
   <v>       0.03571429       0.21428571       0.33333333 </v>
   <v>       0.07142857       0.21428571       0.33333333 </v>
   <v>       0.10714286       0.21428571       0.33333333 </v>
   <v>       0.14285714       0.21428571       0.33333333 </v>
   <v>       0.17857143       0.21428571       0.33333333 </v>
   <v>       0.21428571       0.21428571       0.33333333 </v>
   <v>       0.25000000       0.21428571       0.33333333 </v>
   <v>       0.32142857       0.21428571       0.33333333 </v>
   <v>       0.35714286       0.21428571       0.33333333 </v>
   <v>       0.39285714       0.21428571       0.33333333 </v>
   <v>       0.42857143       0.21428571       0.33333333 </v>
   <v>       0.46428571       0.21428571       0.33333333 </v>
   <v>      -0.46428571       0.21428571       0.33333333 </v>
   <v>      -0.42857143       0.21428571       0.33333333 </v>
   <v>      -0.39285714       0.21428571       0.33333333 </v>
   <v>      -0.35714286       0.21428571       0.33333333 </v>
   <v>      -0.32142857       0.21428571       0.33333333 </v>
   <v>      -0.28571429       0.21428571       0.33333333 </v>
   <v>      -0.25000000       0.21428571       0.33333333 </v>
   <v>      -0.21428571       0.21428571       0.33333333 </v>
   <v>      -0.17857143       0.21428571       0.33333333 </v>
   <v>      -0.14285714       0.21428571       0.33333333 </v>
   <v>      -0.10714286       0.21428571       0.33333333 </v>
   <v>      -0.07142857       0.21428571       0.33333333 </v>
   <v>      -0.03571429       0.21428571       0.33333333 </v>
   <v>       0.00000000       0.25000000       0.33333333 </v>
   <v>       0.03571429       0.25000000       0.33333333 </v>
   <v>       0.07142857       0.25000000       0.33333333 </v>
   <v>       0.10714286       0.25000000       0.33333333 </v>
   <v>       0.14285714       0.25000000       0.33333333 </v>
   <v>       0.17857143       0.25000000       0.33333333 </v>
   <v>       0.21428571       0.25000000       0.33333333 </v>
   <v>       0.28571429       0.25000000       0.33333333 </v>
   <v>       0.32142857       0.25000000       0.33333333 </v>
   <v>       0.35714286       0.25000000       0.33333333 </v>
   <v>       0.39285714       0.25000000       0.33333333 </v>
   <v>       0.42857143       0.25000000       0.33333333 </v>
   <v>       0.46428571       0.25000000       0.33333333 </v>
   <v>      -0.46428571       0.25000000       0.33333333 </v>
   <v>      -0.42857143       0.25000000       0.33333333 </v>
   <v>      -0.39285714       0.25000000       0.33333333 </v>
   <v>      -0.35714286       0.25000000       0.33333333 </v>
   <v>      -0.32142857       0.25000000       0.33333333 </v>
   <v>      -0.28571429       0.25000000       0.33333333 </v>
   <v>      -0.25000000       0.25000000       0.33333333 </v>
   <v>      -0.21428571       0.25000000       0.33333333 </v>
   <v>      -0.17857143       0.25000000       0.33333333 </v>
   <v>      -0.14285714       0.25000000       0.33333333 </v>
   <v>      -0.10714286       0.25000000       0.33333333 </v>
   <v>      -0.07142857       0.25000000       0.33333333 </v>
   <v>      -0.03571429       0.25000000       0.33333333 </v>
   <v>       0.00000000       0.28571429       0.33333333 </v>
   <v>       0.03571429       0.28571429       0.33333333 </v>
   <v>       0.07142857       0.28571429       0.33333333 </v>
   <v>       0.10714286       0.28571429       0.33333333 </v>
   <v>       0.14285714       0.28571429       0.33333333 </v>
   <v>       0.17857143       0.28571429       0.33333333 </v>
   <v>       0.25000000       0.28571429       0.33333333 </v>
   <v>       0.28571429       0.28571429       0.33333333 </v>
   <v>       0.32142857       0.28571429       0.33333333 </v>
   <v>       0.35714286       0.28571429       0.33333333 </v>
   <v>       0.39285714       0.28571429       0.33333333 </v>
   <v>       0.42857143       0.28571429       0.33333333 </v>
   <v>       0.46428571       0.28571429       0.33333333 </v>
   <v>      -0.46428571       0.28571429       0.33333333 </v>
   <v>      -0.42857143       0.28571429       0.33333333 </v>
   <v>      -0.39285714       0.28571429       0.33333333 </v>
   <v>      -0.35714286       0.28571429       0.33333333 </v>
   <v>      -0.32142857       0.28571429       0.33333333 </v>
   <v>      -0.28571429       0.28571429       0.33333333 </v>
   <v>      -0.25000000       0.28571429       0.33333333 </v>
   <v>      -0.21428571       0.28571429       0.33333333 </v>
   <v>      -0.17857143       0.28571429       0.33333333 </v>
   <v>      -0.14285714       0.28571429       0.33333333 </v>
   <v>      -0.10714286       0.28571429       0.33333333 </v>
   <v>      -0.07142857       0.28571429       0.33333333 </v>
   <v>      -0.03571429       0.28571429       0.33333333 </v>
   <v>       0.00000000       0.32142857       0.33333333 </v>
   <v>       0.03571429       0.32142857       0.33333333 </v>
   <v>       0.07142857       0.32142857       0.33333333 </v>
   <v>       0.10714286       0.32142857       0.33333333 </v>
   <v>       0.14285714       0.32142857       0.33333333 </v>
   <v>       0.21428571       0.32142857       0.33333333 </v>
   <v>       0.25000000       0.32142857       0.33333333 </v>
   <v>       0.28571429       0.32142857       0.33333333 </v>
   <v>       0.32142857       0.32142857       0.33333333 </v>
   <v>       0.35714286       0.32142857       0.33333333 </v>
   <v>       0.39285714       0.32142857       0.33333333 </v>
   <v>       0.42857143       0.32142857       0.33333333 </v>
   <v>       0.46428571       0.32142857       0.33333333 </v>
   <v>      -0.46428571       0.32142857       0.33333333 </v>
   <v>      -0.42857143       0.32142857       0.33333333 </v>
   <v>      -0.39285714       0.32142857       0.33333333 </v>
   <v>      -0.35714286       0.32142857       0.33333333 </v>
   <v>      -0.32142857       0.32142857       0.33333333 </v>
   <v>      -0.28571429       0.32142857       0.33333333 </v>
   <v>      -0.25000000       0.32142857       0.33333333 </v>
   <v>      -0.21428571       0.32142857       0.33333333 </v>
   <v>      -0.17857143       0.32142857       0.33333333 </v>
   <v>      -0.14285714       0.32142857       0.33333333 </v>
   <v>      -0.10714286       0.32142857       0.33333333 </v>
   <v>      -0.07142857       0.32142857       0.33333333 </v>
   <v>      -0.03571429       0.32142857       0.33333333 </v>
   <v>       0.00000000       0.35714286       0.33333333 </v>
   <v>       0.03571429       0.35714286       0.33333333 </v>
   <v>       0.07142857       0.35714286       0.33333333 </v>
   <v>       0.10714286       0.35714286       0.33333333 </v>
   <v>       0.17857143       0.35714286       0.33333333 </v>
   <v>       0.21428571       0.35714286       0.33333333 </v>
   <v>       0.25000000       0.35714286       0.33333333 </v>
   <v>       0.28571429       0.35714286       0.33333333 </v>
   <v>       0.32142857       0.35714286       0.33333333 </v>
   <v>       0.35714286       0.35714286       0.33333333 </v>
   <v>       0.39285714       0.35714286       0.33333333 </v>
   <v>       0.42857143       0.35714286       0.33333333 </v>
   <v>       0.46428571       0.35714286       0.33333333 </v>
   <v>      -0.46428571       0.35714286       0.33333333 </v>
   <v>      -0.42857143       0.35714286       0.33333333 </v>
   <v>      -0.39285714       0.35714286       0.33333333 </v>
   <v>      -0.35714286       0.35714286       0.33333333 </v>
   <v>      -0.32142857       0.35714286       0.33333333 </v>
   <v>      -0.28571429       0.35714286       0.33333333 </v>
   <v>      -0.25000000       0.35714286       0.33333333 </v>
   <v>      -0.21428571       0.35714286       0.33333333 </v>
   <v>      -0.17857143       0.35714286       0.33333333 </v>
   <v>      -0.14285714       0.35714286       0.33333333 </v>
   <v>      -0.10714286       0.35714286       0.33333333 </v>
   <v>      -0.07142857       0.35714286       0.33333333 </v>
   <v>      -0.03571429       0.35714286       0.33333333 </v>
   <v>       0.00000000       0.39285714       0.33333333 </v>
   <v>       0.03571429       0.39285714       0.33333333 </v>
   <v>       0.07142857       0.39285714       0.33333333 </v>
   <v>       0.14285714       0.39285714       0.33333333 </v>
   <v>       0.17857143       0.39285714       0.33333333 </v>
   <v>       0.21428571       0.39285714       0.33333333 </v>
   <v>       0.25000000       0.39285714       0.33333333 </v>
   <v>       0.28571429       0.39285714       0.33333333 </v>
   <v>       0.32142857       0.39285714       0.33333333 </v>
   <v>       0.35714286       0.39285714       0.33333333 </v>
   <v>       0.39285714       0.39285714       0.33333333 </v>
   <v>       0.42857143       0.39285714       0.33333333 </v>
   <v>       0.46428571       0.39285714       0.33333333 </v>
   <v>      -0.46428571       0.39285714       0.33333333 </v>
   <v>      -0.42857143       0.39285714       0.33333333 </v>
   <v>      -0.39285714       0.39285714       0.33333333 </v>
   <v>      -0.35714286       0.39285714       0.33333333 </v>
   <v>      -0.32142857       0.39285714       0.33333333 </v>
   <v>      -0.28571429       0.39285714       0.33333333 </v>
   <v>      -0.25000000       0.39285714       0.33333333 </v>
   <v>      -0.21428571       0.39285714       0.33333333 </v>
   <v>      -0.17857143       0.39285714       0.33333333 </v>
   <v>      -0.14285714       0.39285714       0.33333333 </v>
   <v>      -0.10714286       0.39285714       0.33333333 </v>
   <v>      -0.07142857       0.39285714       0.33333333 </v>
   <v>      -0.03571429       0.39285714       0.33333333 </v>
   <v>       0.00000000       0.42857143       0.33333333 </v>
   <v>       0.03571429       0.42857143       0.33333333 </v>
   <v>       0.10714286       0.42857143       0.33333333 </v>
   <v>       0.14285714       0.42857143       0.33333333 </v>
   <v>       0.17857143       0.42857143       0.33333333 </v>
   <v>       0.21428571       0.42857143       0.33333333 </v>
   <v>       0.25000000       0.42857143       0.33333333 </v>
   <v>       0.28571429       0.42857143       0.33333333 </v>
   <v>       0.32142857       0.42857143       0.33333333 </v>
   <v>       0.35714286       0.42857143       0.33333333 </v>
   <v>       0.39285714       0.42857143       0.33333333 </v>
   <v>       0.42857143       0.42857143       0.33333333 </v>
   <v>       0.46428571       0.42857143       0.33333333 </v>
   <v>      -0.46428571       0.42857143       0.33333333 </v>
   <v>      -0.42857143       0.42857143       0.33333333 </v>
   <v>      -0.39285714       0.42857143       0.33333333 </v>
   <v>      -0.35714286       0.42857143       0.33333333 </v>
   <v>      -0.32142857       0.42857143       0.33333333 </v>
   <v>      -0.28571429       0.42857143       0.33333333 </v>
   <v>      -0.25000000       0.42857143       0.33333333 </v>
   <v>      -0.21428571       0.42857143       0.33333333 </v>
   <v>      -0.17857143       0.42857143       0.33333333 </v>
   <v>      -0.14285714       0.42857143       0.33333333 </v>
   <v>      -0.10714286       0.42857143       0.33333333 </v>
   <v>      -0.07142857       0.42857143       0.33333333 </v>
   <v>      -0.03571429       0.42857143       0.33333333 </v>
   <v>       0.00000000       0.46428571       0.33333333 </v>
   <v>       0.07142857       0.46428571       0.33333333 </v>
   <v>       0.10714286       0.46428571       0.33333333 </v>
   <v>       0.14285714       0.46428571       0.33333333 </v>
   <v>       0.17857143       0.46428571       0.33333333 </v>
   <v>       0.21428571       0.46428571       0.33333333 </v>
   <v>       0.25000000       0.46428571       0.33333333 </v>
   <v>       0.28571429       0.46428571       0.33333333 </v>
   <v>       0.32142857       0.46428571       0.33333333 </v>
   <v>       0.35714286       0.46428571       0.33333333 </v>
   <v>       0.39285714       0.46428571       0.33333333 </v>
   <v>       0.42857143       0.46428571       0.33333333 </v>
   <v>       0.46428571       0.46428571       0.33333333 </v>
   <v>      -0.46428571       0.46428571       0.33333333 </v>
   <v>      -0.42857143       0.46428571       0.33333333 </v>
   <v>      -0.39285714       0.46428571       0.33333333 </v>
   <v>      -0.35714286       0.46428571       0.33333333 </v>
   <v>      -0.32142857       0.46428571       0.33333333 </v>
   <v>      -0.28571429       0.46428571       0.33333333 </v>
   <v>      -0.25000000       0.46428571       0.33333333 </v>
   <v>      -0.21428571       0.46428571       0.33333333 </v>
   <v>      -0.17857143       0.46428571       0.33333333 </v>
   <v>      -0.14285714       0.46428571       0.33333333 </v>
   <v>      -0.10714286       0.46428571       0.33333333 </v>
   <v>      -0.07142857       0.46428571       0.33333333 </v>
   <v>      -0.03571429       0.46428571       0.33333333 </v>
   <v>       0.03571429       0.50000000       0.33333333 </v>
   <v>       0.07142857       0.50000000       0.33333333 </v>
   <v>       0.10714286       0.50000000       0.33333333 </v>
   <v>       0.14285714       0.50000000       0.33333333 </v>
   <v>       0.17857143       0.50000000       0.33333333 </v>
   <v>       0.21428571       0.50000000       0.33333333 </v>
   <v>       0.25000000       0.50000000       0.33333333 </v>
   <v>       0.28571429       0.50000000       0.33333333 </v>
   <v>       0.32142857       0.50000000       0.33333333 </v>
   <v>       0.35714286       0.50000000       0.33333333 </v>
   <v>       0.39285714       0.50000000       0.33333333 </v>
   <v>       0.42857143       0.50000000       0.33333333 </v>
   <v>       0.46428571       0.50000000       0.33333333 </v>
   <v>       0.00000000       0.00000000       0.50000000 </v>
   <v>       0.03571429       0.00000000       0.50000000 </v>
   <v>       0.07142857       0.00000000       0.50000000 </v>
   <v>       0.10714286       0.00000000       0.50000000 </v>
   <v>       0.14285714       0.00000000       0.50000000 </v>
   <v>       0.17857143       0.00000000       0.50000000 </v>
   <v>       0.21428571       0.00000000       0.50000000 </v>
   <v>       0.25000000       0.00000000       0.50000000 </v>
   <v>       0.28571429       0.00000000       0.50000000 </v>
   <v>       0.32142857       0.00000000       0.50000000 </v>
   <v>       0.35714286       0.00000000       0.50000000 </v>
   <v>       0.39285714       0.00000000       0.50000000 </v>
   <v>       0.42857143       0.00000000       0.50000000 </v>
   <v>       0.46428571       0.00000000       0.50000000 </v>
   <v>       0.00000000       0.03571429       0.50000000 </v>
   <v>       0.03571429       0.03571429       0.50000000 </v>
   <v>       0.07142857       0.03571429       0.50000000 </v>
   <v>       0.10714286       0.03571429       0.50000000 </v>
   <v>       0.14285714       0.03571429       0.50000000 </v>
   <v>       0.17857143       0.03571429       0.50000000 </v>
   <v>       0.21428571       0.03571429       0.50000000 </v>
   <v>       0.25000000       0.03571429       0.50000000 </v>
   <v>       0.28571429       0.03571429       0.50000000 </v>
   <v>       0.32142857       0.03571429       0.50000000 </v>
   <v>       0.35714286       0.03571429       0.50000000 </v>
   <v>       0.39285714       0.03571429       0.50000000 </v>
   <v>       0.42857143       0.03571429       0.50000000 </v>
   <v>       0.00000000       0.07142857       0.50000000 </v>
   <v>       0.03571429       0.07142857       0.50000000 </v>
   <v>       0.07142857       0.07142857       0.50000000 </v>
   <v>       0.10714286       0.07142857       0.50000000 </v>
   <v>       0.14285714       0.07142857       0.50000000 </v>
   <v>       0.17857143       0.07142857       0.50000000 </v>
   <v>       0.21428571       0.07142857       0.50000000 </v>
   <v>       0.25000000       0.07142857       0.50000000 </v>
   <v>       0.28571429       0.07142857       0.50000000 </v>
   <v>       0.32142857       0.07142857       0.50000000 </v>
   <v>       0.35714286       0.07142857       0.50000000 </v>
   <v>       0.39285714       0.07142857       0.50000000 </v>
   <v>       0.46428571       0.07142857       0.50000000 </v>
   <v>      -0.03571429       0.07142857       0.50000000 </v>
   <v>       0.00000000       0.10714286       0.50000000 </v>
   <v>       0.03571429       0.10714286       0.50000000 </v>
   <v>       0.07142857       0.10714286       0.50000000 </v>
   <v>       0.10714286       0.10714286       0.50000000 </v>
   <v>       0.14285714       0.10714286       0.50000000 </v>
   <v>       0.17857143       0.10714286       0.50000000 </v>
   <v>       0.21428571       0.10714286       0.50000000 </v>
   <v>       0.25000000       0.10714286       0.50000000 </v>
   <v>       0.28571429       0.10714286       0.50000000 </v>
   <v>       0.32142857       0.10714286       0.50000000 </v>
   <v>       0.35714286       0.10714286       0.50000000 </v>
   <v>       0.42857143       0.10714286       0.50000000 </v>
   <v>      -0.07142857       0.10714286       0.50000000 </v>
   <v>       0.00000000       0.14285714       0.50000000 </v>
   <v>       0.03571429       0.14285714       0.50000000 </v>
   <v>       0.07142857       0.14285714       0.50000000 </v>
   <v>       0.10714286       0.14285714       0.50000000 </v>
   <v>       0.14285714       0.14285714       0.50000000 </v>
   <v>       0.17857143       0.14285714       0.50000000 </v>
   <v>       0.21428571       0.14285714       0.50000000 </v>
   <v>       0.25000000       0.14285714       0.50000000 </v>
   <v>       0.28571429       0.14285714       0.50000000 </v>
   <v>       0.32142857       0.14285714       0.50000000 </v>
   <v>       0.39285714       0.14285714       0.50000000 </v>
   <v>       0.42857143       0.14285714       0.50000000 </v>
   <v>      -0.10714286       0.14285714       0.50000000 </v>
   <v>      -0.07142857       0.14285714       0.50000000 </v>
   <v>       0.00000000       0.17857143       0.50000000 </v>
   <v>       0.03571429       0.17857143       0.50000000 </v>
   <v>       0.07142857       0.17857143       0.50000000 </v>
   <v>       0.10714286       0.17857143       0.50000000 </v>
   <v>       0.14285714       0.17857143       0.50000000 </v>
   <v>       0.17857143       0.17857143       0.50000000 </v>
   <v>       0.21428571       0.17857143       0.50000000 </v>
   <v>       0.25000000       0.17857143       0.50000000 </v>
   <v>       0.28571429       0.17857143       0.50000000 </v>
   <v>       0.35714286       0.17857143       0.50000000 </v>
   <v>       0.39285714       0.17857143       0.50000000 </v>
   <v>      -0.14285714       0.17857143       0.50000000 </v>
   <v>      -0.10714286       0.17857143       0.50000000 </v>
   <v>       0.00000000       0.21428571       0.50000000 </v>
   <v>       0.03571429       0.21428571       0.50000000 </v>
   <v>       0.07142857       0.21428571       0.50000000 </v>
   <v>       0.10714286       0.21428571       0.50000000 </v>
   <v>       0.14285714       0.21428571       0.50000000 </v>
   <v>       0.17857143       0.21428571       0.50000000 </v>
   <v>       0.21428571       0.21428571       0.50000000 </v>
   <v>       0.25000000       0.21428571       0.50000000 </v>
   <v>       0.32142857       0.21428571       0.50000000 </v>
   <v>       0.35714286       0.21428571       0.50000000 </v>
   <v>       0.39285714       0.21428571       0.50000000 </v>
   <v>      -0.17857143       0.21428571       0.50000000 </v>
   <v>      -0.14285714       0.21428571       0.50000000 </v>
   <v>      -0.10714286       0.21428571       0.50000000 </v>
   <v>       0.00000000       0.25000000       0.50000000 </v>
   <v>       0.03571429       0.25000000       0.50000000 </v>
   <v>       0.07142857       0.25000000       0.50000000 </v>
   <v>       0.10714286       0.25000000       0.50000000 </v>
   <v>       0.14285714       0.25000000       0.50000000 </v>
   <v>       0.17857143       0.25000000       0.50000000 </v>
   <v>       0.21428571       0.25000000       0.50000000 </v>
   <v>       0.28571429       0.25000000       0.50000000 </v>
   <v>       0.32142857       0.25000000       0.50000000 </v>
   <v>       0.35714286       0.25000000       0.50000000 </v>
   <v>      -0.21428571       0.25000000       0.50000000 </v>
   <v>      -0.17857143       0.25000000       0.50000000 </v>
   <v>      -0.14285714       0.25000000       0.50000000 </v>
   <v>       0.00000000       0.28571429       0.50000000 </v>
   <v>       0.03571429       0.28571429       0.50000000 </v>
   <v>       0.07142857       0.28571429       0.50000000 </v>
   <v>       0.10714286       0.28571429       0.50000000 </v>
   <v>       0.14285714       0.28571429       0.50000000 </v>
   <v>       0.17857143       0.28571429       0.50000000 </v>
   <v>       0.25000000       0.28571429       0.50000000 </v>
   <v>       0.28571429       0.28571429       0.50000000 </v>
   <v>       0.32142857       0.28571429       0.50000000 </v>
   <v>       0.35714286       0.28571429       0.50000000 </v>
   <v>      -0.25000000       0.28571429       0.50000000 </v>
   <v>      -0.21428571       0.28571429       0.50000000 </v>
   <v>      -0.17857143       0.28571429       0.50000000 </v>
   <v>      -0.14285714       0.28571429       0.50000000 </v>
   <v>       0.00000000       0.32142857       0.50000000 </v>
   <v>       0.03571429       0.32142857       0.50000000 </v>
   <v>       0.07142857       0.32142857       0.50000000 </v>
   <v>       0.10714286       0.32142857       0.50000000 </v>
   <v>       0.14285714       0.32142857       0.50000000 </v>
   <v>       0.21428571       0.32142857       0.50000000 </v>
   <v>       0.25000000       0.32142857       0.50000000 </v>
   <v>       0.28571429       0.32142857       0.50000000 </v>
   <v>       0.32142857       0.32142857       0.50000000 </v>
   <v>      -0.28571429       0.32142857       0.50000000 </v>
   <v>      -0.25000000       0.32142857       0.50000000 </v>
   <v>      -0.21428571       0.32142857       0.50000000 </v>
   <v>      -0.17857143       0.32142857       0.50000000 </v>
   <v>       0.00000000       0.35714286       0.50000000 </v>
   <v>       0.03571429       0.35714286       0.50000000 </v>
   <v>       0.07142857       0.35714286       0.50000000 </v>
   <v>       0.10714286       0.35714286       0.50000000 </v>
   <v>       0.17857143       0.35714286       0.50000000 </v>
   <v>       0.21428571       0.35714286       0.50000000 </v>
   <v>       0.25000000       0.35714286       0.50000000 </v>
   <v>       0.28571429       0.35714286       0.50000000 </v>
   <v>       0.32142857       0.35714286       0.50000000 </v>
   <v>      -0.32142857       0.35714286       0.50000000 </v>
   <v>      -0.28571429       0.35714286       0.50000000 </v>
   <v>      -0.25000000       0.35714286       0.50000000 </v>
   <v>      -0.21428571       0.35714286       0.50000000 </v>
   <v>      -0.17857143       0.35714286       0.50000000 </v>
   <v>       0.00000000       0.39285714       0.50000000 </v>
   <v>       0.03571429       0.39285714       0.50000000 </v>
   <v>       0.07142857       0.39285714       0.50000000 </v>
   <v>       0.14285714       0.39285714       0.50000000 </v>
   <v>       0.17857143       0.39285714       0.50000000 </v>
   <v>       0.21428571       0.39285714       0.50000000 </v>
   <v>       0.25000000       0.39285714       0.50000000 </v>
   <v>       0.28571429       0.39285714       0.50000000 </v>
   <v>      -0.35714286       0.39285714       0.50000000 </v>
   <v>      -0.32142857       0.39285714       0.50000000 </v>
   <v>      -0.28571429       0.39285714       0.50000000 </v>
   <v>      -0.25000000       0.39285714       0.50000000 </v>
   <v>      -0.21428571       0.39285714       0.50000000 </v>
   <v>       0.00000000       0.42857143       0.50000000 </v>
   <v>       0.03571429       0.42857143       0.50000000 </v>
   <v>       0.10714286       0.42857143       0.50000000 </v>
   <v>       0.14285714       0.42857143       0.50000000 </v>
   <v>       0.17857143       0.42857143       0.50000000 </v>
   <v>       0.21428571       0.42857143       0.50000000 </v>
   <v>       0.25000000       0.42857143       0.50000000 </v>
   <v>       0.28571429       0.42857143       0.50000000 </v>
   <v>      -0.39285714       0.42857143       0.50000000 </v>
   <v>      -0.35714286       0.42857143       0.50000000 </v>
   <v>      -0.32142857       0.42857143       0.50000000 </v>
   <v>      -0.28571429       0.42857143       0.50000000 </v>
   <v>      -0.25000000       0.42857143       0.50000000 </v>
   <v>      -0.21428571       0.42857143       0.50000000 </v>
   <v>       0.00000000       0.46428571       0.50000000 </v>
   <v>       0.07142857       0.46428571       0.50000000 </v>
   <v>       0.10714286       0.46428571       0.50000000 </v>
   <v>       0.14285714       0.46428571       0.50000000 </v>
   <v>       0.17857143       0.46428571       0.50000000 </v>
   <v>       0.21428571       0.46428571       0.50000000 </v>
   <v>       0.25000000       0.46428571       0.50000000 </v>
   <v>      -0.42857143       0.46428571       0.50000000 </v>
   <v>      -0.39285714       0.46428571       0.50000000 </v>
   <v>      -0.35714286       0.46428571       0.50000000 </v>
   <v>      -0.32142857       0.46428571       0.50000000 </v>
   <v>      -0.28571429       0.46428571       0.50000000 </v>
   <v>      -0.25000000       0.46428571       0.50000000 </v>
   <v>       0.03571429       0.50000000       0.50000000 </v>
   <v>       0.07142857       0.50000000       0.50000000 </v>
   <v>       0.10714286       0.50000000       0.50000000 </v>
   <v>       0.14285714       0.50000000       0.50000000 </v>
   <v>       0.17857143       0.50000000       0.50000000 </v>
   <v>       0.21428571       0.50000000       0.50000000 </v>
   <v>       0.25000000       0.50000000       0.50000000 </v>
  </varray>
  <varray name="weights" >
   <v>       0.00021259 </v>
   <v>       0.00042517 </v>
   <v>       0.00042517 </v>
   <v>       0.00042517 </v>
   <v>       0.00042517 </v>
   <v>       0.00042517 </v>
   <v>       0.00042517 </v>
   <v>       0.00042517 </v>
   <v>       0.00042517 </v>
   <v>       0.00042517 </v>
   <v>       0.00042517 </v>
   <v>       0.00042517 </v>
   <v>       0.00042517 </v>
   <v>       0.00042517 </v>
   <v>       0.00063776 </v>
   <v>       0.00085034 </v>
   <v>       0.00085034 </v>
   <v>       0.00085034 </v>
   <v>       0.00085034 </v>
   <v>       0.00085034 </v>
   <v>       0.00085034 </v>
   <v>       0.00085034 </v>
   <v>       0.00085034 </v>
   <v>       0.00085034 </v>
   <v>       0.00085034 </v>
   <v>       0.00085034 </v>
   <v>       0.00085034 </v>
   <v>       0.00085034 </v>
   <v>       0.00170068 </v>
   <v>       0.00085034 </v>
   <v>       0.00085034 </v>
   <v>       0.00085034 </v>
   <v>       0.00085034 </v>
   <v>       0.00085034 </v>
   <v>       0.00085034 </v>
   <v>       0.00085034 </v>
   <v>       0.00085034 </v>
   <v>       0.00085034 </v>
   <v>       0.00085034 </v>
   <v>       0.00085034 </v>
   <v>       0.00085034 </v>
   <v>       0.00170068 </v>
   <v>       0.00042517 </v>
   <v>       0.00042517 </v>
   <v>       0.00085034 </v>
   <v>       0.00085034 </v>
   <v>       0.00085034 </v>
   <v>       0.00085034 </v>
   <v>       0.00085034 </v>
   <v>       0.00085034 </v>
   <v>       0.00085034 </v>
   <v>       0.00085034 </v>
   <v>       0.00085034 </v>
   <v>       0.00085034 </v>
   <v>       0.00085034 </v>
   <v>       0.00170068 </v>
   <v>       0.00085034 </v>
   <v>       0.00085034 </v>
   <v>       0.00085034 </v>
   <v>       0.00085034 </v>
   <v>       0.00085034 </v>
   <v>       0.00085034 </v>
   <v>       0.00085034 </v>
   <v>       0.00085034 </v>
   <v>       0.00085034 </v>
   <v>       0.00085034 </v>
   <v>       0.00085034 </v>
   <v>       0.00085034 </v>
   <v>       0.00170068 </v>
   <v>       0.00085034 </v>
   <v>       0.00042517 </v>
   <v>       0.00085034 </v>
   <v>       0.00042517 </v>
   <v>       0.00085034 </v>
   <v>       0.00085034 </v>
   <v>       0.00085034 </v>
   <v>       0.00085034 </v>
   <v>       0.00085034 </v>
   <v>       0.00085034 </v>
   <v>       0.00085034 </v>
   <v>       0.00085034 </v>
   <v>       0.00085034 </v>
   <v>       0.00170068 </v>
   <v>       0.00085034 </v>
   <v>       0.00085034 </v>
   <v>       0.00085034 </v>
   <v>       0.00085034 </v>
   <v>       0.00085034 </v>
   <v>       0.00085034 </v>
   <v>       0.00085034 </v>
   <v>       0.00085034 </v>
   <v>       0.00085034 </v>
   <v>       0.00085034 </v>
   <v>       0.00085034 </v>
   <v>       0.00085034 </v>
   <v>       0.00170068 </v>
   <v>       0.00085034 </v>
   <v>       0.00085034 </v>
   <v>       0.00042517 </v>
   <v>       0.00085034 </v>
   <v>       0.00085034 </v>
   <v>       0.00042517 </v>
   <v>       0.00085034 </v>
   <v>       0.00085034 </v>
   <v>       0.00085034 </v>
   <v>       0.00085034 </v>
   <v>       0.00085034 </v>
   <v>       0.00085034 </v>
   <v>       0.00085034 </v>
   <v>       0.00170068 </v>
[...]
       <r>    2.8024    1.0000 </r>
       <r>    3.0148    1.0000 </r>
       <r>    3.2301    1.0000 </r>
       <r>    3.3158    1.0000 </r>
       <r>    3.5351    1.0000 </r>
       <r>    3.7360    1.0000 </r>
       <r>    3.7904    1.0000 </r>
       <r>    4.0103    1.0000 </r>
       <r>    4.0527    1.0000 </r>
       <r>    4.3569    1.0000 </r>
       <r>    4.4611    1.0000 </r>
       <r>    4.5475    1.0000 </r>
       <r>    4.7397    1.0000 </r>
       <r>    4.8700    1.0000 </r>
       <r>    4.9575    1.0000 </r>
       <r>    5.1655    1.0000 </r>
       <r>    5.2825    1.0000 </r>
       <r>    5.5971    1.0000 </r>
       <r>    7.6018    1.0259 </r>
       <r>    7.8225    0.9906 </r>
       <r>    9.6492    0.0000 </r>
       <r>    9.8405    0.0000 </r>
       <r>   12.1763    0.0000 </r>
       <r>   12.4677    0.0000 </r>
       <r>   13.7907    0.0000 </r>
       <r>   14.1614    0.0000 </r>
       <r>   15.1152    0.0000 </r>
       <r>   15.3631    0.0000 </r>
       <r>   16.4533    0.0000 </r>
      </set>
      <set comment="kpoint 1190">
       <r>    2.1960    1.0000 </r>
       <r>    2.3173    1.0000 </r>
       <r>    2.4551    1.0000 </r>
       <r>    2.5236    1.0000 </r>
       <r>    2.5832    1.0000 </r>
       <r>    2.6974    1.0000 </r>
       <r>    2.9365    1.0000 </r>
       <r>    2.9425    1.0000 </r>
       <r>    3.0228    1.0000 </r>
       <r>    3.1770    1.0000 </r>
       <r>    3.2122    1.0000 </r>
       <r>    3.3371    1.0000 </r>
       <r>    3.6294    1.0000 </r>
       <r>    3.7254    1.0000 </r>
       <r>    3.9726    1.0000 </r>
       <r>    4.0776    1.0000 </r>
       <r>    4.2042    1.0000 </r>
       <r>    4.3491    1.0000 </r>
       <r>    4.4090    1.0000 </r>
       <r>    4.6872    1.0000 </r>
       <r>    4.7683    1.0000 </r>
       <r>    4.8714    1.0000 </r>
       <r>    5.1765    1.0000 </r>
       <r>    5.2800    1.0000 </r>
       <r>    5.6094    1.0000 </r>
       <r>    7.6221    1.0289 </r>
       <r>    7.7620    1.0256 </r>
       <r>    9.6699    0.0000 </r>
       <r>    9.8969    0.0000 </r>
       <r>   12.7464    0.0000 </r>
       <r>   13.2072    0.0000 </r>
       <r>   13.9212    0.0000 </r>
       <r>   14.3266    0.0000 </r>
       <r>   14.6875    0.0000 </r>
       <r>   15.0369    0.0000 </r>
       <r>   16.2978    0.0000 </r>
      </set>
      <set comment="kpoint 1191">
       <r>    2.2638    1.0000 </r>
       <r>    2.3103    1.0000 </r>
       <r>    2.5388    1.0000 </r>
       <r>    2.5438    1.0000 </r>
       <r>    2.6297    1.0000 </r>
       <r>    2.7791    1.0000 </r>
       <r>    2.7802    1.0000 </r>
       <r>    3.1212    1.0000 </r>
       <r>    3.1355    1.0000 </r>
       <r>    3.1360    1.0000 </r>
       <r>    3.1545    1.0000 </r>
       <r>    3.3028    1.0000 </r>
       <r>    3.3941    1.0000 </r>
       <r>    3.8274    1.0000 </r>
       <r>    3.8526    1.0000 </r>
       <r>    4.1460    1.0000 </r>
       <r>    4.1501    1.0000 </r>
       <r>    4.3300    1.0000 </r>
       <r>    4.3408    1.0000 </r>
       <r>    4.6101    1.0000 </r>
       <r>    4.7548    1.0000 </r>
       <r>    4.8559    1.0000 </r>
       <r>    5.1817    1.0000 </r>
       <r>    5.2789    1.0000 </r>
       <r>    5.6151    1.0000 </r>
       <r>    7.6333    1.0305 </r>
       <r>    7.7395    1.0315 </r>
       <r>    9.6750    0.0000 </r>
       <r>    9.9136    0.0000 </r>
       <r>   13.1256    0.0000 </r>
       <r>   13.7598    0.0000 </r>
       <r>   13.9001    0.0000 </r>
       <r>   13.9646    0.0000 </r>
       <r>   14.3771    0.0000 </r>
       <r>   15.4111    0.0000 </r>
       <r>   15.7020    0.0000 </r>
      </set>
     </set>
    </set>
   </array>
  </eigenvalues>
  <separator name="orbital magnetization" >
   <v name="MAGDIPOLOUT">      0.00000000      0.00000000      0.00000000</v>
  </separator>
  <dos>
   <i name="efermi">      8.06320930 </i>
   <total>
    <array>
     <dimension dim="1">gridpoints</dimension>
     <dimension dim="2">spin</dimension>
     <field>energy</field>
     <field>total</field>
     <field>integrated</field>
     <set>
      <set comment="spin 1">
       <r>    -3.2120     0.0000     0.0000 </r>
       <r>    -3.1118     0.0000     0.0000 </r>
       <r>    -3.0117     0.0000     0.0000 </r>
       <r>    -2.9115     0.0000     0.0000 </r>
       <r>    -2.8114     0.0000     0.0000 </r>
       <r>    -2.7112     0.0000     0.0000 </r>
       <r>    -2.6111     0.0000     0.0000 </r>
       <r>    -2.5110     0.0000     0.0000 </r>
       <r>    -2.4108     0.0000     0.0000 </r>
       <r>    -2.3107     0.0000     0.0000 </r>
       <r>    -2.2105     0.0000     0.0000 </r>
       <r>    -2.1104     0.0000     0.0000 </r>
       <r>    -2.0102     0.0000     0.0000 </r>
       <r>    -1.9101     0.0000     0.0000 </r>
       <r>    -1.8100     0.0000     0.0000 </r>
       <r>    -1.7098     0.0000     0.0000 </r>
       <r>    -1.6097     0.0000     0.0000 </r>
       <r>    -1.5095     0.0000     0.0000 </r>
       <r>    -1.4094     0.0000     0.0000 </r>
       <r>    -1.3092     0.0000     0.0000 </r>
       <r>    -1.2091     0.0000     0.0000 </r>
       <r>    -1.1089     0.0000     0.0000 </r>
       <r>    -1.0088     0.0000     0.0000 </r>
       <r>    -0.9087    -0.0002     0.0000 </r>
       <r>    -0.8085    -0.0010    -0.0001 </r>
       <r>    -0.7084    -0.0029    -0.0004 </r>
       <r>    -0.6082    -0.0063    -0.0010 </r>
       <r>    -0.5081    -0.0086    -0.0019 </r>
       <r>    -0.4079    -0.0018    -0.0021 </r>
       <r>    -0.3078     0.0257     0.0005 </r>
       <r>    -0.2077     0.0792     0.0084 </r>
       <r>    -0.1075     0.1483     0.0233 </r>
       <r>    -0.0074     0.2115     0.0445 </r>
       <r>     0.0928     0.2521     0.0697 </r>
       <r>     0.1929     0.2697     0.0967 </r>
       <r>     0.2931     0.2743     0.1242 </r>
       <r>     0.3932     0.2751     0.1517 </r>
       <r>     0.4933     0.2764     0.1794 </r>
       <r>     0.5935     0.2807     0.2075 </r>
       <r>     0.6936     0.2939     0.2370 </r>
       <r>     0.7938     0.3246     0.2695 </r>
       <r>     0.8939     0.3789     0.3074 </r>
       <r>     0.9941     0.4510     0.3526 </r>
       <r>     1.0942     0.5211     0.4048 </r>
       <r>     1.1943     0.5711     0.4620 </r>
       <r>     1.2945     0.6166     0.5237 </r>
       <r>     1.3946     0.7255     0.5964 </r>
       <r>     1.4948     0.9902     0.6955 </r>
       <r>     1.5949     1.4562     0.8414 </r>
       <r>     1.6951     2.1082     1.0525 </r>
       <r>     1.7952     2.9882     1.3517 </r>
       <r>     1.8953     4.3041     1.7827 </r>
       <r>     1.9955     6.3048     2.4141 </r>
       <r>     2.0956     8.9832     3.3137 </r>
       <r>     2.1958    11.8958     4.5050 </r>
       <r>     2.2959    14.2879     5.9359 </r>
       <r>     2.3961    15.4763     7.4857 </r>
       <r>     2.4962    15.2501     9.0129 </r>
       <r>     2.5963    14.0050    10.4154 </r>
       <r>     2.6965    12.5230    11.6695 </r>
       <r>     2.7966    11.5590    12.8271 </r>
       <r>     2.8968    11.4503    13.9737 </r>
       <r>     2.9969    11.9781    15.1733 </r>
       <r>     3.0971    12.6398    16.4390 </r>
       <r>     3.1972    13.1696    17.7579 </r>
       <r>     3.2974    13.8156    19.1414 </r>
       <r>     3.3975    15.0378    20.6474 </r>
       <r>     3.4976    16.8526    22.3350 </r>
       <r>     3.5978    18.4984    24.1875 </r>
       <r>     3.6979    18.9239    26.0826 </r>
       <r>     3.7981    17.7639    27.8616 </r>
       <r>     3.8982    15.7753    29.4413 </r>
       <r>     3.9984    14.2056    30.8639 </r>
       <r>     4.0985    13.7738    32.2433 </r>
       <r>     4.1986    14.2597    33.6713 </r>
       <r>     4.2988    14.8934    35.1628 </r>
       <r>     4.3989    15.0360    36.6685 </r>
       <r>     4.4991    14.6090    38.1315 </r>
       <r>     4.5992    14.0169    39.5352 </r>
       <r>     4.6994    13.7068    40.9079 </r>
       <r>     4.7995    13.7946    42.2893 </r>
       <r>     4.8996    14.0310    43.6944 </r>
       <r>     4.9998    14.0246    45.0989 </r>
       <r>     5.0999    13.5152    46.4524 </r>
       <r>     5.2001    12.5240    47.7065 </r>
       <r>     5.3002    11.2504    48.8332 </r>
       <r>     5.4004     9.8045    49.8151 </r>
       <r>     5.5005     8.1190    50.6281 </r>
       <r>     5.6006     6.1891    51.2479 </r>
       <r>     5.7008     4.2934    51.6779 </r>
       <r>     5.8009     2.8312    51.9614 </r>
       <r>     5.9011     1.9793    52.1596 </r>
       <r>     6.0012     1.6057    52.3204 </r>
       <r>     6.1014     1.4709    52.4677 </r>
       <r>     6.2015     1.4131    52.6092 </r>
       <r>     6.3016     1.3706    52.7465 </r>
       <r>     6.4018     1.3243    52.8791 </r>
       <r>     6.5019     1.2629    53.0056 </r>
       <r>     6.6021     1.1918    53.1249 </r>
       <r>     6.7022     1.1446    53.2395 </r>
       <r>     6.8024     1.1594    53.3556 </r>
       <r>     6.9025     1.2319    53.4790 </r>
       <r>     7.0027     1.3031    53.6095 </r>
       <r>     7.1028     1.3126    53.7410 </r>
       <r>     7.2029     1.2588    53.8670 </r>
       <r>     7.3031     1.1992    53.9871 </r>
       <r>     7.4032     1.1980    54.1071 </r>
       <r>     7.5034     1.2744    54.2347 </r>
       <r>     7.6035     1.3837    54.3733 </r>
       <r>     7.7037     1.4481    54.5183 </r>
       <r>     7.8038     1.4244    54.6609 </r>
       <r>     7.9039     1.3437    54.7955 </r>
       <r>     8.0041     1.2829    54.9240 </r>
       <r>     8.1042     1.2977    55.0539 </r>
       <r>     8.2044     1.3763    55.1918 </r>
       <r>     8.3045     1.4516    55.3371 </r>
       <r>     8.4047     1.4640    55.4837 </r>
       <r>     8.5048     1.4081    55.6247 </r>
       <r>     8.6049     1.3266    55.7576 </r>
       <r>     8.7051     1.2760    55.8854 </r>
       <r>     8.8052     1.2902    56.0146 </r>
       <r>     8.9054     1.3542    56.1502 </r>
       <r>     9.0055     1.4143    56.2918 </r>
       <r>     9.1057     1.4274    56.4348 </r>
       <r>     9.2058     1.3913    56.5741 </r>
       <r>     9.3059     1.3312    56.7074 </r>
       <r>     9.4061     1.2824    56.8358 </r>
       <r>     9.5062     1.2815    56.9642 </r>
       <r>     9.6064     1.3376    57.0981 </r>
       <r>     9.7065     1.4091    57.2392 </r>
       <r>     9.8067     1.4312    57.3826 </r>
       <r>     9.9068     1.3762    57.5204 </r>
       <r>    10.0069     1.2825    57.6488 </r>
       <r>    10.1071     1.2180    57.7708 </r>
       <r>    10.2072     1.2123    57.8922 </r>
       <r>    10.3074     1.2290    58.0153 </r>
       <r>    10.4075     1.2111    58.1365 </r>
       <r>    10.5077     1.1468    58.2514 </r>
       <r>    10.6078     1.0776    58.3593 </r>
       <r>    10.7079     1.0449    58.4639 </r>
       <r>    10.8081     1.0440    58.5685 </r>
       <r>    10.9082     1.0371    58.6723 </r>
       <r>    11.0084     1.0099    58.7735 </r>
       <r>    11.1085     1.0095    58.8746 </r>
       <r>    11.2087     1.1116    58.9859 </r>
       <r>    11.3088     1.3401    59.1201 </r>
       <r>    11.4090     1.6222    59.2825 </r>
       <r>    11.5091     1.8360    59.4664 </r>
       <r>    11.6092     1.9049    59.6572 </r>
       <r>    11.7094     1.8484    59.8423 </r>
       <r>    11.8095     1.7462    60.0171 </r>
       <r>    11.9097     1.6612    60.1835 </r>
       <r>    12.0098     1.6068    60.3444 </r>
       <r>    12.1100     1.5774    60.5024 </r>
       <r>    12.2101     1.5771    60.6603 </r>
       <r>    12.3102     1.5989    60.8204 </r>
       <r>    12.4104     1.6078    60.9815 </r>
       <r>    12.5105     1.5785    61.1395 </r>
       <r>    12.6107     1.5324    61.2930 </r>
       <r>    12.7108     1.5079    61.4440 </r>
       <r>    12.8110     1.5067    61.5949 </r>
       <r>    12.9111     1.4997    61.7451 </r>
       <r>    13.0112     1.4776    61.8930 </r>
       <r>    13.1114     1.4644    62.0397 </r>
       <r>    13.2115     1.4773    62.1876 </r>
       <r>    13.3117     1.4964    62.3375 </r>
       <r>    13.4118     1.4869    62.4864 </r>
       <r>    13.5120     1.4429    62.6309 </r>
       <r>    13.6121     1.3985    62.7709 </r>
       <r>    13.7122     1.3915    62.9103 </r>
       <r>    13.8124     1.4258    63.0531 </r>
       <r>    13.9125     1.4750    63.2008 </r>
       <r>    14.0127     1.5155    63.3525 </r>
       <r>    14.1128     1.5486    63.5076 </r>
       <r>    14.2130     1.5897    63.6668 </r>
       <r>    14.3131     1.6451    63.8316 </r>
       <r>    14.4132     1.7035    64.0022 </r>
       <r>    14.5134     1.7469    64.1771 </r>
       <r>    14.6135     1.7670    64.3541 </r>
       <r>    14.7137     1.7734    64.5316 </r>
       <r>    14.8138     1.7899    64.7109 </r>
       <r>    14.9140     1.8394    64.8951 </r>
       <r>    15.0141     1.9216    65.0875 </r>
       <r>    15.1143     2.0072    65.2885 </r>
       <r>    15.2144     2.0620    65.4950 </r>
       <r>    15.3145     2.0748    65.7028 </r>
       <r>    15.4147     2.0563    65.9087 </r>
       <r>    15.5148     2.0179    66.1108 </r>
       <r>    15.6150     1.9642    66.3075 </r>
       <r>    15.7151     1.9034    66.4981 </r>
       <r>    15.8153     1.8449    66.6829 </r>
       <r>    15.9154     1.7834    66.8615 </r>
       <r>    16.0155     1.7053    67.0322 </r>
       <r>    16.1157     1.6210    67.1946 </r>
       <r>    16.2158     1.5710    67.3519 </r>
       <r>    16.3160     1.5823    67.5104 </r>
       <r>    16.4161     1.6320    67.6738 </r>
       <r>    16.5163     1.6644    67.8405 </r>
       <r>    16.6164     1.6410    68.0048 </r>
       <r>    16.7165     1.5685    68.1619 </r>
       <r>    16.8167     1.4854    68.3106 </r>
       <r>    16.9168     1.4259    68.4534 </r>
       <r>    17.0170     1.3956    68.5932 </r>
       <r>    17.1171     1.3740    68.7308 </r>
       <r>    17.2173     1.3368    68.8647 </r>
       <r>    17.3174     1.2765    68.9925 </r>
       <r>    17.4175     1.2038    69.1130 </r>
       <r>    17.5177     1.1333    69.2265 </r>
       <r>    17.6178     1.0706    69.3337 </r>
       <r>    17.7180     1.0112    69.4350 </r>
       <r>    17.8181     0.9504    69.5302 </r>
       <r>    17.9183     0.8962    69.6199 </r>
       <r>    18.0184     0.8646    69.7065 </r>
       <r>    18.1185     0.8576    69.7924 </r>
       <r>    18.2187     0.8555    69.8781 </r>
       <r>    18.3188     0.8388    69.9621 </r>
       <r>    18.4190     0.8075    70.0429 </r>
       <r>    18.5191     0.7724    70.1203 </r>
       <r>    18.6193     0.7356    70.1940 </r>
       <r>    18.7194     0.6881    70.2629 </r>
       <r>    18.8196     0.6263    70.3256 </r>
       <r>    18.9197     0.5699    70.3827 </r>
       <r>    19.0198     0.5520    70.4379 </r>
       <r>    19.1200     0.5818    70.4962 </r>
       <r>    19.2201     0.6246    70.5587 </r>
       <r>    19.3203     0.6314    70.6220 </r>
       <r>    19.4204     0.5870    70.6807 </r>
       <r>    19.5206     0.5224    70.7331 </r>
       <r>    19.6207     0.4803    70.7812 </r>
       <r>    19.7208     0.4744    70.8287 </r>
       <r>    19.8210     0.4845    70.8772 </r>
       <r>    19.9211     0.4832    70.9256 </r>
       <r>    20.0213     0.4609    70.9717 </r>
       <r>    20.1214     0.4275    71.0145 </r>
       <r>    20.2216     0.4010    71.0547 </r>
       <r>    20.3217     0.3937    71.0941 </r>
       <r>    20.4218     0.4032    71.1345 </r>
       <r>    20.5220     0.4129    71.1759 </r>
       <r>    20.6221     0.4060    71.2165 </r>
       <r>    20.7223     0.3820    71.2548 </r>
       <r>    20.8224     0.3582    71.2906 </r>
       <r>    20.9226     0.3534    71.3260 </r>
       <r>    21.0227     0.3657    71.3627 </r>
       <r>    21.1228     0.3704    71.3997 </r>
       <r>    21.2230     0.3440    71.4342 </r>
       <r>    21.3231     0.2900    71.4632 </r>
       <r>    21.4233     0.2387    71.4871 </r>
       <r>    21.5234     0.2209    71.5093 </r>
       <r>    21.6236     0.2427    71.5336 </r>
       <r>    21.7237     0.2799    71.5616 </r>
       <r>    21.8238     0.2986    71.5915 </r>
       <r>    21.9240     0.2846    71.6200 </r>
       <r>    22.0241     0.2561    71.6457 </r>
       <r>    22.1243     0.2404    71.6697 </r>
       <r>    22.2244     0.2428    71.6940 </r>
       <r>    22.3246     0.2459    71.7187 </r>
       <r>    22.4247     0.2391    71.7426 </r>
       <r>    22.5248     0.2358    71.7662 </r>
       <r>    22.6250     0.2553    71.7918 </r>
       <r>    22.7251     0.2931    71.8211 </r>
       <r>    22.8253     0.3174    71.8529 </r>
       <r>    22.9254     0.2990    71.8829 </r>
       <r>    23.0256     0.2438    71.9073 </r>
       <r>    23.1257     0.1878    71.9261 </r>
       <r>    23.2259     0.1589    71.9420 </r>
       <r>    23.3260     0.1533    71.9574 </r>
       <r>    23.4261     0.1472    71.9721 </r>
       <r>    23.5263     0.1238    71.9845 </r>
       <r>    23.6264     0.0860    71.9931 </r>
       <r>    23.7266     0.0479    71.9979 </r>
       <r>    23.8267     0.0205    72.0000 </r>
       <r>    23.9269     0.0057    72.0005 </r>
       <r>    24.0270    -0.0002    72.0005 </r>
       <r>    24.1271    -0.0018    72.0003 </r>
       <r>    24.2273    -0.0016    72.0002 </r>
       <r>    24.3274    -0.0010    72.0001 </r>
       <r>    24.4276    -0.0004    72.0000 </r>
       <r>    24.5277    -0.0002    72.0000 </r>
       <r>    24.6279     0.0000    72.0000 </r>
       <r>    24.7280     0.0000    72.0000 </r>
       <r>    24.8281     0.0000    72.0000 </r>
       <r>    24.9283     0.0000    72.0000 </r>
       <r>    25.0284     0.0000    72.0000 </r>
       <r>    25.1286     0.0000    72.0000 </r>
       <r>    25.2287     0.0000    72.0000 </r>
       <r>    25.3289     0.0000    72.0000 </r>
       <r>    25.4290     0.0000    72.0000 </r>
       <r>    25.5291     0.0000    72.0000 </r>
       <r>    25.6293     0.0000    72.0000 </r>
       <r>    25.7294     0.0000    72.0000 </r>
       <r>    25.8296     0.0000    72.0000 </r>
       <r>    25.9297     0.0000    72.0000 </r>
       <r>    26.0299     0.0000    72.0000 </r>
       <r>    26.1300     0.0000    72.0000 </r>
       <r>    26.2301     0.0000    72.0000 </r>
       <r>    26.3303     0.0000    72.0000 </r>
       <r>    26.4304     0.0000    72.0000 </r>
       <r>    26.5306     0.0000    72.0000 </r>
       <r>    26.6307     0.0000    72.0000 </r>
       <r>    26.7309     0.0000    72.0000 </r>
       <r>    26.8310     0.0000    72.0000 </r>
      </set>
     </set>
    </array>
   </total>
  </dos>
 </calculation>
 <structure name="finalpos" >
  <crystal>
   <varray name="basis" >
    <v>       0.00000000       2.07063312       2.07063312 </v>
    <v>      -2.07063312       0.00000000      -2.07063312 </v>
    <v>      -6.22784608      -8.29847921       6.22784608 </v>
   </varray>
   <i name="volume">     88.98395652 </i>
   <varray name="rec_basis" >
    <v>      -0.19310342       0.28984066       0.19310342 </v>
    <v>      -0.33802375       0.14492033      -0.14492033 </v>
    <v>      -0.04818308      -0.04818308       0.04818308 </v>
   </varray>
  </crystal>
  <varray name="positions" >
   <v>       0.19953397       0.59976698       0.79930095 </v>
   <v>       0.40011506       0.20005753       0.60017259 </v>
   <v>       0.59988494       0.79994247       0.39982741 </v>
   <v>       0.80046603       0.40023302       0.20069905 </v>
   <v>       0.00000000       0.00000000       0.00000000 </v>
  </varray>
 </structure>
</modeling>
